 Gaussian 16, Revision A.03,
 Gaussian 16:  ES64L-G16RevA.03 25-Dec-2016

 ------------------------------
 #p blyp/Def2SVP td=(nstates=5)
 ------------------------------

 --------------------------------------------------
 step_1101_chromophore_6 TDDFT with blyp functional
 --------------------------------------------------
 Symbolic Z-matrix:
 Charge =  0 Multiplicity = 1

                         Standard orientation:
 ---------------------------------------------------------------------
 Center     Atomic      Atomic             Coordinates (Angstroms)
 Number     Number       Type             X           Y           Z
 ---------------------------------------------------------------------
      1         12           0       -5.443523    1.005800   -0.024400
      2          6           0       -4.340914   -2.321344    0.116857
      3          6           0       -2.261711    2.076978   -0.300270
      4          6           0       -6.634142    4.081536    0.081957
      5          6           0       -8.839675   -0.311963    0.299588
      6          7           0       -3.559539   -0.041905    0.157390
      7          6           0       -3.332699   -1.394656    0.093724
      8          6           0       -1.788455   -1.718865   -0.084689
      9          6           0       -1.093931   -0.266199   -0.100560
     10          6           0       -2.344543    0.657478   -0.106849
     11          6           0       -0.093077    0.066739    1.009334
     12          6           0       -1.333514   -2.582808   -1.337153
     13          6           0       -0.071072   -3.497164   -1.323367
     14          6           0        0.869014   -3.500338    0.001754
     15          8           0        0.855819   -4.317621    0.884726
     16          8           0        1.774023   -2.430223   -0.097137
     17          7           0       -4.565600    2.836981   -0.040317
     18          6           0       -3.286620    3.116659   -0.217732
     19          6           0       -3.101872    4.558405   -0.467433
     20          6           0       -4.315486    5.160054   -0.249928
     21          6           0       -5.239391    4.028607   -0.036166
     22          6           0       -1.792199    5.114643   -0.869308
     23          6           0       -4.669975    6.679202   -0.274017
     24          8           0       -5.832980    7.094125    0.043756
     25          6           0       -3.686480    7.776739   -0.656367
     26          7           0       -7.464724    1.705572    0.179180
     27          6           0       -7.603655    3.054166    0.320595
     28          6           0       -9.158292    3.403659    0.661115
     29          6           0       -9.850706    2.086389    0.209730
     30          6           0       -8.732602    1.114248    0.249925
     31          6           0       -9.177587    3.661145    2.159422
     32          6           0      -10.378573    2.113963   -1.261141
     33          6           0      -11.851632    1.897039   -1.415614
     34          7           0       -6.353968   -0.922949    0.268581
     35          6           0       -7.694299   -1.236204    0.280151
     36          6           0       -7.776546   -2.664514    0.296719
     37          6           0       -6.473089   -3.184704    0.289439
     38          6           0       -5.666422   -2.079711    0.091602
     39          6           0       -8.989256   -3.349546    0.481750
     40          6           0       -5.618036   -4.374110    0.285569
     41          8           0       -5.945713   -5.559290    0.384466
     42          6           0       -4.201686   -3.861695    0.179094
     43          6           0       -3.368187   -4.478401    1.276137
     44          8           0       -3.288440   -4.046273    2.412644
     45          8           0       -2.944916   -5.766207    0.846320
     46          6           0       -2.472147   -6.656383    1.950696
     47          6           0        3.013857   -2.622293    0.677446
     48          6           0        4.088914   -2.679773   -0.392937
     49          6           0        4.948171   -3.606301   -0.720524
     50          6           0        4.910832   -5.001264   -0.073685
     51          6           0        5.933556   -3.391606   -1.888550
     52          6           0        7.351625   -2.691302   -1.734313
     53          6           0        7.532085   -1.563665   -2.774981
     54          6           0        7.753717   -0.156125   -2.179314
     55          6           0        7.644597    0.991641   -3.201589
     56          6           0        8.935941   -0.047407   -1.267598
     57          6           0       10.264659   -0.438826   -1.972782
     58          6           0       11.218483    0.722023   -1.640569
     59          6           0       11.852096    0.882493   -0.213919
     60          6           0       11.224217    2.169093    0.331898
     61          6           0       13.424297    1.048047   -0.393057
     62          6           0       14.147328    1.109119    1.003936
     63          6           0       14.885606    2.476064    1.153653
     64          6           0       15.608994    2.539371    2.605463
     65          6           0       17.133826    2.784810    2.474983
     66          6           0       14.856359    3.598023    3.484664
     67          1           0       -1.221727    2.382538   -0.429810
     68          1           0       -6.992791    5.104501    0.211373
     69          1           0       -9.796673   -0.831019    0.212126
     70          1           0       -1.401918   -2.219704    0.801768
     71          1           0       -0.655821   -0.100236   -1.085300
     72          1           0        0.905902    0.176385    0.586738
     73          1           0       -0.060213   -0.735842    1.745594
     74          1           0       -0.367629    1.021581    1.458640
     75          1           0       -1.176371   -1.818163   -2.097565
     76          1           0       -2.159932   -3.138451   -1.780725
     77          1           0        0.639696   -3.250938   -2.111810
     78          1           0       -0.481199   -4.496324   -1.470771
     79          1           0       -1.623289    6.061030   -0.355976
     80          1           0       -1.709913    5.268581   -1.945794
     81          1           0       -0.985889    4.511119   -0.452327
     82          1           0       -3.183529    7.540389   -1.592998
     83          1           0       -3.000470    7.934653    0.175757
     84          1           0       -4.279868    8.680081   -0.800843
     85          1           0       -9.560778    4.291237    0.173517
     86          1           0      -10.569411    1.731439    0.948716
     87          1           0       -9.675648    2.839069    2.674270
     88          1           0       -9.782809    4.545830    2.354676
     89          1           0       -8.186283    3.774678    2.596873
     90          1           0       -9.769507    1.534049   -1.954485
     91          1           0      -10.198989    3.164271   -1.491580
     92          1           0      -12.186321    1.362111   -2.304026
     93          1           0      -12.317496    2.882441   -1.422740
     94          1           0      -12.168694    1.347696   -0.529807
     95          1           0       -8.796311   -4.421921    0.507826
     96          1           0       -9.734910   -3.043352   -0.252743
     97          1           0       -9.350189   -3.020463    1.456363
     98          1           0       -3.710568   -4.207791   -0.730746
     99          1           0       -1.420305   -6.397585    2.074806
    100          1           0       -2.479318   -7.716249    1.697265
    101          1           0       -2.810234   -6.517170    2.976849
    102          1           0        3.072250   -3.510112    1.306521
    103          1           0        3.011449   -1.698343    1.255563
    104          1           0        4.176427   -1.717530   -0.898972
    105          1           0        5.586705   -5.765155   -0.460437
    106          1           0        3.909285   -5.421206   -0.158186
    107          1           0        5.112047   -4.993877    0.998373
    108          1           0        5.331595   -2.977822   -2.697815
    109          1           0        6.095012   -4.387735   -2.299754
    110          1           0        8.033447   -3.509937   -1.963680
    111          1           0        7.510825   -2.419320   -0.691215
    112          1           0        6.707660   -1.514730   -3.486194
    113          1           0        8.364508   -1.835506   -3.423838
    114          1           0        6.847749   -0.132825   -1.574152
    115          1           0        8.486523    1.660847   -3.023053
    116          1           0        6.788302    1.602923   -2.919469
    117          1           0        7.542114    0.626083   -4.223581
    118          1           0        8.856349   -0.800752   -0.483268
    119          1           0        9.002247    0.945521   -0.822702
    120          1           0       10.168835   -0.684737   -3.029578
    121          1           0       10.695751   -1.254597   -1.391229
    122          1           0       10.638890    1.529338   -2.088533
    123          1           0       11.940590    0.579228   -2.443997
    124          1           0       11.479514   -0.005974    0.297257
    125          1           0       11.955162    2.974710    0.402577
    126          1           0       10.906159    1.968146    1.354644
    127          1           0       10.333377    2.519416   -0.190085
    128          1           0       13.566159    1.965305   -0.964672
    129          1           0       13.823512    0.317965   -1.098140
    130          1           0       14.864261    0.295134    1.111291
    131          1           0       13.455463    1.044028    1.843355
    132          1           0       14.283763    3.353979    0.920205
    133          1           0       15.666417    2.629425    0.408292
    134          1           0       15.530631    1.594179    3.141756
    135          1           0       17.619417    2.044841    3.110135
    136          1           0       17.365010    3.793147    2.818501
    137          1           0       17.455166    2.662201    1.440472
    138          1           0       15.467802    4.450630    3.779264
    139          1           0       14.453009    3.148438    4.391938
    140          1           0       13.994568    4.029622    2.973334
 ---------------------------------------------------------------------

 SCF Done:  E(RB-LYP) =  -3007.34079461     A.U. after   21 cycles

 Excitation energies and oscillator strengths:

 Excited State   1:      Singlet-A      1.7581 eV  705.20 nm  f=0.3122  <S**2>=0.000
     245 -> 248       -0.14350
     245 -> 249       -0.12427
     246 -> 247        0.69313
     246 <- 247       -0.15709
 This state for optimization and/or second-order correction.
 Total Energy, E(TD-HF/TD-DFT) =  -3007.27618409
 Copying the excited state density for this state as the 1-particle RhoCI density.

 Excited State   2:      Singlet-A      1.9406 eV  638.91 nm  f=0.0045  <S**2>=0.000
     244 -> 247        0.70431

 Excited State   3:      Singlet-A      2.0195 eV  613.93 nm  f=0.0552  <S**2>=0.000
     245 -> 247        0.63170
     246 -> 248        0.24097
     246 -> 249        0.16363

 Excited State   4:      Singlet-A      2.1576 eV  574.65 nm  f=0.0005  <S**2>=0.000
     243 -> 247        0.70452

 Excited State   5:      Singlet-A      2.4102 eV  514.41 nm  f=0.0094  <S**2>=0.000
     242 -> 247        0.69070

 The electronic state is 1-A.
 Alpha  occ. eigenvalues --  -46.26939 -18.82006 -18.81219 -18.78213 -18.76634
 Alpha  occ. eigenvalues --  -18.76193 -18.75069 -14.03276 -14.03199 -14.01513
 Alpha  occ. eigenvalues --  -13.99893 -10.04893 -10.03529 -10.01158  -9.99237
 Alpha  occ. eigenvalues --   -9.98027  -9.96896  -9.96822  -9.96656  -9.96387
 Alpha  occ. eigenvalues --   -9.96270  -9.96008  -9.95910  -9.94798  -9.94529
 Alpha  occ. eigenvalues --   -9.94305  -9.93988  -9.93971  -9.93776  -9.93726
 Alpha  occ. eigenvalues --   -9.93716  -9.93701  -9.93394  -9.93359  -9.93309
 Alpha  occ. eigenvalues --   -9.93270  -9.93115  -9.92896  -9.92818  -9.92812
 Alpha  occ. eigenvalues --   -9.92465  -9.92446  -9.92345  -9.92271  -9.92231
 Alpha  occ. eigenvalues --   -9.92224  -9.92057  -9.92004  -9.91935  -9.91911
 Alpha  occ. eigenvalues --   -9.91858  -9.91784  -9.91652  -9.91495  -9.91446
 Alpha  occ. eigenvalues --   -9.91403  -9.91373  -9.91205  -9.90958  -9.90845
 Alpha  occ. eigenvalues --   -9.90784  -9.90746  -9.90736  -9.90504  -9.90151
 Alpha  occ. eigenvalues --   -9.90027  -2.91555  -1.71990  -1.71424  -1.71275
 Alpha  occ. eigenvalues --   -0.97712  -0.95449  -0.90921  -0.90209  -0.89570
 Alpha  occ. eigenvalues --   -0.88672  -0.87089  -0.85760  -0.84883  -0.83549
 Alpha  occ. eigenvalues --   -0.75573  -0.73888  -0.72997  -0.72746  -0.71913
 Alpha  occ. eigenvalues --   -0.71726  -0.71560  -0.70984  -0.70400  -0.70364
 Alpha  occ. eigenvalues --   -0.69851  -0.68495  -0.67998  -0.67467  -0.66645
 Alpha  occ. eigenvalues --   -0.66203  -0.65702  -0.65238  -0.64710  -0.64221
 Alpha  occ. eigenvalues --   -0.63985  -0.62898  -0.62088  -0.61840  -0.60754
 Alpha  occ. eigenvalues --   -0.60189  -0.60028  -0.59691  -0.59278  -0.58809
 Alpha  occ. eigenvalues --   -0.58247  -0.56884  -0.56286  -0.55295  -0.53934
 Alpha  occ. eigenvalues --   -0.53866  -0.53457  -0.53180  -0.52785  -0.51583
 Alpha  occ. eigenvalues --   -0.51342  -0.50977  -0.50473  -0.50176  -0.49973
 Alpha  occ. eigenvalues --   -0.49170  -0.49132  -0.47531  -0.47241  -0.46831
 Alpha  occ. eigenvalues --   -0.46352  -0.46158  -0.45266  -0.44659  -0.44099
 Alpha  occ. eigenvalues --   -0.43495  -0.43099  -0.43034  -0.42767  -0.42131
 Alpha  occ. eigenvalues --   -0.41833  -0.41432  -0.41307  -0.40925  -0.40702
 Alpha  occ. eigenvalues --   -0.40406  -0.40327  -0.40308  -0.39920  -0.39721
 Alpha  occ. eigenvalues --   -0.39484  -0.39335  -0.39261  -0.39105  -0.39012
 Alpha  occ. eigenvalues --   -0.38892  -0.38685  -0.38496  -0.38389  -0.38148
 Alpha  occ. eigenvalues --   -0.38029  -0.37773  -0.37623  -0.37467  -0.37162
 Alpha  occ. eigenvalues --   -0.36974  -0.36859  -0.36708  -0.36640  -0.36476
 Alpha  occ. eigenvalues --   -0.36262  -0.36026  -0.35885  -0.35493  -0.35473
 Alpha  occ. eigenvalues --   -0.35305  -0.35045  -0.34905  -0.34772  -0.34644
 Alpha  occ. eigenvalues --   -0.34515  -0.34032  -0.33882  -0.33880  -0.33856
 Alpha  occ. eigenvalues --   -0.33694  -0.33449  -0.33356  -0.33137  -0.32956
 Alpha  occ. eigenvalues --   -0.32809  -0.32751  -0.32463  -0.32317  -0.32185
 Alpha  occ. eigenvalues --   -0.31985  -0.31787  -0.31706  -0.31525  -0.31480
 Alpha  occ. eigenvalues --   -0.31343  -0.31208  -0.30936  -0.30813  -0.30348
 Alpha  occ. eigenvalues --   -0.30242  -0.30172  -0.30142  -0.29970  -0.29853
 Alpha  occ. eigenvalues --   -0.29745  -0.29552  -0.29210  -0.29183  -0.28964
 Alpha  occ. eigenvalues --   -0.28810  -0.28635  -0.28115  -0.27995  -0.27949
 Alpha  occ. eigenvalues --   -0.27643  -0.27475  -0.27341  -0.26487  -0.26428
 Alpha  occ. eigenvalues --   -0.26225  -0.26090  -0.25835  -0.25609  -0.25376
 Alpha  occ. eigenvalues --   -0.24825  -0.24047  -0.23657  -0.23429  -0.22932
 Alpha  occ. eigenvalues --   -0.22816  -0.22684  -0.22293  -0.21563  -0.21378
 Alpha  occ. eigenvalues --   -0.21125  -0.19530  -0.19086  -0.18276  -0.17138
 Alpha  occ. eigenvalues --   -0.15323
 Alpha virt. eigenvalues --   -0.11249  -0.07203  -0.06083  -0.05170  -0.04017
 Alpha virt. eigenvalues --   -0.02516  -0.02435  -0.02106  -0.01263   0.00172
 Alpha virt. eigenvalues --    0.01330   0.01586   0.02169   0.02788   0.03136

 Mulliken charges:
               1
     1  Mg   0.687672
     2  C    0.066107
     3  C   -0.049338
     4  C   -0.040500
     5  C   -0.065728
     6  N   -0.250991
     7  C   -0.054525
     8  C    0.014751
     9  C    0.001880
    10  C   -0.017928
    11  C    0.149658
    12  C    0.088887
    13  C    0.139828
    14  C    0.076678
    15  O   -0.153140
    16  O   -0.308444
    17  N   -0.263559
    18  C    0.112889
    19  C   -0.157493
    20  C    0.074083
    21  C    0.071948
    22  C    0.175722
    23  C   -0.059475
    24  O   -0.203913
    25  C    0.133276
    26  N   -0.227326
    27  C    0.039505
    28  C   -0.033610
    29  C    0.048541
    30  C    0.006467
    31  C    0.142280
    32  C    0.120043
    33  C    0.083923
    34  N   -0.238535
    35  C    0.086504
    36  C   -0.207166
    37  C    0.072823
    38  C    0.047061
    39  C    0.191769
    40  C   -0.043968
    41  O   -0.133473
    42  C    0.084918
    43  C    0.122448
    44  O   -0.171066
    45  O   -0.297535
    46  C    0.225739
    47  C    0.342094
    48  C   -0.101412
    49  C   -0.130716
    50  C    0.106206
    51  C    0.102708
    52  C    0.115037
    53  C    0.092959
    54  C   -0.075356
    55  C    0.142020
    56  C    0.100912
    57  C    0.040399
    58  C    0.063985
    59  C   -0.024489
    60  C    0.113537
    61  C    0.109027
    62  C    0.100441
    63  C    0.058516
    64  C   -0.101388
    65  C    0.111350
    66  C    0.094222
    67  H   -0.070695
    68  H   -0.043221
    69  H   -0.064693
    70  H    0.005514
    71  H   -0.019695
    72  H   -0.010097
    73  H    0.000175
    74  H   -0.009057
    75  H   -0.037028
    76  H   -0.022890
    77  H    0.000381
    78  H    0.002143
    79  H   -0.021184
    80  H    0.017865
    81  H   -0.010103
    82  H    0.006037
    83  H    0.025961
    84  H   -0.000962
    85  H   -0.021270
    86  H   -0.030005
    87  H   -0.018769
    88  H   -0.008871
    89  H    0.008084
    90  H   -0.003952
    91  H   -0.032194
    92  H   -0.005540
    93  H   -0.008809
    94  H   -0.012724
    95  H    0.004369
    96  H   -0.004700
    97  H   -0.001222
    98  H   -0.001375
    99  H    0.000464
   100  H    0.015997
   101  H    0.015598
   102  H    0.002290
   103  H   -0.014657
   104  H   -0.043981
   105  H   -0.017127
   106  H    0.009200
   107  H    0.000919
   108  H   -0.023750
   109  H   -0.047849
   110  H   -0.029176
   111  H   -0.011429
   112  H   -0.035652
   113  H   -0.043566
   114  H   -0.050576
   115  H   -0.024252
   116  H   -0.023688
   117  H   -0.010980
   118  H   -0.045141
   119  H   -0.027532
   120  H   -0.013693
   121  H   -0.042091
   122  H   -0.048617
   123  H   -0.066687
   124  H   -0.033392
   125  H   -0.019864
   126  H   -0.026713
   127  H    0.000044
   128  H   -0.032117
   129  H   -0.030553
   130  H   -0.022235
   131  H   -0.019159
   132  H   -0.027779
   133  H   -0.044918
   134  H   -0.027262
   135  H   -0.013324
   136  H   -0.016354
   137  H   -0.013366
   138  H   -0.020224
   139  H   -0.017367
   140  H   -0.018659
 Sum of Mulliken charges =  -0.00000

 Dipole moment (field-independent basis, Debye):
    X=              4.1047    Y=              2.9671    Z=             -3.3099  Tot=              6.0504
 Quadrupole moment (field-independent basis, Debye-Ang):
   XX=           -377.5687   YY=           -429.5093   ZZ=           -404.9465
   XY=            -21.6518   XZ=             10.9225   YZ=              2.1172

 Normal termination of Gaussian 16 at Wed Apr 27 09:47:11 2022.
