 Gaussian 16, Revision A.03,
 Gaussian 16:  ES64L-G16RevA.03 25-Dec-2016

 -----------------------------------
 #p cam-b3lyp/Def2SVP td=(nstates=5)
 -----------------------------------

 -------------------------------------------------------
 step_1101_chromophore_6 TDDFT with cam-b3lyp functional
 -------------------------------------------------------
 Symbolic Z-matrix:
 Charge =  0 Multiplicity = 1

                         Standard orientation:
 ---------------------------------------------------------------------
 Center     Atomic      Atomic             Coordinates (Angstroms)
 Number     Number       Type             X           Y           Z
 ---------------------------------------------------------------------
      1         12           0       -5.443523    1.005800   -0.024400
      2          6           0       -4.340914   -2.321344    0.116857
      3          6           0       -2.261711    2.076978   -0.300270
      4          6           0       -6.634142    4.081536    0.081957
      5          6           0       -8.839675   -0.311963    0.299588
      6          7           0       -3.559539   -0.041905    0.157390
      7          6           0       -3.332699   -1.394656    0.093724
      8          6           0       -1.788455   -1.718865   -0.084689
      9          6           0       -1.093931   -0.266199   -0.100560
     10          6           0       -2.344543    0.657478   -0.106849
     11          6           0       -0.093077    0.066739    1.009334
     12          6           0       -1.333514   -2.582808   -1.337153
     13          6           0       -0.071072   -3.497164   -1.323367
     14          6           0        0.869014   -3.500338    0.001754
     15          8           0        0.855819   -4.317621    0.884726
     16          8           0        1.774023   -2.430223   -0.097137
     17          7           0       -4.565600    2.836981   -0.040317
     18          6           0       -3.286620    3.116659   -0.217732
     19          6           0       -3.101872    4.558405   -0.467433
     20          6           0       -4.315486    5.160054   -0.249928
     21          6           0       -5.239391    4.028607   -0.036166
     22          6           0       -1.792199    5.114643   -0.869308
     23          6           0       -4.669975    6.679202   -0.274017
     24          8           0       -5.832980    7.094125    0.043756
     25          6           0       -3.686480    7.776739   -0.656367
     26          7           0       -7.464724    1.705572    0.179180
     27          6           0       -7.603655    3.054166    0.320595
     28          6           0       -9.158292    3.403659    0.661115
     29          6           0       -9.850706    2.086389    0.209730
     30          6           0       -8.732602    1.114248    0.249925
     31          6           0       -9.177587    3.661145    2.159422
     32          6           0      -10.378573    2.113963   -1.261141
     33          6           0      -11.851632    1.897039   -1.415614
     34          7           0       -6.353968   -0.922949    0.268581
     35          6           0       -7.694299   -1.236204    0.280151
     36          6           0       -7.776546   -2.664514    0.296719
     37          6           0       -6.473089   -3.184704    0.289439
     38          6           0       -5.666422   -2.079711    0.091602
     39          6           0       -8.989256   -3.349546    0.481750
     40          6           0       -5.618036   -4.374110    0.285569
     41          8           0       -5.945713   -5.559290    0.384466
     42          6           0       -4.201686   -3.861695    0.179094
     43          6           0       -3.368187   -4.478401    1.276137
     44          8           0       -3.288440   -4.046273    2.412644
     45          8           0       -2.944916   -5.766207    0.846320
     46          6           0       -2.472147   -6.656383    1.950696
     47          6           0        3.013857   -2.622293    0.677446
     48          6           0        4.088914   -2.679773   -0.392937
     49          6           0        4.948171   -3.606301   -0.720524
     50          6           0        4.910832   -5.001264   -0.073685
     51          6           0        5.933556   -3.391606   -1.888550
     52          6           0        7.351625   -2.691302   -1.734313
     53          6           0        7.532085   -1.563665   -2.774981
     54          6           0        7.753717   -0.156125   -2.179314
     55          6           0        7.644597    0.991641   -3.201589
     56          6           0        8.935941   -0.047407   -1.267598
     57          6           0       10.264659   -0.438826   -1.972782
     58          6           0       11.218483    0.722023   -1.640569
     59          6           0       11.852096    0.882493   -0.213919
     60          6           0       11.224217    2.169093    0.331898
     61          6           0       13.424297    1.048047   -0.393057
     62          6           0       14.147328    1.109119    1.003936
     63          6           0       14.885606    2.476064    1.153653
     64          6           0       15.608994    2.539371    2.605463
     65          6           0       17.133826    2.784810    2.474983
     66          6           0       14.856359    3.598023    3.484664
     67          1           0       -1.221727    2.382538   -0.429810
     68          1           0       -6.992791    5.104501    0.211373
     69          1           0       -9.796673   -0.831019    0.212126
     70          1           0       -1.401918   -2.219704    0.801768
     71          1           0       -0.655821   -0.100236   -1.085300
     72          1           0        0.905902    0.176385    0.586738
     73          1           0       -0.060213   -0.735842    1.745594
     74          1           0       -0.367629    1.021581    1.458640
     75          1           0       -1.176371   -1.818163   -2.097565
     76          1           0       -2.159932   -3.138451   -1.780725
     77          1           0        0.639696   -3.250938   -2.111810
     78          1           0       -0.481199   -4.496324   -1.470771
     79          1           0       -1.623289    6.061030   -0.355976
     80          1           0       -1.709913    5.268581   -1.945794
     81          1           0       -0.985889    4.511119   -0.452327
     82          1           0       -3.183529    7.540389   -1.592998
     83          1           0       -3.000470    7.934653    0.175757
     84          1           0       -4.279868    8.680081   -0.800843
     85          1           0       -9.560778    4.291237    0.173517
     86          1           0      -10.569411    1.731439    0.948716
     87          1           0       -9.675648    2.839069    2.674270
     88          1           0       -9.782809    4.545830    2.354676
     89          1           0       -8.186283    3.774678    2.596873
     90          1           0       -9.769507    1.534049   -1.954485
     91          1           0      -10.198989    3.164271   -1.491580
     92          1           0      -12.186321    1.362111   -2.304026
     93          1           0      -12.317496    2.882441   -1.422740
     94          1           0      -12.168694    1.347696   -0.529807
     95          1           0       -8.796311   -4.421921    0.507826
     96          1           0       -9.734910   -3.043352   -0.252743
     97          1           0       -9.350189   -3.020463    1.456363
     98          1           0       -3.710568   -4.207791   -0.730746
     99          1           0       -1.420305   -6.397585    2.074806
    100          1           0       -2.479318   -7.716249    1.697265
    101          1           0       -2.810234   -6.517170    2.976849
    102          1           0        3.072250   -3.510112    1.306521
    103          1           0        3.011449   -1.698343    1.255563
    104          1           0        4.176427   -1.717530   -0.898972
    105          1           0        5.586705   -5.765155   -0.460437
    106          1           0        3.909285   -5.421206   -0.158186
    107          1           0        5.112047   -4.993877    0.998373
    108          1           0        5.331595   -2.977822   -2.697815
    109          1           0        6.095012   -4.387735   -2.299754
    110          1           0        8.033447   -3.509937   -1.963680
    111          1           0        7.510825   -2.419320   -0.691215
    112          1           0        6.707660   -1.514730   -3.486194
    113          1           0        8.364508   -1.835506   -3.423838
    114          1           0        6.847749   -0.132825   -1.574152
    115          1           0        8.486523    1.660847   -3.023053
    116          1           0        6.788302    1.602923   -2.919469
    117          1           0        7.542114    0.626083   -4.223581
    118          1           0        8.856349   -0.800752   -0.483268
    119          1           0        9.002247    0.945521   -0.822702
    120          1           0       10.168835   -0.684737   -3.029578
    121          1           0       10.695751   -1.254597   -1.391229
    122          1           0       10.638890    1.529338   -2.088533
    123          1           0       11.940590    0.579228   -2.443997
    124          1           0       11.479514   -0.005974    0.297257
    125          1           0       11.955162    2.974710    0.402577
    126          1           0       10.906159    1.968146    1.354644
    127          1           0       10.333377    2.519416   -0.190085
    128          1           0       13.566159    1.965305   -0.964672
    129          1           0       13.823512    0.317965   -1.098140
    130          1           0       14.864261    0.295134    1.111291
    131          1           0       13.455463    1.044028    1.843355
    132          1           0       14.283763    3.353979    0.920205
    133          1           0       15.666417    2.629425    0.408292
    134          1           0       15.530631    1.594179    3.141756
    135          1           0       17.619417    2.044841    3.110135
    136          1           0       17.365010    3.793147    2.818501
    137          1           0       17.455166    2.662201    1.440472
    138          1           0       15.467802    4.450630    3.779264
    139          1           0       14.453009    3.148438    4.391938
    140          1           0       13.994568    4.029622    2.973334
 ---------------------------------------------------------------------

 SCF Done:  E(RCAM-B3LYP) =  -3007.12289855     A.U. after   17 cycles

 Excitation energies and oscillator strengths:

 Excited State   1:      Singlet-A      1.6545 eV  749.39 nm  f=0.3777  <S**2>=0.000
     245 -> 248       -0.16689
     246 -> 247        0.68768
     245 <- 248       -0.10327
 This state for optimization and/or second-order correction.
 Total Energy, E(TD-HF/TD-DFT) =  -3007.06209800
 Copying the excited state density for this state as the 1-particle RhoCI density.

 Excited State   2:      Singlet-A      2.2459 eV  552.06 nm  f=0.0819  <S**2>=0.000
     245 -> 247        0.62087
     246 -> 248        0.31650

 Excited State   3:      Singlet-A      3.2386 eV  382.84 nm  f=0.0047  <S**2>=0.000
     244 -> 247        0.67900
     246 -> 248       -0.11718

 Excited State   4:      Singlet-A      3.4427 eV  360.14 nm  f=0.6888  <S**2>=0.000
     245 -> 247       -0.31426
     246 -> 248        0.61377
     245 <- 247        0.10659

 Excited State   5:      Singlet-A      3.5979 eV  344.60 nm  f=0.0007  <S**2>=0.000
     243 -> 247        0.55085
     243 -> 249       -0.23941
     243 -> 250        0.29584

 The electronic state is 1-A.
 Alpha  occ. eigenvalues --  -46.88444 -19.24818 -19.24017 -19.21234 -19.19756
 Alpha  occ. eigenvalues --  -19.19713 -19.18113 -14.42143 -14.42140 -14.40172
 Alpha  occ. eigenvalues --  -14.38106 -10.40278 -10.39061 -10.36763 -10.34402
 Alpha  occ. eigenvalues --  -10.32128 -10.31601 -10.31532 -10.30954 -10.30759
 Alpha  occ. eigenvalues --  -10.30624 -10.30539 -10.30155 -10.28750 -10.28684
 Alpha  occ. eigenvalues --  -10.28634 -10.28410 -10.28110 -10.28038 -10.28010
 Alpha  occ. eigenvalues --  -10.27926 -10.27701 -10.27526 -10.27463 -10.27429
 Alpha  occ. eigenvalues --  -10.27412 -10.27222 -10.27115 -10.26866 -10.26570
 Alpha  occ. eigenvalues --  -10.26410 -10.26233 -10.26167 -10.26122 -10.26048
 Alpha  occ. eigenvalues --  -10.26026 -10.25971 -10.25869 -10.25626 -10.25591
 Alpha  occ. eigenvalues --  -10.25591 -10.25291 -10.25281 -10.25244 -10.25186
 Alpha  occ. eigenvalues --  -10.25149 -10.25145 -10.24822 -10.24448 -10.24430
 Alpha  occ. eigenvalues --  -10.24380 -10.24374 -10.24341 -10.24177 -10.23833
 Alpha  occ. eigenvalues --  -10.23819  -3.16967  -1.91879  -1.91411  -1.91281
 Alpha  occ. eigenvalues --   -1.16177  -1.13924  -1.08763  -1.08436  -1.08139
 Alpha  occ. eigenvalues --   -1.06458  -1.04976  -1.03269  -1.02471  -1.01019
 Alpha  occ. eigenvalues --   -0.92583  -0.90785  -0.89796  -0.89407  -0.88652
 Alpha  occ. eigenvalues --   -0.88586  -0.88363  -0.87562  -0.86932  -0.86913
 Alpha  occ. eigenvalues --   -0.86342  -0.84828  -0.84234  -0.83591  -0.82734
 Alpha  occ. eigenvalues --   -0.82274  -0.82102  -0.81258  -0.80496  -0.79987
 Alpha  occ. eigenvalues --   -0.79781  -0.78765  -0.77565  -0.77385  -0.76123
 Alpha  occ. eigenvalues --   -0.75455  -0.75389  -0.75022  -0.74518  -0.73987
 Alpha  occ. eigenvalues --   -0.73330  -0.71786  -0.71156  -0.70107  -0.68544
 Alpha  occ. eigenvalues --   -0.68323  -0.68176  -0.67632  -0.67293  -0.65848
 Alpha  occ. eigenvalues --   -0.65427  -0.65138  -0.64538  -0.64258  -0.63853
 Alpha  occ. eigenvalues --   -0.63071  -0.62954  -0.61260  -0.60817  -0.60627
 Alpha  occ. eigenvalues --   -0.59818  -0.59600  -0.58843  -0.58065  -0.57371
 Alpha  occ. eigenvalues --   -0.57041  -0.56473  -0.56318  -0.55729  -0.55216
 Alpha  occ. eigenvalues --   -0.55019  -0.54683  -0.54285  -0.53615  -0.53527
 Alpha  occ. eigenvalues --   -0.53300  -0.53202  -0.53032  -0.52722  -0.52539
 Alpha  occ. eigenvalues --   -0.52241  -0.51906  -0.51823  -0.51691  -0.51573
 Alpha  occ. eigenvalues --   -0.51456  -0.51180  -0.51052  -0.50959  -0.50532
 Alpha  occ. eigenvalues --   -0.50411  -0.50126  -0.49948  -0.49855  -0.49609
 Alpha  occ. eigenvalues --   -0.49367  -0.49311  -0.48866  -0.48818  -0.48726
 Alpha  occ. eigenvalues --   -0.48487  -0.48387  -0.48215  -0.47842  -0.47437
 Alpha  occ. eigenvalues --   -0.47340  -0.47233  -0.47120  -0.46753  -0.46633
 Alpha  occ. eigenvalues --   -0.46209  -0.45958  -0.45846  -0.45692  -0.45567
 Alpha  occ. eigenvalues --   -0.45342  -0.45271  -0.44980  -0.44848  -0.44495
 Alpha  occ. eigenvalues --   -0.44455  -0.44307  -0.44273  -0.44081  -0.43923
 Alpha  occ. eigenvalues --   -0.43887  -0.43628  -0.43234  -0.43187  -0.42814
 Alpha  occ. eigenvalues --   -0.42710  -0.42693  -0.42452  -0.42400  -0.41978
 Alpha  occ. eigenvalues --   -0.41897  -0.41559  -0.41428  -0.41314  -0.41222
 Alpha  occ. eigenvalues --   -0.41069  -0.41046  -0.40356  -0.40325  -0.40020
 Alpha  occ. eigenvalues --   -0.39919  -0.39699  -0.39126  -0.38951  -0.38850
 Alpha  occ. eigenvalues --   -0.38658  -0.38380  -0.38223  -0.37581  -0.37282
 Alpha  occ. eigenvalues --   -0.36960  -0.36793  -0.36567  -0.36367  -0.36139
 Alpha  occ. eigenvalues --   -0.35989  -0.35126  -0.34509  -0.34420  -0.33842
 Alpha  occ. eigenvalues --   -0.33720  -0.33042  -0.32723  -0.31877  -0.31703
 Alpha  occ. eigenvalues --   -0.31178  -0.30577  -0.30336  -0.28429  -0.23925
 Alpha  occ. eigenvalues --   -0.20553
 Alpha virt. eigenvalues --   -0.08302  -0.01704   0.00131   0.01761   0.02907
 Alpha virt. eigenvalues --    0.03599   0.05087   0.05235   0.05996   0.06837
 Alpha virt. eigenvalues --    0.07629   0.08412   0.08848   0.09149   0.09335

 Mulliken charges:
               1
     1  Mg   0.820721
     2  C    0.029691
     3  C   -0.068254
     4  C   -0.055436
     5  C   -0.065329
     6  N   -0.321968
     7  C   -0.006970
     8  C   -0.034265
     9  C   -0.045408
    10  C    0.004338
    11  C    0.089566
    12  C    0.037257
    13  C    0.080212
    14  C    0.148988
    15  O   -0.193376
    16  O   -0.371448
    17  N   -0.352907
    18  C    0.123824
    19  C   -0.161837
    20  C    0.006192
    21  C    0.095614
    22  C    0.116536
    23  C    0.019976
    24  O   -0.243408
    25  C    0.054636
    26  N   -0.294349
    27  C    0.049225
    28  C   -0.082128
    29  C   -0.010231
    30  C    0.020131
    31  C    0.083150
    32  C    0.063122
    33  C    0.022234
    34  N   -0.321314
    35  C    0.089862
    36  C   -0.200676
    37  C    0.000116
    38  C    0.081376
    39  C    0.120631
    40  C    0.054354
    41  O   -0.172720
    42  C    0.012273
    43  C    0.209524
    44  O   -0.205586
    45  O   -0.362279
    46  C    0.184237
    47  C    0.301621
    48  C   -0.118758
    49  C   -0.156486
    50  C    0.042852
    51  C    0.052434
    52  C    0.052044
    53  C    0.040762
    54  C   -0.128118
    55  C    0.079898
    56  C    0.047398
    57  C   -0.012382
    58  C    0.015225
    59  C   -0.084462
    60  C    0.054698
    61  C    0.056860
    62  C    0.044164
    63  C    0.009368
    64  C   -0.162809
    65  C    0.054786
    66  C    0.037568
    67  H   -0.036743
    68  H   -0.002422
    69  H   -0.027985
    70  H    0.034776
    71  H    0.014546
    72  H    0.014176
    73  H    0.024201
    74  H    0.017019
    75  H   -0.005803
    76  H    0.007098
    77  H    0.032537
    78  H    0.033422
    79  H    0.006489
    80  H    0.045836
    81  H    0.018421
    82  H    0.033738
    83  H    0.052693
    84  H    0.035179
    85  H    0.013673
    86  H    0.006354
    87  H    0.006974
    88  H    0.016238
    89  H    0.033819
    90  H    0.025825
    91  H   -0.003903
    92  H    0.019468
    93  H    0.013852
    94  H    0.008129
    95  H    0.033256
    96  H    0.019431
    97  H    0.025742
    98  H    0.039574
    99  H    0.023276
   100  H    0.039260
   101  H    0.040778
   102  H    0.035252
   103  H    0.015158
   104  H   -0.011558
   105  H    0.009863
   106  H    0.031953
   107  H    0.024829
   108  H    0.005182
   109  H   -0.017153
   110  H    0.001934
   111  H    0.016085
   112  H   -0.006117
   113  H   -0.015709
   114  H   -0.018780
   115  H   -0.001879
   116  H    0.002363
   117  H    0.013504
   118  H   -0.015652
   119  H   -0.001417
   120  H    0.013681
   121  H   -0.013356
   122  H   -0.023446
   123  H   -0.034833
   124  H   -0.002334
   125  H    0.003022
   126  H   -0.001552
   127  H    0.022191
   128  H   -0.003306
   129  H   -0.000565
   130  H    0.006509
   131  H    0.007140
   132  H   -0.002487
   133  H   -0.016446
   134  H    0.004136
   135  H    0.010059
   136  H    0.006537
   137  H    0.009866
   138  H    0.003322
   139  H    0.006409
   140  H    0.004112
 Sum of Mulliken charges =  -0.00000

 Dipole moment (field-independent basis, Debye):
    X=              4.5078    Y=              3.8907    Z=             -3.5902  Tot=              6.9532
 Quadrupole moment (field-independent basis, Debye-Ang):
   XX=           -380.7471   YY=           -423.8616   ZZ=           -404.8404
   XY=            -25.3749   XZ=             11.1802   YZ=              1.7060

 Normal termination of Gaussian 16 at Wed Apr 27 08:53:14 2022.
