 Gaussian 16, Revision A.03,
 Gaussian 16:  ES64L-G16RevA.03 25-Dec-2016

 ---------------------------------
 #p PBE1PBE/Def2SVP td=(nstates=5)
 ---------------------------------

 -----------------------------------------------------
 step_1101_chromophore_6 TDDFT with PBE1PBE functional
 -----------------------------------------------------
 Symbolic Z-matrix:
 Charge =  0 Multiplicity = 1

                         Standard orientation:
 ---------------------------------------------------------------------
 Center     Atomic      Atomic             Coordinates (Angstroms)
 Number     Number       Type             X           Y           Z
 ---------------------------------------------------------------------
      1         12           0       -5.443523    1.005800   -0.024400
      2          6           0       -4.340914   -2.321344    0.116857
      3          6           0       -2.261711    2.076978   -0.300270
      4          6           0       -6.634142    4.081536    0.081957
      5          6           0       -8.839675   -0.311963    0.299588
      6          7           0       -3.559539   -0.041905    0.157390
      7          6           0       -3.332699   -1.394656    0.093724
      8          6           0       -1.788455   -1.718865   -0.084689
      9          6           0       -1.093931   -0.266199   -0.100560
     10          6           0       -2.344543    0.657478   -0.106849
     11          6           0       -0.093077    0.066739    1.009334
     12          6           0       -1.333514   -2.582808   -1.337153
     13          6           0       -0.071072   -3.497164   -1.323367
     14          6           0        0.869014   -3.500338    0.001754
     15          8           0        0.855819   -4.317621    0.884726
     16          8           0        1.774023   -2.430223   -0.097137
     17          7           0       -4.565600    2.836981   -0.040317
     18          6           0       -3.286620    3.116659   -0.217732
     19          6           0       -3.101872    4.558405   -0.467433
     20          6           0       -4.315486    5.160054   -0.249928
     21          6           0       -5.239391    4.028607   -0.036166
     22          6           0       -1.792199    5.114643   -0.869308
     23          6           0       -4.669975    6.679202   -0.274017
     24          8           0       -5.832980    7.094125    0.043756
     25          6           0       -3.686480    7.776739   -0.656367
     26          7           0       -7.464724    1.705572    0.179180
     27          6           0       -7.603655    3.054166    0.320595
     28          6           0       -9.158292    3.403659    0.661115
     29          6           0       -9.850706    2.086389    0.209730
     30          6           0       -8.732602    1.114248    0.249925
     31          6           0       -9.177587    3.661145    2.159422
     32          6           0      -10.378573    2.113963   -1.261141
     33          6           0      -11.851632    1.897039   -1.415614
     34          7           0       -6.353968   -0.922949    0.268581
     35          6           0       -7.694299   -1.236204    0.280151
     36          6           0       -7.776546   -2.664514    0.296719
     37          6           0       -6.473089   -3.184704    0.289439
     38          6           0       -5.666422   -2.079711    0.091602
     39          6           0       -8.989256   -3.349546    0.481750
     40          6           0       -5.618036   -4.374110    0.285569
     41          8           0       -5.945713   -5.559290    0.384466
     42          6           0       -4.201686   -3.861695    0.179094
     43          6           0       -3.368187   -4.478401    1.276137
     44          8           0       -3.288440   -4.046273    2.412644
     45          8           0       -2.944916   -5.766207    0.846320
     46          6           0       -2.472147   -6.656383    1.950696
     47          6           0        3.013857   -2.622293    0.677446
     48          6           0        4.088914   -2.679773   -0.392937
     49          6           0        4.948171   -3.606301   -0.720524
     50          6           0        4.910832   -5.001264   -0.073685
     51          6           0        5.933556   -3.391606   -1.888550
     52          6           0        7.351625   -2.691302   -1.734313
     53          6           0        7.532085   -1.563665   -2.774981
     54          6           0        7.753717   -0.156125   -2.179314
     55          6           0        7.644597    0.991641   -3.201589
     56          6           0        8.935941   -0.047407   -1.267598
     57          6           0       10.264659   -0.438826   -1.972782
     58          6           0       11.218483    0.722023   -1.640569
     59          6           0       11.852096    0.882493   -0.213919
     60          6           0       11.224217    2.169093    0.331898
     61          6           0       13.424297    1.048047   -0.393057
     62          6           0       14.147328    1.109119    1.003936
     63          6           0       14.885606    2.476064    1.153653
     64          6           0       15.608994    2.539371    2.605463
     65          6           0       17.133826    2.784810    2.474983
     66          6           0       14.856359    3.598023    3.484664
     67          1           0       -1.221727    2.382538   -0.429810
     68          1           0       -6.992791    5.104501    0.211373
     69          1           0       -9.796673   -0.831019    0.212126
     70          1           0       -1.401918   -2.219704    0.801768
     71          1           0       -0.655821   -0.100236   -1.085300
     72          1           0        0.905902    0.176385    0.586738
     73          1           0       -0.060213   -0.735842    1.745594
     74          1           0       -0.367629    1.021581    1.458640
     75          1           0       -1.176371   -1.818163   -2.097565
     76          1           0       -2.159932   -3.138451   -1.780725
     77          1           0        0.639696   -3.250938   -2.111810
     78          1           0       -0.481199   -4.496324   -1.470771
     79          1           0       -1.623289    6.061030   -0.355976
     80          1           0       -1.709913    5.268581   -1.945794
     81          1           0       -0.985889    4.511119   -0.452327
     82          1           0       -3.183529    7.540389   -1.592998
     83          1           0       -3.000470    7.934653    0.175757
     84          1           0       -4.279868    8.680081   -0.800843
     85          1           0       -9.560778    4.291237    0.173517
     86          1           0      -10.569411    1.731439    0.948716
     87          1           0       -9.675648    2.839069    2.674270
     88          1           0       -9.782809    4.545830    2.354676
     89          1           0       -8.186283    3.774678    2.596873
     90          1           0       -9.769507    1.534049   -1.954485
     91          1           0      -10.198989    3.164271   -1.491580
     92          1           0      -12.186321    1.362111   -2.304026
     93          1           0      -12.317496    2.882441   -1.422740
     94          1           0      -12.168694    1.347696   -0.529807
     95          1           0       -8.796311   -4.421921    0.507826
     96          1           0       -9.734910   -3.043352   -0.252743
     97          1           0       -9.350189   -3.020463    1.456363
     98          1           0       -3.710568   -4.207791   -0.730746
     99          1           0       -1.420305   -6.397585    2.074806
    100          1           0       -2.479318   -7.716249    1.697265
    101          1           0       -2.810234   -6.517170    2.976849
    102          1           0        3.072250   -3.510112    1.306521
    103          1           0        3.011449   -1.698343    1.255563
    104          1           0        4.176427   -1.717530   -0.898972
    105          1           0        5.586705   -5.765155   -0.460437
    106          1           0        3.909285   -5.421206   -0.158186
    107          1           0        5.112047   -4.993877    0.998373
    108          1           0        5.331595   -2.977822   -2.697815
    109          1           0        6.095012   -4.387735   -2.299754
    110          1           0        8.033447   -3.509937   -1.963680
    111          1           0        7.510825   -2.419320   -0.691215
    112          1           0        6.707660   -1.514730   -3.486194
    113          1           0        8.364508   -1.835506   -3.423838
    114          1           0        6.847749   -0.132825   -1.574152
    115          1           0        8.486523    1.660847   -3.023053
    116          1           0        6.788302    1.602923   -2.919469
    117          1           0        7.542114    0.626083   -4.223581
    118          1           0        8.856349   -0.800752   -0.483268
    119          1           0        9.002247    0.945521   -0.822702
    120          1           0       10.168835   -0.684737   -3.029578
    121          1           0       10.695751   -1.254597   -1.391229
    122          1           0       10.638890    1.529338   -2.088533
    123          1           0       11.940590    0.579228   -2.443997
    124          1           0       11.479514   -0.005974    0.297257
    125          1           0       11.955162    2.974710    0.402577
    126          1           0       10.906159    1.968146    1.354644
    127          1           0       10.333377    2.519416   -0.190085
    128          1           0       13.566159    1.965305   -0.964672
    129          1           0       13.823512    0.317965   -1.098140
    130          1           0       14.864261    0.295134    1.111291
    131          1           0       13.455463    1.044028    1.843355
    132          1           0       14.283763    3.353979    0.920205
    133          1           0       15.666417    2.629425    0.408292
    134          1           0       15.530631    1.594179    3.141756
    135          1           0       17.619417    2.044841    3.110135
    136          1           0       17.365010    3.793147    2.818501
    137          1           0       17.455166    2.662201    1.440472
    138          1           0       15.467802    4.450630    3.779264
    139          1           0       14.453009    3.148438    4.391938
    140          1           0       13.994568    4.029622    2.973334
 ---------------------------------------------------------------------

 SCF Done:  E(RPBE1PBE) =  -3005.31132265     A.U. after   15 cycles

 Excitation energies and oscillator strengths:

 Excited State   1:      Singlet-A      1.8089 eV  685.42 nm  f=0.3713  <S**2>=0.000
     245 -> 248       -0.15077
     246 -> 247        0.69573
     246 <- 247       -0.11380
 This state for optimization and/or second-order correction.
 Total Energy, E(TD-HF/TD-DFT) =  -3005.24484741
 Copying the excited state density for this state as the 1-particle RhoCI density.

 Excited State   2:      Singlet-A      2.2519 eV  550.58 nm  f=0.0815  <S**2>=0.000
     245 -> 247        0.63348
     246 -> 248        0.28089
     246 -> 249        0.12311

 Excited State   3:      Singlet-A      2.8817 eV  430.24 nm  f=0.0076  <S**2>=0.000
     244 -> 247        0.68763

 Excited State   4:      Singlet-A      3.0861 eV  401.75 nm  f=0.0031  <S**2>=0.000
     243 -> 247        0.66104
     243 -> 249        0.12581
     243 -> 250        0.13031
     244 -> 247        0.10015

 Excited State   5:      Singlet-A      3.1283 eV  396.33 nm  f=0.1927  <S**2>=0.000
     245 -> 247       -0.20060
     246 -> 248        0.57941
     246 -> 249       -0.31678

 The electronic state is 1-A.
 Alpha  occ. eigenvalues --  -46.91847 -19.25553 -19.24764 -19.21493 -19.19991
 Alpha  occ. eigenvalues --  -19.19815 -19.18441 -14.41724 -14.41626 -14.39680
 Alpha  occ. eigenvalues --  -14.37874 -10.37367 -10.36122 -10.33812 -10.31634
 Alpha  occ. eigenvalues --  -10.29521 -10.29301 -10.29214 -10.28823 -10.28593
 Alpha  occ. eigenvalues --  -10.28140 -10.28067 -10.27444 -10.26692 -10.26536
 Alpha  occ. eigenvalues --  -10.26073 -10.25906 -10.25833 -10.25816 -10.25624
 Alpha  occ. eigenvalues --  -10.25619 -10.25399 -10.25342 -10.25140 -10.25121
 Alpha  occ. eigenvalues --  -10.25114 -10.24658 -10.24490 -10.24288 -10.24279
 Alpha  occ. eigenvalues --  -10.24238 -10.23939 -10.23803 -10.23761 -10.23754
 Alpha  occ. eigenvalues --  -10.23701 -10.23577 -10.23272 -10.23176 -10.23130
 Alpha  occ. eigenvalues --  -10.23074 -10.22871 -10.22790 -10.22749 -10.22743
 Alpha  occ. eigenvalues --  -10.22736 -10.22732 -10.22214 -10.21988 -10.21911
 Alpha  occ. eigenvalues --  -10.21849 -10.21767 -10.21745 -10.21740 -10.21708
 Alpha  occ. eigenvalues --  -10.21461  -3.13950  -1.86804  -1.86314  -1.86187
 Alpha  occ. eigenvalues --   -1.10986  -1.08690  -1.03662  -1.03261  -1.02698
 Alpha  occ. eigenvalues --   -1.01343  -0.99537  -0.98029  -0.97066  -0.95646
 Alpha  occ. eigenvalues --   -0.87059  -0.84883  -0.83953  -0.83706  -0.82799
 Alpha  occ. eigenvalues --   -0.82699  -0.82552  -0.81918  -0.81303  -0.81016
 Alpha  occ. eigenvalues --   -0.80634  -0.79051  -0.78410  -0.77881  -0.77005
 Alpha  occ. eigenvalues --   -0.76506  -0.76153  -0.75528  -0.74742  -0.74171
 Alpha  occ. eigenvalues --   -0.74138  -0.73010  -0.71897  -0.71666  -0.70284
 Alpha  occ. eigenvalues --   -0.69804  -0.69478  -0.69132  -0.68905  -0.68188
 Alpha  occ. eigenvalues --   -0.67599  -0.66288  -0.65566  -0.64443  -0.62778
 Alpha  occ. eigenvalues --   -0.62675  -0.62484  -0.61905  -0.61748  -0.60010
 Alpha  occ. eigenvalues --   -0.59848  -0.59600  -0.59114  -0.58442  -0.58398
 Alpha  occ. eigenvalues --   -0.57466  -0.57292  -0.55491  -0.55454  -0.55079
 Alpha  occ. eigenvalues --   -0.54292  -0.54170  -0.53368  -0.52647  -0.52072
 Alpha  occ. eigenvalues --   -0.51465  -0.50982  -0.50813  -0.50061  -0.49764
 Alpha  occ. eigenvalues --   -0.49555  -0.49281  -0.48896  -0.48105  -0.47995
 Alpha  occ. eigenvalues --   -0.47714  -0.47568  -0.47533  -0.47331  -0.47067
 Alpha  occ. eigenvalues --   -0.46855  -0.46486  -0.46364  -0.46191  -0.46135
 Alpha  occ. eigenvalues --   -0.46001  -0.45765  -0.45532  -0.45440  -0.45103
 Alpha  occ. eigenvalues --   -0.45024  -0.44782  -0.44502  -0.44352  -0.44107
 Alpha  occ. eigenvalues --   -0.43954  -0.43900  -0.43483  -0.43391  -0.43318
 Alpha  occ. eigenvalues --   -0.43064  -0.42978  -0.42861  -0.42463  -0.42124
 Alpha  occ. eigenvalues --   -0.41969  -0.41934  -0.41769  -0.41425  -0.41245
 Alpha  occ. eigenvalues --   -0.40847  -0.40669  -0.40628  -0.40476  -0.40149
 Alpha  occ. eigenvalues --   -0.40036  -0.39941  -0.39732  -0.39589  -0.39243
 Alpha  occ. eigenvalues --   -0.39199  -0.39138  -0.38963  -0.38841  -0.38738
 Alpha  occ. eigenvalues --   -0.38556  -0.38376  -0.38043  -0.38034  -0.37595
 Alpha  occ. eigenvalues --   -0.37542  -0.37441  -0.37266  -0.37139  -0.36854
 Alpha  occ. eigenvalues --   -0.36610  -0.36406  -0.36221  -0.36170  -0.36056
 Alpha  occ. eigenvalues --   -0.35950  -0.35763  -0.35239  -0.35109  -0.34877
 Alpha  occ. eigenvalues --   -0.34765  -0.34691  -0.34005  -0.33817  -0.33690
 Alpha  occ. eigenvalues --   -0.33553  -0.33168  -0.33039  -0.32572  -0.32117
 Alpha  occ. eigenvalues --   -0.31832  -0.31644  -0.31594  -0.31464  -0.31087
 Alpha  occ. eigenvalues --   -0.30821  -0.30060  -0.29454  -0.29410  -0.29039
 Alpha  occ. eigenvalues --   -0.28809  -0.28171  -0.27981  -0.27323  -0.26486
 Alpha  occ. eigenvalues --   -0.26337  -0.26186  -0.25302  -0.24207  -0.20824
 Alpha  occ. eigenvalues --   -0.18207
 Alpha virt. eigenvalues --   -0.10790  -0.05309  -0.03981  -0.02648  -0.00939
 Alpha virt. eigenvalues --    0.00038   0.00590   0.00774   0.01543   0.03190
 Alpha virt. eigenvalues --    0.03929   0.04562   0.05082   0.05711   0.06132

 Mulliken charges:
               1
     1  Mg   0.972620
     2  C   -0.003236
     3  C   -0.064830
     4  C   -0.040523
     5  C   -0.051677
     6  N   -0.421135
     7  C    0.071112
     8  C   -0.101900
     9  C   -0.114619
    10  C    0.034811
    11  C    0.029636
    12  C   -0.012860
    13  C    0.007560
    14  C    0.210755
    15  O   -0.227261
    16  O   -0.395399
    17  N   -0.473969
    18  C    0.150879
    19  C   -0.194276
    20  C   -0.038905
    21  C    0.116570
    22  C    0.058256
    23  C    0.068553
    24  O   -0.277776
    25  C   -0.017308
    26  N   -0.389655
    27  C    0.072859
    28  C   -0.161845
    29  C   -0.088594
    30  C    0.054542
    31  C    0.033089
    32  C    0.007556
    33  C   -0.050106
    34  N   -0.440270
    35  C    0.123552
    36  C   -0.238264
    37  C   -0.029008
    38  C    0.133118
    39  C    0.056416
    40  C    0.151794
    41  O   -0.218997
    42  C   -0.089242
    43  C    0.293636
    44  O   -0.239975
    45  O   -0.390967
    46  C    0.127790
    47  C    0.251427
    48  C   -0.129302
    49  C   -0.198678
    50  C   -0.018518
    51  C   -0.002322
    52  C   -0.015842
    53  C   -0.009234
    54  C   -0.218485
    55  C    0.017916
    56  C   -0.013966
    57  C   -0.073718
    58  C   -0.042457
    59  C   -0.173228
    60  C   -0.003528
    61  C    0.003272
    62  C   -0.022759
    63  C   -0.043348
    64  C   -0.252772
    65  C   -0.005163
    66  C   -0.019940
    67  H   -0.004247
    68  H    0.029113
    69  H    0.003148
    70  H    0.074956
    71  H    0.050827
    72  H    0.041898
    73  H    0.050930
    74  H    0.045348
    75  H    0.027641
    76  H    0.038960
    77  H    0.063523
    78  H    0.064629
    79  H    0.035172
    80  H    0.072135
    81  H    0.044635
    82  H    0.059911
    83  H    0.077970
    84  H    0.061964
    85  H    0.046801
    86  H    0.041804
    87  H    0.034274
    88  H    0.044079
    89  H    0.062078
    90  H    0.057591
    91  H    0.031793
    92  H    0.047348
    93  H    0.041919
    94  H    0.035691
    95  H    0.062509
    96  H    0.047978
    97  H    0.055830
    98  H    0.078757
    99  H    0.046530
   100  H    0.061617
   101  H    0.062382
   102  H    0.061356
   103  H    0.042679
   104  H    0.019562
   105  H    0.036408
   106  H    0.059698
   107  H    0.051957
   108  H    0.036219
   109  H    0.015847
   110  H    0.035457
   111  H    0.047682
   112  H    0.025918
   113  H    0.016742
   114  H    0.023491
   115  H    0.027395
   116  H    0.030625
   117  H    0.039813
   118  H    0.018096
   119  H    0.035684
   120  H    0.043714
   121  H    0.022355
   122  H    0.013842
   123  H   -0.000790
   124  H    0.034055
   125  H    0.032408
   126  H    0.026512
   127  H    0.046782
   128  H    0.028724
   129  H    0.031512
   130  H    0.039559
   131  H    0.040484
   132  H    0.027787
   133  H    0.016408
   134  H    0.040709
   135  H    0.037447
   136  H    0.033527
   137  H    0.036525
   138  H    0.029834
   139  H    0.033769
   140  H    0.030849
 Sum of Mulliken charges =  -0.00000

 Dipole moment (field-independent basis, Debye):
    X=              4.3616    Y=              3.5326    Z=             -3.5679  Tot=              6.6507
 Quadrupole moment (field-independent basis, Debye-Ang):
   XX=           -373.2016   YY=           -421.9312   ZZ=           -402.3110
   XY=            -24.1867   XZ=             10.7579   YZ=              1.6668

 Normal termination of Gaussian 16 at Wed Apr 27 09:10:22 2022.
