 Gaussian 16, Revision A.03,
 Gaussian 16:  ES64L-G16RevA.03 25-Dec-2016

 --------------------------------
 #p wB97XD/Def2SVP td=(nstates=5)
 --------------------------------

 ----------------------------------------------------
 step_1101_chromophore_6 TDDFT with wB97XD functional
 ----------------------------------------------------
 Symbolic Z-matrix:
 Charge =  0 Multiplicity = 1

                         Standard orientation:
 ---------------------------------------------------------------------
 Center     Atomic      Atomic             Coordinates (Angstroms)
 Number     Number       Type             X           Y           Z
 ---------------------------------------------------------------------
      1         12           0       -5.443523    1.005800   -0.024400
      2          6           0       -4.340914   -2.321344    0.116857
      3          6           0       -2.261711    2.076978   -0.300270
      4          6           0       -6.634142    4.081536    0.081957
      5          6           0       -8.839675   -0.311963    0.299588
      6          7           0       -3.559539   -0.041905    0.157390
      7          6           0       -3.332699   -1.394656    0.093724
      8          6           0       -1.788455   -1.718865   -0.084689
      9          6           0       -1.093931   -0.266199   -0.100560
     10          6           0       -2.344543    0.657478   -0.106849
     11          6           0       -0.093077    0.066739    1.009334
     12          6           0       -1.333514   -2.582808   -1.337153
     13          6           0       -0.071072   -3.497164   -1.323367
     14          6           0        0.869014   -3.500338    0.001754
     15          8           0        0.855819   -4.317621    0.884726
     16          8           0        1.774023   -2.430223   -0.097137
     17          7           0       -4.565600    2.836981   -0.040317
     18          6           0       -3.286620    3.116659   -0.217732
     19          6           0       -3.101872    4.558405   -0.467433
     20          6           0       -4.315486    5.160054   -0.249928
     21          6           0       -5.239391    4.028607   -0.036166
     22          6           0       -1.792199    5.114643   -0.869308
     23          6           0       -4.669975    6.679202   -0.274017
     24          8           0       -5.832980    7.094125    0.043756
     25          6           0       -3.686480    7.776739   -0.656367
     26          7           0       -7.464724    1.705572    0.179180
     27          6           0       -7.603655    3.054166    0.320595
     28          6           0       -9.158292    3.403659    0.661115
     29          6           0       -9.850706    2.086389    0.209730
     30          6           0       -8.732602    1.114248    0.249925
     31          6           0       -9.177587    3.661145    2.159422
     32          6           0      -10.378573    2.113963   -1.261141
     33          6           0      -11.851632    1.897039   -1.415614
     34          7           0       -6.353968   -0.922949    0.268581
     35          6           0       -7.694299   -1.236204    0.280151
     36          6           0       -7.776546   -2.664514    0.296719
     37          6           0       -6.473089   -3.184704    0.289439
     38          6           0       -5.666422   -2.079711    0.091602
     39          6           0       -8.989256   -3.349546    0.481750
     40          6           0       -5.618036   -4.374110    0.285569
     41          8           0       -5.945713   -5.559290    0.384466
     42          6           0       -4.201686   -3.861695    0.179094
     43          6           0       -3.368187   -4.478401    1.276137
     44          8           0       -3.288440   -4.046273    2.412644
     45          8           0       -2.944916   -5.766207    0.846320
     46          6           0       -2.472147   -6.656383    1.950696
     47          6           0        3.013857   -2.622293    0.677446
     48          6           0        4.088914   -2.679773   -0.392937
     49          6           0        4.948171   -3.606301   -0.720524
     50          6           0        4.910832   -5.001264   -0.073685
     51          6           0        5.933556   -3.391606   -1.888550
     52          6           0        7.351625   -2.691302   -1.734313
     53          6           0        7.532085   -1.563665   -2.774981
     54          6           0        7.753717   -0.156125   -2.179314
     55          6           0        7.644597    0.991641   -3.201589
     56          6           0        8.935941   -0.047407   -1.267598
     57          6           0       10.264659   -0.438826   -1.972782
     58          6           0       11.218483    0.722023   -1.640569
     59          6           0       11.852096    0.882493   -0.213919
     60          6           0       11.224217    2.169093    0.331898
     61          6           0       13.424297    1.048047   -0.393057
     62          6           0       14.147328    1.109119    1.003936
     63          6           0       14.885606    2.476064    1.153653
     64          6           0       15.608994    2.539371    2.605463
     65          6           0       17.133826    2.784810    2.474983
     66          6           0       14.856359    3.598023    3.484664
     67          1           0       -1.221727    2.382538   -0.429810
     68          1           0       -6.992791    5.104501    0.211373
     69          1           0       -9.796673   -0.831019    0.212126
     70          1           0       -1.401918   -2.219704    0.801768
     71          1           0       -0.655821   -0.100236   -1.085300
     72          1           0        0.905902    0.176385    0.586738
     73          1           0       -0.060213   -0.735842    1.745594
     74          1           0       -0.367629    1.021581    1.458640
     75          1           0       -1.176371   -1.818163   -2.097565
     76          1           0       -2.159932   -3.138451   -1.780725
     77          1           0        0.639696   -3.250938   -2.111810
     78          1           0       -0.481199   -4.496324   -1.470771
     79          1           0       -1.623289    6.061030   -0.355976
     80          1           0       -1.709913    5.268581   -1.945794
     81          1           0       -0.985889    4.511119   -0.452327
     82          1           0       -3.183529    7.540389   -1.592998
     83          1           0       -3.000470    7.934653    0.175757
     84          1           0       -4.279868    8.680081   -0.800843
     85          1           0       -9.560778    4.291237    0.173517
     86          1           0      -10.569411    1.731439    0.948716
     87          1           0       -9.675648    2.839069    2.674270
     88          1           0       -9.782809    4.545830    2.354676
     89          1           0       -8.186283    3.774678    2.596873
     90          1           0       -9.769507    1.534049   -1.954485
     91          1           0      -10.198989    3.164271   -1.491580
     92          1           0      -12.186321    1.362111   -2.304026
     93          1           0      -12.317496    2.882441   -1.422740
     94          1           0      -12.168694    1.347696   -0.529807
     95          1           0       -8.796311   -4.421921    0.507826
     96          1           0       -9.734910   -3.043352   -0.252743
     97          1           0       -9.350189   -3.020463    1.456363
     98          1           0       -3.710568   -4.207791   -0.730746
     99          1           0       -1.420305   -6.397585    2.074806
    100          1           0       -2.479318   -7.716249    1.697265
    101          1           0       -2.810234   -6.517170    2.976849
    102          1           0        3.072250   -3.510112    1.306521
    103          1           0        3.011449   -1.698343    1.255563
    104          1           0        4.176427   -1.717530   -0.898972
    105          1           0        5.586705   -5.765155   -0.460437
    106          1           0        3.909285   -5.421206   -0.158186
    107          1           0        5.112047   -4.993877    0.998373
    108          1           0        5.331595   -2.977822   -2.697815
    109          1           0        6.095012   -4.387735   -2.299754
    110          1           0        8.033447   -3.509937   -1.963680
    111          1           0        7.510825   -2.419320   -0.691215
    112          1           0        6.707660   -1.514730   -3.486194
    113          1           0        8.364508   -1.835506   -3.423838
    114          1           0        6.847749   -0.132825   -1.574152
    115          1           0        8.486523    1.660847   -3.023053
    116          1           0        6.788302    1.602923   -2.919469
    117          1           0        7.542114    0.626083   -4.223581
    118          1           0        8.856349   -0.800752   -0.483268
    119          1           0        9.002247    0.945521   -0.822702
    120          1           0       10.168835   -0.684737   -3.029578
    121          1           0       10.695751   -1.254597   -1.391229
    122          1           0       10.638890    1.529338   -2.088533
    123          1           0       11.940590    0.579228   -2.443997
    124          1           0       11.479514   -0.005974    0.297257
    125          1           0       11.955162    2.974710    0.402577
    126          1           0       10.906159    1.968146    1.354644
    127          1           0       10.333377    2.519416   -0.190085
    128          1           0       13.566159    1.965305   -0.964672
    129          1           0       13.823512    0.317965   -1.098140
    130          1           0       14.864261    0.295134    1.111291
    131          1           0       13.455463    1.044028    1.843355
    132          1           0       14.283763    3.353979    0.920205
    133          1           0       15.666417    2.629425    0.408292
    134          1           0       15.530631    1.594179    3.141756
    135          1           0       17.619417    2.044841    3.110135
    136          1           0       17.365010    3.793147    2.818501
    137          1           0       17.455166    2.662201    1.440472
    138          1           0       15.467802    4.450630    3.779264
    139          1           0       14.453009    3.148438    4.391938
    140          1           0       13.994568    4.029622    2.973334
 ---------------------------------------------------------------------

 SCF Done:  E(RwB97XD) =  -3007.82168829     A.U. after   18 cycles

 Excitation energies and oscillator strengths:

 Excited State   1:      Singlet-A      1.5987 eV  775.54 nm  f=0.3755  <S**2>=0.000
     245 -> 248       -0.17304
     246 -> 247        0.68534
     245 <- 248       -0.11288
 This state for optimization and/or second-order correction.
 Total Energy, E(TD-HF/TD-DFT) =  -3007.76293788
 Copying the excited state density for this state as the 1-particle RhoCI density.

 Excited State   2:      Singlet-A      2.1911 eV  565.84 nm  f=0.0803  <S**2>=0.000
     245 -> 247        0.61974
     246 -> 248        0.31833

 Excited State   3:      Singlet-A      3.2707 eV  379.08 nm  f=0.0087  <S**2>=0.000
     244 -> 247        0.66574
     246 -> 248       -0.15181

 Excited State   4:      Singlet-A      3.4793 eV  356.34 nm  f=0.7652  <S**2>=0.000
     244 -> 247        0.12501
     245 -> 247       -0.32240
     246 -> 248        0.60336
     245 <- 247        0.11449

 Excited State   5:      Singlet-A      3.6354 eV  341.04 nm  f=0.0012  <S**2>=0.000
     243 -> 247        0.53538
     243 -> 249       -0.26038
     243 -> 250        0.32119

 The electronic state is 1-A.
 Alpha  occ. eigenvalues --  -46.94787 -19.30041 -19.29246 -19.26120 -19.24802
 Alpha  occ. eigenvalues --  -19.24663 -19.23134 -14.46759 -14.46756 -14.44782
 Alpha  occ. eigenvalues --  -14.42688 -10.44109 -10.42908 -10.40809 -10.38388
 Alpha  occ. eigenvalues --  -10.36008 -10.35700 -10.35614 -10.34960 -10.34759
 Alpha  occ. eigenvalues --  -10.34709 -10.34622 -10.33888 -10.32800 -10.32753
 Alpha  occ. eigenvalues --  -10.32740 -10.32304 -10.32248 -10.32093 -10.32060
 Alpha  occ. eigenvalues --  -10.31958 -10.31674 -10.31560 -10.31559 -10.31474
 Alpha  occ. eigenvalues --  -10.31429 -10.31176 -10.31013 -10.30805 -10.30575
 Alpha  occ. eigenvalues --  -10.30466 -10.30327 -10.30164 -10.30120 -10.30024
 Alpha  occ. eigenvalues --  -10.29938 -10.29934 -10.29708 -10.29547 -10.29519
 Alpha  occ. eigenvalues --  -10.29497 -10.29156 -10.29153 -10.29120 -10.29103
 Alpha  occ. eigenvalues --  -10.29103 -10.29080 -10.28650 -10.28355 -10.28299
 Alpha  occ. eigenvalues --  -10.28209 -10.28187 -10.28159 -10.28110 -10.27823
 Alpha  occ. eigenvalues --  -10.27785  -3.20743  -1.94347  -1.93856  -1.93727
 Alpha  occ. eigenvalues --   -1.18318  -1.16051  -1.10957  -1.10638  -1.10388
 Alpha  occ. eigenvalues --   -1.08653  -1.07061  -1.05268  -1.04468  -1.03021
 Alpha  occ. eigenvalues --   -0.94556  -0.92552  -0.91611  -0.91277  -0.90600
 Alpha  occ. eigenvalues --   -0.90393  -0.90200  -0.89498  -0.88865  -0.88688
 Alpha  occ. eigenvalues --   -0.88242  -0.86708  -0.86068  -0.85461  -0.84631
 Alpha  occ. eigenvalues --   -0.84154  -0.84044  -0.83179  -0.82374  -0.81827
 Alpha  occ. eigenvalues --   -0.81757  -0.80751  -0.79462  -0.79275  -0.77958
 Alpha  occ. eigenvalues --   -0.77365  -0.77181  -0.76831  -0.76480  -0.75845
 Alpha  occ. eigenvalues --   -0.75220  -0.73766  -0.73116  -0.72044  -0.70428
 Alpha  occ. eigenvalues --   -0.70213  -0.70162  -0.69519  -0.69305  -0.67684
 Alpha  occ. eigenvalues --   -0.67350  -0.67088  -0.66555  -0.66078  -0.65857
 Alpha  occ. eigenvalues --   -0.64927  -0.64914  -0.63112  -0.62816  -0.62643
 Alpha  occ. eigenvalues --   -0.61742  -0.61570  -0.60813  -0.60042  -0.59380
 Alpha  occ. eigenvalues --   -0.58963  -0.58467  -0.58237  -0.57579  -0.57137
 Alpha  occ. eigenvalues --   -0.56938  -0.56652  -0.56215  -0.55492  -0.55422
 Alpha  occ. eigenvalues --   -0.55250  -0.55112  -0.54930  -0.54641  -0.54487
 Alpha  occ. eigenvalues --   -0.54163  -0.53818  -0.53732  -0.53549  -0.53468
 Alpha  occ. eigenvalues --   -0.53337  -0.53095  -0.53022  -0.52870  -0.52416
 Alpha  occ. eigenvalues --   -0.52329  -0.52045  -0.51829  -0.51729  -0.51572
 Alpha  occ. eigenvalues --   -0.51256  -0.51191  -0.50810  -0.50718  -0.50658
 Alpha  occ. eigenvalues --   -0.50403  -0.50340  -0.50129  -0.49763  -0.49366
 Alpha  occ. eigenvalues --   -0.49210  -0.49120  -0.49017  -0.48646  -0.48506
 Alpha  occ. eigenvalues --   -0.48071  -0.47886  -0.47793  -0.47617  -0.47405
 Alpha  occ. eigenvalues --   -0.47188  -0.47158  -0.46858  -0.46755  -0.46379
 Alpha  occ. eigenvalues --   -0.46342  -0.46218  -0.46143  -0.46023  -0.45857
 Alpha  occ. eigenvalues --   -0.45819  -0.45562  -0.45170  -0.45129  -0.44683
 Alpha  occ. eigenvalues --   -0.44611  -0.44582  -0.44366  -0.44285  -0.44030
 Alpha  occ. eigenvalues --   -0.43838  -0.43500  -0.43301  -0.43205  -0.43102
 Alpha  occ. eigenvalues --   -0.43014  -0.42908  -0.42271  -0.42202  -0.41878
 Alpha  occ. eigenvalues --   -0.41817  -0.41596  -0.41018  -0.40824  -0.40711
 Alpha  occ. eigenvalues --   -0.40543  -0.40231  -0.40079  -0.39511  -0.39151
 Alpha  occ. eigenvalues --   -0.38823  -0.38646  -0.38560  -0.38466  -0.38052
 Alpha  occ. eigenvalues --   -0.37851  -0.37087  -0.36424  -0.36283  -0.35815
 Alpha  occ. eigenvalues --   -0.35722  -0.34928  -0.34888  -0.34062  -0.33689
 Alpha  occ. eigenvalues --   -0.33213  -0.32797  -0.32291  -0.30570  -0.25847
 Alpha  occ. eigenvalues --   -0.22361
 Alpha virt. eigenvalues --   -0.06644   0.00223   0.02149   0.03863   0.05816
 Alpha virt. eigenvalues --    0.05973   0.07413   0.07457   0.08308   0.09749
 Alpha virt. eigenvalues --    0.10153   0.11471   0.11817   0.12429   0.12843

 Mulliken charges:
               1
     1  Mg   0.961708
     2  C    0.004872
     3  C   -0.082344
     4  C   -0.059569
     5  C   -0.068685
     6  N   -0.392602
     7  C    0.036477
     8  C   -0.076016
     9  C   -0.090541
    10  C    0.028640
    11  C    0.039907
    12  C   -0.002923
    13  C    0.025986
    14  C    0.195962
    15  O   -0.224464
    16  O   -0.395085
    17  N   -0.440196
    18  C    0.143503
    19  C   -0.181235
    20  C   -0.034354
    21  C    0.113700
    22  C    0.069536
    23  C    0.064394
    24  O   -0.272028
    25  C   -0.008207
    26  N   -0.362090
    27  C    0.063975
    28  C   -0.133666
    29  C   -0.060865
    30  C    0.042279
    31  C    0.038381
    32  C    0.017971
    33  C   -0.033192
    34  N   -0.404997
    35  C    0.108328
    36  C   -0.221026
    37  C   -0.033365
    38  C    0.116047
    39  C    0.065722
    40  C    0.130434
    41  O   -0.209213
    42  C   -0.050147
    43  C    0.271828
    44  O   -0.234174
    45  O   -0.391678
    46  C    0.141398
    47  C    0.268421
    48  C   -0.139975
    49  C   -0.185797
    50  C   -0.007696
    51  C    0.015397
    52  C   -0.000979
    53  C    0.003085
    54  C   -0.181858
    55  C    0.028369
    56  C    0.008650
    57  C   -0.060733
    58  C   -0.014399
    59  C   -0.147872
    60  C    0.009033
    61  C    0.019804
    62  C   -0.004820
    63  C   -0.026800
    64  C   -0.227126
    65  C    0.008732
    66  C   -0.007395
    67  H   -0.012215
    68  H    0.024558
    69  H   -0.001647
    70  H    0.058814
    71  H    0.039470
    72  H    0.036735
    73  H    0.046118
    74  H    0.038696
    75  H    0.018611
    76  H    0.030616
    77  H    0.058372
    78  H    0.060345
    79  H    0.028863
    80  H    0.069845
    81  H    0.040909
    82  H    0.055848
    83  H    0.074615
    84  H    0.061394
    85  H    0.039493
    86  H    0.030670
    87  H    0.028566
    88  H    0.039347
    89  H    0.055265
    90  H    0.050294
    91  H    0.020559
    92  H    0.042603
    93  H    0.035680
    94  H    0.027705
    95  H    0.059328
    96  H    0.041583
    97  H    0.049110
    98  H    0.068232
    99  H    0.043717
   100  H    0.058423
   101  H    0.058501
   102  H    0.055671
   103  H    0.039722
   104  H    0.015544
   105  H    0.032461
   106  H    0.053653
   107  H    0.046511
   108  H    0.027068
   109  H    0.007942
   110  H    0.028913
   111  H    0.037768
   112  H    0.016545
   113  H    0.006872
   114  H    0.008235
   115  H    0.019134
   116  H    0.025730
   117  H    0.035357
   118  H    0.007372
   119  H    0.019498
   120  H    0.035743
   121  H    0.011627
   122  H   -0.004841
   123  H   -0.010241
   124  H    0.023360
   125  H    0.023383
   126  H    0.021014
   127  H    0.040913
   128  H    0.018027
   129  H    0.024317
   130  H    0.032420
   131  H    0.029606
   132  H    0.016770
   133  H    0.006269
   134  H    0.029945
   135  H    0.032147
   136  H    0.026794
   137  H    0.029849
   138  H    0.023612
   139  H    0.028364
   140  H    0.023479
 Sum of Mulliken charges =  -0.00000

 Dipole moment (field-independent basis, Debye):
    X=              4.5891    Y=              4.0329    Z=             -3.6441  Tot=              7.1136
 Quadrupole moment (field-independent basis, Debye-Ang):
   XX=           -375.9961   YY=           -419.1298   ZZ=           -402.0060
   XY=            -25.9063   XZ=             11.2710   YZ=              1.5615

 Normal termination of Gaussian 16 at Wed Apr 27 09:35:30 2022.
