 Gaussian 16, Revision A.03,
 Gaussian 16:  ES64L-G16RevA.03 25-Dec-2016

 --------------------
 #p ZINDO=(nstates=5)
 --------------------

 -----------------------------
 step_1101_chromophore_6 ZINDO
 -----------------------------
 Symbolic Z-matrix:
 Charge =  0 Multiplicity = 1

                         Standard orientation:
 ---------------------------------------------------------------------
 Center     Atomic      Atomic             Coordinates (Angstroms)
 Number     Number       Type             X           Y           Z
 ---------------------------------------------------------------------
      1         12           0       -5.443523    1.005800   -0.024400
      2          6           0       -4.340914   -2.321344    0.116857
      3          6           0       -2.261711    2.076978   -0.300270
      4          6           0       -6.634142    4.081536    0.081957
      5          6           0       -8.839675   -0.311963    0.299588
      6          7           0       -3.559539   -0.041905    0.157390
      7          6           0       -3.332699   -1.394656    0.093724
      8          6           0       -1.788455   -1.718865   -0.084689
      9          6           0       -1.093931   -0.266199   -0.100560
     10          6           0       -2.344543    0.657478   -0.106849
     11          6           0       -0.093077    0.066739    1.009334
     12          6           0       -1.333514   -2.582808   -1.337153
     13          6           0       -0.071072   -3.497164   -1.323367
     14          6           0        0.869014   -3.500338    0.001754
     15          8           0        0.855819   -4.317621    0.884726
     16          8           0        1.774023   -2.430223   -0.097137
     17          7           0       -4.565600    2.836981   -0.040317
     18          6           0       -3.286620    3.116659   -0.217732
     19          6           0       -3.101872    4.558405   -0.467433
     20          6           0       -4.315486    5.160054   -0.249928
     21          6           0       -5.239391    4.028607   -0.036166
     22          6           0       -1.792199    5.114643   -0.869308
     23          6           0       -4.669975    6.679202   -0.274017
     24          8           0       -5.832980    7.094125    0.043756
     25          6           0       -3.686480    7.776739   -0.656367
     26          7           0       -7.464724    1.705572    0.179180
     27          6           0       -7.603655    3.054166    0.320595
     28          6           0       -9.158292    3.403659    0.661115
     29          6           0       -9.850706    2.086389    0.209730
     30          6           0       -8.732602    1.114248    0.249925
     31          6           0       -9.177587    3.661145    2.159422
     32          6           0      -10.378573    2.113963   -1.261141
     33          6           0      -11.851632    1.897039   -1.415614
     34          7           0       -6.353968   -0.922949    0.268581
     35          6           0       -7.694299   -1.236204    0.280151
     36          6           0       -7.776546   -2.664514    0.296719
     37          6           0       -6.473089   -3.184704    0.289439
     38          6           0       -5.666422   -2.079711    0.091602
     39          6           0       -8.989256   -3.349546    0.481750
     40          6           0       -5.618036   -4.374110    0.285569
     41          8           0       -5.945713   -5.559290    0.384466
     42          6           0       -4.201686   -3.861695    0.179094
     43          6           0       -3.368187   -4.478401    1.276137
     44          8           0       -3.288440   -4.046273    2.412644
     45          8           0       -2.944916   -5.766207    0.846320
     46          6           0       -2.472147   -6.656383    1.950696
     47          6           0        3.013857   -2.622293    0.677446
     48          6           0        4.088914   -2.679773   -0.392937
     49          6           0        4.948171   -3.606301   -0.720524
     50          6           0        4.910832   -5.001264   -0.073685
     51          6           0        5.933556   -3.391606   -1.888550
     52          6           0        7.351625   -2.691302   -1.734313
     53          6           0        7.532085   -1.563665   -2.774981
     54          6           0        7.753717   -0.156125   -2.179314
     55          6           0        7.644597    0.991641   -3.201589
     56          6           0        8.935941   -0.047407   -1.267598
     57          6           0       10.264659   -0.438826   -1.972782
     58          6           0       11.218483    0.722023   -1.640569
     59          6           0       11.852096    0.882493   -0.213919
     60          6           0       11.224217    2.169093    0.331898
     61          6           0       13.424297    1.048047   -0.393057
     62          6           0       14.147328    1.109119    1.003936
     63          6           0       14.885606    2.476064    1.153653
     64          6           0       15.608994    2.539371    2.605463
     65          6           0       17.133826    2.784810    2.474983
     66          6           0       14.856359    3.598023    3.484664
     67          1           0       -1.221727    2.382538   -0.429810
     68          1           0       -6.992791    5.104501    0.211373
     69          1           0       -9.796673   -0.831019    0.212126
     70          1           0       -1.401918   -2.219704    0.801768
     71          1           0       -0.655821   -0.100236   -1.085300
     72          1           0        0.905902    0.176385    0.586738
     73          1           0       -0.060213   -0.735842    1.745594
     74          1           0       -0.367629    1.021581    1.458640
     75          1           0       -1.176371   -1.818163   -2.097565
     76          1           0       -2.159932   -3.138451   -1.780725
     77          1           0        0.639696   -3.250938   -2.111810
     78          1           0       -0.481199   -4.496324   -1.470771
     79          1           0       -1.623289    6.061030   -0.355976
     80          1           0       -1.709913    5.268581   -1.945794
     81          1           0       -0.985889    4.511119   -0.452327
     82          1           0       -3.183529    7.540389   -1.592998
     83          1           0       -3.000470    7.934653    0.175757
     84          1           0       -4.279868    8.680081   -0.800843
     85          1           0       -9.560778    4.291237    0.173517
     86          1           0      -10.569411    1.731439    0.948716
     87          1           0       -9.675648    2.839069    2.674270
     88          1           0       -9.782809    4.545830    2.354676
     89          1           0       -8.186283    3.774678    2.596873
     90          1           0       -9.769507    1.534049   -1.954485
     91          1           0      -10.198989    3.164271   -1.491580
     92          1           0      -12.186321    1.362111   -2.304026
     93          1           0      -12.317496    2.882441   -1.422740
     94          1           0      -12.168694    1.347696   -0.529807
     95          1           0       -8.796311   -4.421921    0.507826
     96          1           0       -9.734910   -3.043352   -0.252743
     97          1           0       -9.350189   -3.020463    1.456363
     98          1           0       -3.710568   -4.207791   -0.730746
     99          1           0       -1.420305   -6.397585    2.074806
    100          1           0       -2.479318   -7.716249    1.697265
    101          1           0       -2.810234   -6.517170    2.976849
    102          1           0        3.072250   -3.510112    1.306521
    103          1           0        3.011449   -1.698343    1.255563
    104          1           0        4.176427   -1.717530   -0.898972
    105          1           0        5.586705   -5.765155   -0.460437
    106          1           0        3.909285   -5.421206   -0.158186
    107          1           0        5.112047   -4.993877    0.998373
    108          1           0        5.331595   -2.977822   -2.697815
    109          1           0        6.095012   -4.387735   -2.299754
    110          1           0        8.033447   -3.509937   -1.963680
    111          1           0        7.510825   -2.419320   -0.691215
    112          1           0        6.707660   -1.514730   -3.486194
    113          1           0        8.364508   -1.835506   -3.423838
    114          1           0        6.847749   -0.132825   -1.574152
    115          1           0        8.486523    1.660847   -3.023053
    116          1           0        6.788302    1.602923   -2.919469
    117          1           0        7.542114    0.626083   -4.223581
    118          1           0        8.856349   -0.800752   -0.483268
    119          1           0        9.002247    0.945521   -0.822702
    120          1           0       10.168835   -0.684737   -3.029578
    121          1           0       10.695751   -1.254597   -1.391229
    122          1           0       10.638890    1.529338   -2.088533
    123          1           0       11.940590    0.579228   -2.443997
    124          1           0       11.479514   -0.005974    0.297257
    125          1           0       11.955162    2.974710    0.402577
    126          1           0       10.906159    1.968146    1.354644
    127          1           0       10.333377    2.519416   -0.190085
    128          1           0       13.566159    1.965305   -0.964672
    129          1           0       13.823512    0.317965   -1.098140
    130          1           0       14.864261    0.295134    1.111291
    131          1           0       13.455463    1.044028    1.843355
    132          1           0       14.283763    3.353979    0.920205
    133          1           0       15.666417    2.629425    0.408292
    134          1           0       15.530631    1.594179    3.141756
    135          1           0       17.619417    2.044841    3.110135
    136          1           0       17.365010    3.793147    2.818501
    137          1           0       17.455166    2.662201    1.440472
    138          1           0       15.467802    4.450630    3.779264
    139          1           0       14.453009    3.148438    4.391938
    140          1           0       13.994568    4.029622    2.973334
 ---------------------------------------------------------------------

 SCF Done:  E(RZINDO/S) =  -473.965926958     A.U. after   19 cycles

 Excitation energies and oscillator strengths:

 Excited State   1:      Singlet-A      1.2182 eV 1017.76 nm  f=0.5940  <S**2>=0.000
     175 ->178         0.17549
     176 ->177         0.66611
 This state for optimization and/or second-order correction.
 Total Energy, E(CIS/TDA) =  -473.921158475
 Copying the excited state density for this state as the 1-particle RhoCI density.

 Excited State   2:      Singlet-A      1.9161 eV  647.07 nm  f=0.0214  <S**2>=0.000
     175 ->177         0.52247
     176 ->178        -0.44359

 Excited State   3:      Singlet-A      2.9131 eV  425.61 nm  f=0.0467  <S**2>=0.000
     167 ->179         0.12525
     168 ->177        -0.20365
     168 ->178         0.16637
     168 ->179         0.35054
     168 ->180        -0.17868
     168 ->185        -0.15025
     176 ->178         0.18279
     176 ->179         0.36368

 Excited State   4:      Singlet-A      2.9305 eV  423.09 nm  f=0.1278  <S**2>=0.000
     168 ->177         0.16737
     168 ->178        -0.13226
     168 ->179        -0.28535
     168 ->180         0.14139
     168 ->185         0.11914
     175 ->177         0.14552
     176 ->178         0.25656
     176 ->179         0.42522

 Excited State   5:      Singlet-A      2.9966 eV  413.75 nm  f=0.7516  <S**2>=0.000
     170 ->179        -0.10011
     170 ->180        -0.14381
     174 ->177        -0.18518
     175 ->177         0.33497
     176 ->178         0.38565
     176 ->179        -0.23576
     176 ->180        -0.22278

 The electronic state is 1-A.
 Alpha  occ. eigenvalues --   -1.84568  -1.82544  -1.78222  -1.71893  -1.69037
 Alpha  occ. eigenvalues --   -1.68834  -1.67713  -1.59271  -1.56551  -1.56135
 Alpha  occ. eigenvalues --   -1.53583  -1.50494  -1.48380  -1.47222  -1.46516
 Alpha  occ. eigenvalues --   -1.44420  -1.42967  -1.40598  -1.38664  -1.38097
 Alpha  occ. eigenvalues --   -1.36194  -1.35988  -1.32228  -1.31317  -1.28315
 Alpha  occ. eigenvalues --   -1.26146  -1.23315  -1.21292  -1.19807  -1.18163
 Alpha  occ. eigenvalues --   -1.16941  -1.15980  -1.15465  -1.14618  -1.14151
 Alpha  occ. eigenvalues --   -1.13402  -1.10814  -1.09264  -1.04220  -1.03340
 Alpha  occ. eigenvalues --   -1.02133  -1.00390  -0.98752  -0.98242  -0.96766
 Alpha  occ. eigenvalues --   -0.95481  -0.95062  -0.94731  -0.92584  -0.92164
 Alpha  occ. eigenvalues --   -0.91724  -0.90350  -0.88200  -0.87284  -0.86315
 Alpha  occ. eigenvalues --   -0.85494  -0.83880  -0.82995  -0.81170  -0.80656
 Alpha  occ. eigenvalues --   -0.79896  -0.78999  -0.78195  -0.76804  -0.75236
 Alpha  occ. eigenvalues --   -0.74810  -0.74510  -0.73038  -0.72835  -0.72697
 Alpha  occ. eigenvalues --   -0.72379  -0.72082  -0.71318  -0.70603  -0.70024
 Alpha  occ. eigenvalues --   -0.69736  -0.69347  -0.68729  -0.68430  -0.68315
 Alpha  occ. eigenvalues --   -0.67511  -0.67191  -0.66838  -0.66484  -0.66135
 Alpha  occ. eigenvalues --   -0.65273  -0.64627  -0.64206  -0.63690  -0.63497
 Alpha  occ. eigenvalues --   -0.63135  -0.63095  -0.62822  -0.62398  -0.61680
 Alpha  occ. eigenvalues --   -0.61237  -0.61023  -0.60665  -0.60390  -0.59891
 Alpha  occ. eigenvalues --   -0.59873  -0.59038  -0.58922  -0.58836  -0.58502
 Alpha  occ. eigenvalues --   -0.57820  -0.57545  -0.57063  -0.56821  -0.56790
 Alpha  occ. eigenvalues --   -0.56367  -0.55455  -0.55418  -0.55214  -0.54895
 Alpha  occ. eigenvalues --   -0.54753  -0.54148  -0.53989  -0.52654  -0.52465
 Alpha  occ. eigenvalues --   -0.52233  -0.52154  -0.52049  -0.51466  -0.51194
 Alpha  occ. eigenvalues --   -0.50859  -0.50754  -0.50440  -0.50177  -0.50073
 Alpha  occ. eigenvalues --   -0.49875  -0.49724  -0.49578  -0.49324  -0.48958
 Alpha  occ. eigenvalues --   -0.48754  -0.48516  -0.47745  -0.47571  -0.47432
 Alpha  occ. eigenvalues --   -0.47236  -0.47075  -0.46745  -0.46365  -0.46291
 Alpha  occ. eigenvalues --   -0.46092  -0.45878  -0.45567  -0.44985  -0.44756
 Alpha  occ. eigenvalues --   -0.44686  -0.44470  -0.44404  -0.44100  -0.43802
 Alpha  occ. eigenvalues --   -0.43630  -0.43283  -0.42877  -0.42729  -0.41840
 Alpha  occ. eigenvalues --   -0.41788  -0.41006  -0.40060  -0.39108  -0.38391
 Alpha  occ. eigenvalues --   -0.37782  -0.36832  -0.36417  -0.34907  -0.34503
 Alpha  occ. eigenvalues --   -0.34080  -0.33476  -0.32184  -0.30976  -0.26617
 Alpha  occ. eigenvalues --   -0.21248
 Alpha virt. eigenvalues --   -0.08206  -0.01912  -0.00707   0.00914   0.02079
 Alpha virt. eigenvalues --    0.02698   0.02933   0.03126   0.04650   0.05306
 Alpha virt. eigenvalues --    0.06098   0.06608   0.07165   0.07513   0.08142

 Mulliken charges:
               1
     1  Mg   0.427634
     2  C   -0.031105
     3  C   -0.108035
     4  C   -0.072455
     5  C   -0.085804
     6  N   -0.291919
     7  C    0.112883
     8  C   -0.002323
     9  C    0.003910
    10  C    0.132877
    11  C   -0.043302
    12  C   -0.025653
    13  C    0.006165
    14  C    0.456163
    15  O   -0.485801
    16  O   -0.283041
    17  N   -0.296616
    18  C    0.129932
    19  C    0.025900
    20  C   -0.031350
    21  C    0.136879
    22  C   -0.041699
    23  C    0.322130
    24  O   -0.531822
    25  C   -0.022669
    26  N   -0.275712
    27  C    0.146709
    28  C    0.003643
    29  C    0.013800
    30  C    0.113628
    31  C   -0.047689
    32  C   -0.023843
    33  C   -0.053528
    34  N   -0.330428
    35  C    0.070184
    36  C    0.040404
    37  C   -0.068309
    38  C    0.109583
    39  C   -0.036036
    40  C    0.343477
    41  O   -0.529509
    42  C    0.057734
    43  C    0.482436
    44  O   -0.501355
    45  O   -0.270030
    46  C    0.067854
    47  C    0.103426
    48  C   -0.071477
    49  C    0.000549
    50  C   -0.047151
    51  C   -0.034516
    52  C   -0.025456
    53  C   -0.027970
    54  C   -0.009250
    55  C   -0.058888
    56  C   -0.030408
    57  C   -0.046496
    58  C   -0.054186
    59  C   -0.003747
    60  C   -0.054063
    61  C   -0.033278
    62  C   -0.031355
    63  C   -0.042678
    64  C   -0.021966
    65  C   -0.058196
    66  C   -0.060474
    67  H    0.020396
    68  H    0.043515
    69  H    0.033872
    70  H    0.043144
    71  H    0.028917
    72  H    0.019043
    73  H    0.033161
    74  H    0.024966
    75  H    0.012541
    76  H    0.024769
    77  H    0.039738
    78  H    0.040618
    79  H    0.019370
    80  H    0.041319
    81  H    0.026919
    82  H    0.033695
    83  H    0.046229
    84  H    0.040667
    85  H    0.037170
    86  H    0.034150
    87  H    0.018041
    88  H    0.018064
    89  H    0.031701
    90  H    0.033643
    91  H    0.013065
    92  H    0.023384
    93  H    0.018598
    94  H    0.018176
    95  H    0.030453
    96  H    0.028046
    97  H    0.030616
    98  H    0.050712
    99  H    0.027675
   100  H    0.038943
   101  H    0.055968
   102  H    0.060805
   103  H    0.039395
   104  H    0.017022
   105  H    0.019270
   106  H    0.028250
   107  H    0.024289
   108  H    0.020701
   109  H    0.009493
   110  H    0.018039
   111  H    0.032453
   112  H    0.017138
   113  H    0.011191
   114  H    0.004028
   115  H    0.020994
   116  H    0.014495
   117  H    0.027983
   118  H    0.010426
   119  H    0.024887
   120  H    0.034505
   121  H    0.011904
   122  H    0.016008
   123  H   -0.004874
   124  H    0.037070
   125  H    0.021236
   126  H    0.006964
   127  H    0.024903
   128  H    0.020562
   129  H    0.021096
   130  H    0.023333
   131  H    0.025117
   132  H    0.026469
   133  H    0.013202
   134  H    0.022811
   135  H    0.018197
   136  H    0.021696
   137  H    0.022309
   138  H    0.018999
   139  H    0.014788
   140  H    0.015250
 Sum of Mulliken charges =  -0.00000

 Dipole moment (field-independent basis, Debye):
    X=              5.8804    Y=              6.9953    Z=             -6.3355  Tot=             11.1199
 N-N= 4.264224326265D+03 E-N= 0.000000000000D+00  KE=-9.202931596026D+03
 Leave Link  601 at Wed Apr 27 09:47:18 2022, MaxMem=  6710886400 cpu:               0.9 elap:               0.1
 (Enter /sw/apps/gaussian-16.0/g16/l9999.exe)
 1\1\GINC-BP1-COMPUTE175\SP\RZINDO CIS\STO-3G\C55H74Mg1N4O6\OF15641\27-
 Apr-2022\0\\#p ZINDO=(nstates=5)\\step_1101_chromophore_6 ZINDO\\0,1\M
 g,0,16.866,-2.477,27.317\C,0,16.208,-0.32,30.004\C,0,18.511,-4.579,29.
 372\C,0,17.586,-4.276,24.646\C,0,15.067,-0.087,25.213\N,0,17.472,-2.27
 6,29.384\C,0,17.006,-1.387,30.321\C,0,17.445,-1.804,31.789\C,0,18.307,
 -3.145,31.562\C,0,18.084,-3.384,30.042\C,0,19.783,-3.131,31.969\C,0,16
 .317,-2.029,32.884\C,0,16.555,-1.797,34.407\C,0,18.047,-1.39,34.905\O,

 Normal termination of Gaussian 16 at Wed Apr 27 09:47:18 2022.
