 Gaussian 16, Revision A.03,
 Gaussian 16:  ES64L-G16RevA.03 25-Dec-2016

 ------------------------------
 #p blyp/Def2SVP td=(nstates=5)
 ------------------------------

 ---------------------------------------------------
 step_1751_chromophore_12 TDDFT with blyp functional
 ---------------------------------------------------
 Symbolic Z-matrix:
 Charge =  0 Multiplicity = 1

                         Standard orientation:
 ---------------------------------------------------------------------
 Center     Atomic      Atomic             Coordinates (Angstroms)
 Number     Number       Type             X           Y           Z
 ---------------------------------------------------------------------
      1         12           0       -3.753760    0.391986   -0.346598
      2          6           0       -3.086122   -2.853098    0.574731
      3          6           0       -0.571960    1.226923    0.023021
      4          6           0       -4.716586    3.651377   -0.879988
      5          6           0       -7.325421   -0.324208    0.100550
      6          7           0       -2.045394   -0.710034    0.366660
      7          6           0       -1.921678   -2.076827    0.435184
      8          6           0       -0.445057   -2.486323    0.545651
      9          6           0        0.308269   -1.082323    0.660511
     10          6           0       -0.813817   -0.098440    0.399727
     11          6           0        0.969127   -0.688862    1.979503
     12          6           0       -0.047141   -3.342074   -0.716407
     13          6           0        1.326995   -4.062635   -0.656388
     14          6           0        2.236753   -4.217594   -1.889313
     15          8           0        1.916999   -4.203792   -3.122087
     16          8           0        3.548028   -4.420512   -1.425637
     17          7           0       -2.786131    2.182576   -0.438845
     18          6           0       -1.449449    2.327588   -0.282129
     19          6           0       -1.046373    3.644952   -0.703225
     20          6           0       -2.194553    4.286874   -1.188558
     21          6           0       -3.290684    3.402199   -0.883941
     22          6           0        0.412116    4.098870   -0.772918
     23          6           0       -2.429692    5.676145   -1.846455
     24          8           0       -3.509453    6.138320   -2.109663
     25          6           0       -1.188170    6.474092   -2.123760
     26          7           0       -5.752779    1.574983   -0.254775
     27          6           0       -5.842583    2.826923   -0.674303
     28          6           0       -7.316056    3.305614   -0.893785
     29          6           0       -8.102954    2.114065   -0.475047
     30          6           0       -7.007442    1.037488   -0.257015
     31          6           0       -7.741648    4.609965   -0.144477
     32          6           0       -9.137437    1.563575   -1.491476
     33          6           0       -8.630720    1.023722   -2.815168
     34          7           0       -5.051554   -1.273927    0.145467
     35          6           0       -6.416612   -1.434570    0.344897
     36          6           0       -6.699070   -2.880568    0.765157
     37          6           0       -5.403779   -3.450079    0.733992
     38          6           0       -4.441872   -2.478971    0.398291
     39          6           0       -8.025159   -3.517105    0.885827
     40          6           0       -4.651037   -4.698573    0.839521
     41          8           0       -4.997318   -5.849247    0.998467
     42          6           0       -3.143870   -4.333153    0.814542
     43          6           0       -2.569557   -4.857529    2.089548
     44          8           0       -2.373498   -4.170648    3.065682
     45          8           0       -2.039271   -6.086343    1.949199
     46          6           0       -1.247997   -6.666509    3.047441
     47          6           0        4.578166   -4.404697   -2.497248
     48          6           0        5.909157   -4.370621   -1.779121
     49          6           0        7.039807   -3.863765   -2.239539
     50          6           0        7.189422   -3.228887   -3.647433
     51          6           0        8.195977   -3.776991   -1.241171
     52          6           0        8.904381   -2.391562   -1.221485
     53          6           0        9.003966   -1.684549    0.081921
     54          6           0        9.704219   -0.252360   -0.113559
     55          6           0       11.263523   -0.283227    0.148581
     56          6           0        9.068390    0.820261    0.824200
     57          6           0        8.818119    2.206259    0.216396
     58          6           0        8.066659    3.244366    1.066184
     59          6           0        6.928226    3.978677    0.274081
     60          6           0        7.558357    4.971213   -0.750945
     61          6           0        5.935618    4.557183    1.316357
     62          6           0        4.923897    3.508772    1.751616
     63          6           0        3.429507    3.936221    1.786197
     64          6           0        2.801378    4.148362    3.196089
     65          6           0        1.286130    4.423325    3.162340
     66          6           0        3.567555    5.233634    3.974256
     67          1           0        0.498177    1.435090    0.076937
     68          1           0       -5.075616    4.636142   -1.187177
     69          1           0       -8.403081   -0.462937    0.212137
     70          1           0       -0.287183   -3.106219    1.427444
     71          1           0        1.133074   -0.989920   -0.046246
     72          1           0        0.896638   -1.566092    2.621674
     73          1           0        0.577327    0.160394    2.537955
     74          1           0        2.025846   -0.429321    1.912825
     75          1           0       -0.045467   -2.585017   -1.501213
     76          1           0       -0.750410   -4.151981   -0.908056
     77          1           0        1.146307   -5.032423   -0.191992
     78          1           0        1.842014   -3.448488    0.083592
     79          1           0        0.647485    4.536088   -1.744313
     80          1           0        1.223597    3.419150   -0.512161
     81          1           0        0.581349    4.875613   -0.027390
     82          1           0       -1.372885    7.544793   -2.221316
     83          1           0       -0.802486    6.124309   -3.081877
     84          1           0       -0.378460    6.421240   -1.396582
     85          1           0       -7.516464    3.561623   -1.933621
     86          1           0       -8.595859    2.190885    0.494068
     87          1           0       -6.877528    5.191595    0.178242
     88          1           0       -8.363433    4.477888    0.740812
     89          1           0       -8.278185    5.284029   -0.812678
     90          1           0       -9.868739    2.292044   -1.842648
     91          1           0       -9.714667    0.760487   -1.031326
     92          1           0       -9.010862    0.011469   -2.952536
     93          1           0       -7.545024    1.089024   -2.744829
     94          1           0       -8.994868    1.630655   -3.642996
     95          1           0       -8.788885   -2.908474    0.401185
     96          1           0       -8.242309   -3.510529    1.954014
     97          1           0       -8.048537   -4.537681    0.503581
     98          1           0       -2.660336   -4.790427   -0.048596
     99          1           0       -1.812114   -6.420975    3.947640
    100          1           0       -0.226491   -6.288741    3.084356
    101          1           0       -1.269090   -7.755729    3.039636
    102          1           0        4.450841   -3.502030   -3.095587
    103          1           0        4.399698   -5.329417   -3.045686
    104          1           0        5.829547   -4.664279   -0.732527
    105          1           0        8.148902   -3.374958   -4.141561
    106          1           0        7.011459   -2.155821   -3.575188
    107          1           0        6.582585   -3.832663   -4.321765
    108          1           0        8.938059   -4.479621   -1.620766
    109          1           0        7.824146   -3.908545   -0.224745
    110          1           0        8.606099   -1.752251   -2.051994
    111          1           0        9.927132   -2.447646   -1.593201
    112          1           0        9.653238   -2.131523    0.834572
    113          1           0        8.039760   -1.706720    0.589558
    114          1           0        9.721696    0.191965   -1.109086
    115          1           0       11.612268   -1.041080   -0.553989
    116          1           0       11.511342   -0.591748    1.164012
    117          1           0       11.761825    0.668389   -0.036522
    118          1           0        9.828489    1.021021    1.578958
    119          1           0        8.185649    0.448439    1.345094
    120          1           0        8.480939    2.056110   -0.809152
    121          1           0        9.816262    2.593634    0.009822
    122          1           0        8.735640    4.066594    1.319189
    123          1           0        7.672287    2.827194    1.993234
    124          1           0        6.445573    3.213001   -0.332534
    125          1           0        7.415851    4.763750   -1.812363
    126          1           0        8.614493    5.176226   -0.576277
    127          1           0        6.999603    5.903287   -0.657273
    128          1           0        5.499751    5.494059    0.968675
    129          1           0        6.522671    4.911669    2.163438
    130          1           0        5.090501    3.197984    2.783171
    131          1           0        4.954633    2.581363    1.181377
    132          1           0        2.931126    3.035345    1.425892
    133          1           0        3.202408    4.671225    1.013868
    134          1           0        3.039991    3.216188    3.707059
    135          1           0        0.881128    4.332851    2.155100
    136          1           0        1.006840    5.403788    3.549971
    137          1           0        0.695168    3.746893    3.779714
    138          1           0        4.108859    5.771911    3.196106
    139          1           0        4.232432    4.694111    4.649413
    140          1           0        2.983190    5.937225    4.566609
 ---------------------------------------------------------------------

 SCF Done:  E(RB-LYP) =  -3007.38145489     A.U. after   21 cycles

 Excitation energies and oscillator strengths:

 Excited State   1:      Singlet-A      1.8160 eV  682.75 nm  f=0.3004  <S**2>=0.000
     245 -> 248        0.21113
     246 -> 247        0.68341
     246 <- 247       -0.14183
 This state for optimization and/or second-order correction.
 Total Energy, E(TD-HF/TD-DFT) =  -3007.31471956
 Copying the excited state density for this state as the 1-particle RhoCI density.

 Excited State   2:      Singlet-A      1.9468 eV  636.87 nm  f=0.0706  <S**2>=0.000
     244 -> 247       -0.16096
     245 -> 247        0.64111
     246 -> 248       -0.22349

 Excited State   3:      Singlet-A      2.0021 eV  619.28 nm  f=0.0060  <S**2>=0.000
     244 -> 247        0.68748
     245 -> 247        0.14575

 Excited State   4:      Singlet-A      2.1997 eV  563.64 nm  f=0.0003  <S**2>=0.000
     243 -> 247        0.70561

 Excited State   5:      Singlet-A      2.5775 eV  481.02 nm  f=0.0029  <S**2>=0.000
     242 -> 247        0.69066

 The electronic state is 1-A.
 Alpha  occ. eigenvalues --  -46.28216 -18.82261 -18.81602 -18.77607 -18.76279
 Alpha  occ. eigenvalues --  -18.75916 -18.75440 -14.03235 -14.02668 -14.00952
 Alpha  occ. eigenvalues --  -14.00942 -10.05253 -10.03486 -10.00402  -9.99366
 Alpha  occ. eigenvalues --   -9.98020  -9.97941  -9.96752  -9.96444  -9.96380
 Alpha  occ. eigenvalues --   -9.96231  -9.95871  -9.95815  -9.95584  -9.95021
 Alpha  occ. eigenvalues --   -9.94565  -9.94498  -9.94404  -9.94346  -9.93934
 Alpha  occ. eigenvalues --   -9.93737  -9.93668  -9.93455  -9.93368  -9.93250
 Alpha  occ. eigenvalues --   -9.93190  -9.93174  -9.93157  -9.93018  -9.92792
 Alpha  occ. eigenvalues --   -9.92787  -9.92536  -9.92484  -9.92461  -9.92367
 Alpha  occ. eigenvalues --   -9.92277  -9.92190  -9.92137  -9.92052  -9.91913
 Alpha  occ. eigenvalues --   -9.91841  -9.91718  -9.91627  -9.91579  -9.91571
 Alpha  occ. eigenvalues --   -9.91505  -9.91477  -9.91441  -9.91409  -9.91213
 Alpha  occ. eigenvalues --   -9.91199  -9.91103  -9.91098  -9.90945  -9.90864
 Alpha  occ. eigenvalues --   -9.90749  -2.92646  -1.73045  -1.72540  -1.72370
 Alpha  occ. eigenvalues --   -0.98114  -0.96148  -0.92996  -0.91732  -0.89602
 Alpha  occ. eigenvalues --   -0.88243  -0.86481  -0.85817  -0.85212  -0.84280
 Alpha  occ. eigenvalues --   -0.75428  -0.73913  -0.73262  -0.72787  -0.72769
 Alpha  occ. eigenvalues --   -0.72163  -0.71296  -0.71128  -0.70460  -0.70005
 Alpha  occ. eigenvalues --   -0.69562  -0.69116  -0.68458  -0.67232  -0.67089
 Alpha  occ. eigenvalues --   -0.66572  -0.65879  -0.65277  -0.64917  -0.64413
 Alpha  occ. eigenvalues --   -0.64151  -0.62750  -0.62514  -0.61589  -0.61402
 Alpha  occ. eigenvalues --   -0.60795  -0.60379  -0.60191  -0.59690  -0.59262
 Alpha  occ. eigenvalues --   -0.58397  -0.57370  -0.56412  -0.55591  -0.54599
 Alpha  occ. eigenvalues --   -0.53904  -0.53512  -0.52652  -0.52431  -0.51545
 Alpha  occ. eigenvalues --   -0.51299  -0.50653  -0.50152  -0.49949  -0.49891
 Alpha  occ. eigenvalues --   -0.49465  -0.49369  -0.49166  -0.48104  -0.46733
 Alpha  occ. eigenvalues --   -0.46590  -0.45974  -0.45727  -0.44848  -0.44368
 Alpha  occ. eigenvalues --   -0.43898  -0.43618  -0.43134  -0.43002  -0.42779
 Alpha  occ. eigenvalues --   -0.42333  -0.42127  -0.41889  -0.41771  -0.41416
 Alpha  occ. eigenvalues --   -0.40796  -0.40768  -0.40748  -0.40401  -0.40061
 Alpha  occ. eigenvalues --   -0.39976  -0.39819  -0.39604  -0.39580  -0.39403
 Alpha  occ. eigenvalues --   -0.39175  -0.39006  -0.38734  -0.38339  -0.38119
 Alpha  occ. eigenvalues --   -0.38003  -0.37828  -0.37686  -0.37311  -0.37238
 Alpha  occ. eigenvalues --   -0.37148  -0.36789  -0.36698  -0.36628  -0.36405
 Alpha  occ. eigenvalues --   -0.36323  -0.36215  -0.36115  -0.35896  -0.35808
 Alpha  occ. eigenvalues --   -0.35595  -0.35522  -0.35004  -0.34651  -0.34599
 Alpha  occ. eigenvalues --   -0.34318  -0.34190  -0.34070  -0.33926  -0.33725
 Alpha  occ. eigenvalues --   -0.33623  -0.33540  -0.33412  -0.33138  -0.33032
 Alpha  occ. eigenvalues --   -0.33001  -0.32773  -0.32740  -0.32486  -0.32387
 Alpha  occ. eigenvalues --   -0.32207  -0.32060  -0.31907  -0.31613  -0.31521
 Alpha  occ. eigenvalues --   -0.31381  -0.31065  -0.30932  -0.30809  -0.30669
 Alpha  occ. eigenvalues --   -0.30638  -0.30403  -0.30099  -0.30069  -0.29827
 Alpha  occ. eigenvalues --   -0.29642  -0.29558  -0.29425  -0.29316  -0.28755
 Alpha  occ. eigenvalues --   -0.28741  -0.28442  -0.28298  -0.28023  -0.27885
 Alpha  occ. eigenvalues --   -0.27794  -0.27638  -0.27386  -0.26700  -0.26458
 Alpha  occ. eigenvalues --   -0.26438  -0.26050  -0.25817  -0.25694  -0.25611
 Alpha  occ. eigenvalues --   -0.25268  -0.24999  -0.24651  -0.24253  -0.23483
 Alpha  occ. eigenvalues --   -0.23338  -0.22072  -0.21813  -0.21301  -0.20929
 Alpha  occ. eigenvalues --   -0.20859  -0.20132  -0.19277  -0.18531  -0.16703
 Alpha  occ. eigenvalues --   -0.15670
 Alpha virt. eigenvalues --   -0.11290  -0.06760  -0.05963  -0.04589  -0.04511
 Alpha virt. eigenvalues --   -0.03286  -0.02045  -0.01574  -0.01419  -0.00027
 Alpha virt. eigenvalues --    0.00621   0.01329   0.02188   0.02313   0.02559

 Mulliken charges:
               1
     1  Mg   0.689569
     2  C    0.068557
     3  C   -0.055569
     4  C   -0.010540
     5  C   -0.042015
     6  N   -0.253223
     7  C   -0.060227
     8  C    0.060632
     9  C   -0.011802
    10  C    0.027158
    11  C    0.108698
    12  C    0.081574
    13  C    0.095780
    14  C    0.140884
    15  O   -0.227362
    16  O   -0.307623
    17  N   -0.307612
    18  C    0.155853
    19  C   -0.117510
    20  C    0.002528
    21  C    0.088390
    22  C    0.138340
    23  C   -0.040451
    24  O   -0.126993
    25  C    0.109464
    26  N   -0.135098
    27  C   -0.044445
    28  C    0.063198
    29  C    0.081762
    30  C   -0.062025
    31  C    0.110029
    32  C    0.041644
    33  C    0.070260
    34  N   -0.258047
    35  C    0.093838
    36  C   -0.172484
    37  C    0.074397
    38  C    0.060242
    39  C    0.182068
    40  C   -0.075550
    41  O   -0.117390
    42  C    0.031382
    43  C    0.111778
    44  O   -0.180725
    45  O   -0.256937
    46  C    0.214371
    47  C    0.323340
    48  C   -0.122731
    49  C   -0.160212
    50  C    0.134192
    51  C    0.222977
    52  C    0.038270
    53  C    0.122335
    54  C   -0.080110
    55  C    0.069520
    56  C    0.104805
    57  C    0.068758
    58  C    0.112170
    59  C   -0.106352
    60  C    0.113210
    61  C    0.142974
    62  C    0.084193
    63  C    0.043504
    64  C   -0.088743
    65  C    0.120110
    66  C    0.106920
    67  H   -0.074053
    68  H   -0.049245
    69  H   -0.066575
    70  H   -0.018747
    71  H   -0.020042
    72  H   -0.011817
    73  H    0.007745
    74  H   -0.015146
    75  H   -0.013796
    76  H   -0.002213
    77  H    0.016302
    78  H   -0.005717
    79  H   -0.001399
    80  H   -0.018156
    81  H    0.025583
    82  H   -0.011910
    83  H    0.013570
    84  H   -0.007903
    85  H   -0.014998
    86  H   -0.017561
    87  H   -0.006064
    88  H   -0.013013
    89  H   -0.015395
    90  H   -0.030370
    91  H   -0.026038
    92  H   -0.006056
    93  H    0.001039
    94  H   -0.014256
    95  H   -0.011846
    96  H    0.005563
    97  H    0.017911
    98  H    0.009640
    99  H    0.014923
   100  H    0.019690
   101  H    0.017896
   102  H    0.008665
   103  H    0.007174
   104  H   -0.028991
   105  H   -0.019125
   106  H    0.032289
   107  H    0.000091
   108  H   -0.022531
   109  H   -0.024031
   110  H   -0.049937
   111  H   -0.055713
   112  H   -0.033659
   113  H   -0.027260
   114  H   -0.037023
   115  H   -0.018953
   116  H   -0.009303
   117  H   -0.006543
   118  H   -0.046491
   119  H   -0.035975
   120  H   -0.036229
   121  H   -0.049068
   122  H   -0.032711
   123  H   -0.028362
   124  H   -0.034577
   125  H   -0.016866
   126  H   -0.013448
   127  H   -0.033662
   128  H   -0.036493
   129  H   -0.036808
   130  H   -0.041868
   131  H   -0.029861
   132  H   -0.039616
   133  H   -0.026296
   134  H   -0.037899
   135  H   -0.029139
   136  H   -0.020687
   137  H   -0.015612
   138  H   -0.013580
   139  H   -0.013601
   140  H   -0.011745
 Sum of Mulliken charges =  -0.00000

 Dipole moment (field-independent basis, Debye):
    X=              4.3863    Y=              1.6608    Z=             -0.3950  Tot=              4.7068
 Quadrupole moment (field-independent basis, Debye-Ang):
   XX=           -367.2441   YY=           -427.3665   ZZ=           -412.0708
   XY=            -15.2479   XZ=              1.0509   YZ=             -2.4254

 Normal termination of Gaussian 16 at Wed May  4 15:21:08 2022.
