 Gaussian 16, Revision A.03,
 Gaussian 16:  ES64L-G16RevA.03 25-Dec-2016

 -----------------------------------
 #p cam-b3lyp/Def2SVP td=(nstates=5)
 -----------------------------------

 --------------------------------------------------------
 step_1751_chromophore_12 TDDFT with cam-b3lyp functional
 --------------------------------------------------------
 Symbolic Z-matrix:
 Charge =  0 Multiplicity = 1

                         Standard orientation:
 ---------------------------------------------------------------------
 Center     Atomic      Atomic             Coordinates (Angstroms)
 Number     Number       Type             X           Y           Z
 ---------------------------------------------------------------------
      1         12           0       -3.753760    0.391986   -0.346598
      2          6           0       -3.086122   -2.853098    0.574731
      3          6           0       -0.571960    1.226923    0.023021
      4          6           0       -4.716586    3.651377   -0.879988
      5          6           0       -7.325421   -0.324208    0.100550
      6          7           0       -2.045394   -0.710034    0.366660
      7          6           0       -1.921678   -2.076827    0.435184
      8          6           0       -0.445057   -2.486323    0.545651
      9          6           0        0.308269   -1.082323    0.660511
     10          6           0       -0.813817   -0.098440    0.399727
     11          6           0        0.969127   -0.688862    1.979503
     12          6           0       -0.047141   -3.342074   -0.716407
     13          6           0        1.326995   -4.062635   -0.656388
     14          6           0        2.236753   -4.217594   -1.889313
     15          8           0        1.916999   -4.203792   -3.122087
     16          8           0        3.548028   -4.420512   -1.425637
     17          7           0       -2.786131    2.182576   -0.438845
     18          6           0       -1.449449    2.327588   -0.282129
     19          6           0       -1.046373    3.644952   -0.703225
     20          6           0       -2.194553    4.286874   -1.188558
     21          6           0       -3.290684    3.402199   -0.883941
     22          6           0        0.412116    4.098870   -0.772918
     23          6           0       -2.429692    5.676145   -1.846455
     24          8           0       -3.509453    6.138320   -2.109663
     25          6           0       -1.188170    6.474092   -2.123760
     26          7           0       -5.752779    1.574983   -0.254775
     27          6           0       -5.842583    2.826923   -0.674303
     28          6           0       -7.316056    3.305614   -0.893785
     29          6           0       -8.102954    2.114065   -0.475047
     30          6           0       -7.007442    1.037488   -0.257015
     31          6           0       -7.741648    4.609965   -0.144477
     32          6           0       -9.137437    1.563575   -1.491476
     33          6           0       -8.630720    1.023722   -2.815168
     34          7           0       -5.051554   -1.273927    0.145467
     35          6           0       -6.416612   -1.434570    0.344897
     36          6           0       -6.699070   -2.880568    0.765157
     37          6           0       -5.403779   -3.450079    0.733992
     38          6           0       -4.441872   -2.478971    0.398291
     39          6           0       -8.025159   -3.517105    0.885827
     40          6           0       -4.651037   -4.698573    0.839521
     41          8           0       -4.997318   -5.849247    0.998467
     42          6           0       -3.143870   -4.333153    0.814542
     43          6           0       -2.569557   -4.857529    2.089548
     44          8           0       -2.373498   -4.170648    3.065682
     45          8           0       -2.039271   -6.086343    1.949199
     46          6           0       -1.247997   -6.666509    3.047441
     47          6           0        4.578166   -4.404697   -2.497248
     48          6           0        5.909157   -4.370621   -1.779121
     49          6           0        7.039807   -3.863765   -2.239539
     50          6           0        7.189422   -3.228887   -3.647433
     51          6           0        8.195977   -3.776991   -1.241171
     52          6           0        8.904381   -2.391562   -1.221485
     53          6           0        9.003966   -1.684549    0.081921
     54          6           0        9.704219   -0.252360   -0.113559
     55          6           0       11.263523   -0.283227    0.148581
     56          6           0        9.068390    0.820261    0.824200
     57          6           0        8.818119    2.206259    0.216396
     58          6           0        8.066659    3.244366    1.066184
     59          6           0        6.928226    3.978677    0.274081
     60          6           0        7.558357    4.971213   -0.750945
     61          6           0        5.935618    4.557183    1.316357
     62          6           0        4.923897    3.508772    1.751616
     63          6           0        3.429507    3.936221    1.786197
     64          6           0        2.801378    4.148362    3.196089
     65          6           0        1.286130    4.423325    3.162340
     66          6           0        3.567555    5.233634    3.974256
     67          1           0        0.498177    1.435090    0.076937
     68          1           0       -5.075616    4.636142   -1.187177
     69          1           0       -8.403081   -0.462937    0.212137
     70          1           0       -0.287183   -3.106219    1.427444
     71          1           0        1.133074   -0.989920   -0.046246
     72          1           0        0.896638   -1.566092    2.621674
     73          1           0        0.577327    0.160394    2.537955
     74          1           0        2.025846   -0.429321    1.912825
     75          1           0       -0.045467   -2.585017   -1.501213
     76          1           0       -0.750410   -4.151981   -0.908056
     77          1           0        1.146307   -5.032423   -0.191992
     78          1           0        1.842014   -3.448488    0.083592
     79          1           0        0.647485    4.536088   -1.744313
     80          1           0        1.223597    3.419150   -0.512161
     81          1           0        0.581349    4.875613   -0.027390
     82          1           0       -1.372885    7.544793   -2.221316
     83          1           0       -0.802486    6.124309   -3.081877
     84          1           0       -0.378460    6.421240   -1.396582
     85          1           0       -7.516464    3.561623   -1.933621
     86          1           0       -8.595859    2.190885    0.494068
     87          1           0       -6.877528    5.191595    0.178242
     88          1           0       -8.363433    4.477888    0.740812
     89          1           0       -8.278185    5.284029   -0.812678
     90          1           0       -9.868739    2.292044   -1.842648
     91          1           0       -9.714667    0.760487   -1.031326
     92          1           0       -9.010862    0.011469   -2.952536
     93          1           0       -7.545024    1.089024   -2.744829
     94          1           0       -8.994868    1.630655   -3.642996
     95          1           0       -8.788885   -2.908474    0.401185
     96          1           0       -8.242309   -3.510529    1.954014
     97          1           0       -8.048537   -4.537681    0.503581
     98          1           0       -2.660336   -4.790427   -0.048596
     99          1           0       -1.812114   -6.420975    3.947640
    100          1           0       -0.226491   -6.288741    3.084356
    101          1           0       -1.269090   -7.755729    3.039636
    102          1           0        4.450841   -3.502030   -3.095587
    103          1           0        4.399698   -5.329417   -3.045686
    104          1           0        5.829547   -4.664279   -0.732527
    105          1           0        8.148902   -3.374958   -4.141561
    106          1           0        7.011459   -2.155821   -3.575188
    107          1           0        6.582585   -3.832663   -4.321765
    108          1           0        8.938059   -4.479621   -1.620766
    109          1           0        7.824146   -3.908545   -0.224745
    110          1           0        8.606099   -1.752251   -2.051994
    111          1           0        9.927132   -2.447646   -1.593201
    112          1           0        9.653238   -2.131523    0.834572
    113          1           0        8.039760   -1.706720    0.589558
    114          1           0        9.721696    0.191965   -1.109086
    115          1           0       11.612268   -1.041080   -0.553989
    116          1           0       11.511342   -0.591748    1.164012
    117          1           0       11.761825    0.668389   -0.036522
    118          1           0        9.828489    1.021021    1.578958
    119          1           0        8.185649    0.448439    1.345094
    120          1           0        8.480939    2.056110   -0.809152
    121          1           0        9.816262    2.593634    0.009822
    122          1           0        8.735640    4.066594    1.319189
    123          1           0        7.672287    2.827194    1.993234
    124          1           0        6.445573    3.213001   -0.332534
    125          1           0        7.415851    4.763750   -1.812363
    126          1           0        8.614493    5.176226   -0.576277
    127          1           0        6.999603    5.903287   -0.657273
    128          1           0        5.499751    5.494059    0.968675
    129          1           0        6.522671    4.911669    2.163438
    130          1           0        5.090501    3.197984    2.783171
    131          1           0        4.954633    2.581363    1.181377
    132          1           0        2.931126    3.035345    1.425892
    133          1           0        3.202408    4.671225    1.013868
    134          1           0        3.039991    3.216188    3.707059
    135          1           0        0.881128    4.332851    2.155100
    136          1           0        1.006840    5.403788    3.549971
    137          1           0        0.695168    3.746893    3.779714
    138          1           0        4.108859    5.771911    3.196106
    139          1           0        4.232432    4.694111    4.649413
    140          1           0        2.983190    5.937225    4.566609
 ---------------------------------------------------------------------

 SCF Done:  E(RCAM-B3LYP) =  -3007.17018287     A.U. after   18 cycles

 Excitation energies and oscillator strengths:

 Excited State   1:      Singlet-A      1.7037 eV  727.71 nm  f=0.3790  <S**2>=0.000
     245 -> 248       -0.19966
     246 -> 247        0.68067
     245 <- 248       -0.11255
 This state for optimization and/or second-order correction.
 Total Energy, E(TD-HF/TD-DFT) =  -3007.10757123
 Copying the excited state density for this state as the 1-particle RhoCI density.

 Excited State   2:      Singlet-A      2.1494 eV  576.82 nm  f=0.1182  <S**2>=0.000
     245 -> 247        0.64678
     246 -> 248        0.27765

 Excited State   3:      Singlet-A      3.4229 eV  362.22 nm  f=0.0309  <S**2>=0.000
     244 -> 247        0.66053
     246 -> 248       -0.20220

 Excited State   4:      Singlet-A      3.5011 eV  354.13 nm  f=0.5089  <S**2>=0.000
     242 -> 247        0.10928
     243 -> 247       -0.28144
     244 -> 247        0.16201
     245 -> 247       -0.23264
     246 -> 248        0.56467
     245 <- 247        0.10340

 Excited State   5:      Singlet-A      3.5578 eV  348.49 nm  f=0.0053  <S**2>=0.000
     240 -> 247        0.24428
     240 -> 249        0.13592
     241 -> 247       -0.11472
     242 -> 247        0.44865
     242 -> 249        0.26644
     242 -> 250       -0.10789
     242 -> 251        0.13724
     243 -> 247        0.24322

 The electronic state is 1-A.
 Alpha  occ. eigenvalues --  -46.89814 -19.25149 -19.24535 -19.20628 -19.19510
 Alpha  occ. eigenvalues --  -19.19004 -19.18771 -14.42075 -14.41551 -14.39399
 Alpha  occ. eigenvalues --  -14.39394 -10.40791 -10.38849 -10.35602 -10.34736
 Alpha  occ. eigenvalues --  -10.32087 -10.31979 -10.31316 -10.30852 -10.30799
 Alpha  occ. eigenvalues --  -10.30684 -10.30250 -10.30170 -10.29854 -10.29152
 Alpha  occ. eigenvalues --  -10.28981 -10.28843 -10.28540 -10.28465 -10.28436
 Alpha  occ. eigenvalues --  -10.27719 -10.27676 -10.27578 -10.27564 -10.27380
 Alpha  occ. eigenvalues --  -10.27286 -10.27253 -10.26948 -10.26920 -10.26876
 Alpha  occ. eigenvalues --  -10.26839 -10.26632 -10.26193 -10.26187 -10.26118
 Alpha  occ. eigenvalues --  -10.26056 -10.25971 -10.25931 -10.25835 -10.25779
 Alpha  occ. eigenvalues --  -10.25756 -10.25512 -10.25512 -10.25423 -10.25351
 Alpha  occ. eigenvalues --  -10.25264 -10.25234 -10.25150 -10.25131 -10.25114
 Alpha  occ. eigenvalues --  -10.24782 -10.24780 -10.24744 -10.24567 -10.24548
 Alpha  occ. eigenvalues --  -10.24364  -3.18139  -1.93016  -1.92591  -1.92450
 Alpha  occ. eigenvalues --   -1.16705  -1.14510  -1.11465  -1.10286  -1.07551
 Alpha  occ. eigenvalues --   -1.06064  -1.04204  -1.03493  -1.02773  -1.01806
 Alpha  occ. eigenvalues --   -0.92586  -0.90795  -0.90112  -0.89562  -0.89490
 Alpha  occ. eigenvalues --   -0.88888  -0.87913  -0.87747  -0.87128  -0.86581
 Alpha  occ. eigenvalues --   -0.86094  -0.85467  -0.84762  -0.83377  -0.83217
 Alpha  occ. eigenvalues --   -0.82640  -0.81907  -0.81341  -0.80808  -0.80211
 Alpha  occ. eigenvalues --   -0.79926  -0.78441  -0.78173  -0.77089  -0.76807
 Alpha  occ. eigenvalues --   -0.76239  -0.75783  -0.75556  -0.74947  -0.74526
 Alpha  occ. eigenvalues --   -0.73455  -0.72365  -0.71284  -0.70382  -0.69238
 Alpha  occ. eigenvalues --   -0.68498  -0.68115  -0.67053  -0.66871  -0.65750
 Alpha  occ. eigenvalues --   -0.65424  -0.64649  -0.64170  -0.63940  -0.63876
 Alpha  occ. eigenvalues --   -0.63447  -0.63231  -0.63126  -0.61728  -0.60353
 Alpha  occ. eigenvalues --   -0.60253  -0.59460  -0.59257  -0.58445  -0.57906
 Alpha  occ. eigenvalues --   -0.57391  -0.56792  -0.56192  -0.56144  -0.55846
 Alpha  occ. eigenvalues --   -0.55477  -0.55233  -0.54911  -0.54585  -0.54190
 Alpha  occ. eigenvalues --   -0.53940  -0.53656  -0.53368  -0.53212  -0.52816
 Alpha  occ. eigenvalues --   -0.52695  -0.52431  -0.52353  -0.52311  -0.52158
 Alpha  occ. eigenvalues --   -0.51751  -0.51533  -0.51062  -0.50915  -0.50637
 Alpha  occ. eigenvalues --   -0.50421  -0.50362  -0.50190  -0.49935  -0.49564
 Alpha  occ. eigenvalues --   -0.49540  -0.49397  -0.49149  -0.48888  -0.48669
 Alpha  occ. eigenvalues --   -0.48614  -0.48496  -0.48218  -0.48020  -0.47866
 Alpha  occ. eigenvalues --   -0.47788  -0.47472  -0.47005  -0.46654  -0.46448
 Alpha  occ. eigenvalues --   -0.46416  -0.46008  -0.45904  -0.45657  -0.45524
 Alpha  occ. eigenvalues --   -0.45368  -0.45247  -0.45107  -0.45011  -0.44885
 Alpha  occ. eigenvalues --   -0.44691  -0.44454  -0.44448  -0.44299  -0.43960
 Alpha  occ. eigenvalues --   -0.43887  -0.43778  -0.43462  -0.43275  -0.43117
 Alpha  occ. eigenvalues --   -0.43043  -0.42570  -0.42481  -0.42180  -0.42097
 Alpha  occ. eigenvalues --   -0.41962  -0.41750  -0.41402  -0.41371  -0.41056
 Alpha  occ. eigenvalues --   -0.40913  -0.40618  -0.40596  -0.40480  -0.40401
 Alpha  occ. eigenvalues --   -0.39899  -0.39822  -0.39378  -0.39095  -0.38771
 Alpha  occ. eigenvalues --   -0.38759  -0.38475  -0.38227  -0.37788  -0.37490
 Alpha  occ. eigenvalues --   -0.37178  -0.36898  -0.36788  -0.36660  -0.36614
 Alpha  occ. eigenvalues --   -0.36318  -0.36103  -0.35214  -0.34667  -0.34449
 Alpha  occ. eigenvalues --   -0.34279  -0.33860  -0.32693  -0.31549  -0.30839
 Alpha  occ. eigenvalues --   -0.30656  -0.30624  -0.30171  -0.29409  -0.23316
 Alpha  occ. eigenvalues --   -0.20993
 Alpha virt. eigenvalues --   -0.08411  -0.01630   0.00537   0.01644   0.02601
 Alpha virt. eigenvalues --    0.03300   0.05583   0.05668   0.06176   0.06288
 Alpha virt. eigenvalues --    0.07354   0.08177   0.08449   0.08572   0.09151

 Mulliken charges:
               1
     1  Mg   0.817925
     2  C    0.046778
     3  C   -0.068340
     4  C   -0.027021
     5  C   -0.049561
     6  N   -0.322630
     7  C   -0.019584
     8  C    0.007613
     9  C   -0.066103
    10  C    0.044377
    11  C    0.054147
    12  C    0.037604
    13  C    0.029321
    14  C    0.222479
    15  O   -0.268966
    16  O   -0.373209
    17  N   -0.395191
    18  C    0.167739
    19  C   -0.124761
    20  C   -0.060946
    21  C    0.107443
    22  C    0.080993
    23  C    0.040533
    24  O   -0.168030
    25  C    0.025081
    26  N   -0.198116
    27  C   -0.023835
    28  C    0.001883
    29  C    0.023428
    30  C   -0.046087
    31  C    0.053570
    32  C   -0.010839
    33  C    0.009422
    34  N   -0.342694
    35  C    0.099815
    36  C   -0.161306
    37  C    0.000684
    38  C    0.091067
    39  C    0.125176
    40  C    0.024028
    41  O   -0.154823
    42  C   -0.051542
    43  C    0.198054
    44  O   -0.217095
    45  O   -0.321206
    46  C    0.177673
    47  C    0.289225
    48  C   -0.143951
    49  C   -0.178111
    50  C    0.067937
    51  C    0.160707
    52  C   -0.019086
    53  C    0.070598
    54  C   -0.140813
    55  C    0.020286
    56  C    0.054101
    57  C    0.017130
    58  C    0.059103
    59  C   -0.158170
    60  C    0.053683
    61  C    0.082790
    62  C    0.028545
    63  C   -0.003856
    64  C   -0.144320
    65  C    0.064990
    66  C    0.046704
    67  H   -0.042940
    68  H   -0.010687
    69  H   -0.031921
    70  H    0.014647
    71  H    0.014597
    72  H    0.012859
    73  H    0.033289
    74  H    0.008569
    75  H    0.017296
    76  H    0.024918
    77  H    0.046992
    78  H    0.025918
    79  H    0.025946
    80  H    0.009465
    81  H    0.044337
    82  H    0.022830
    83  H    0.041353
    84  H    0.021622
    85  H    0.020026
    86  H    0.018703
    87  H    0.019215
    88  H    0.012239
    89  H    0.009713
    90  H   -0.000006
    91  H    0.002106
    92  H    0.018466
    93  H    0.021292
    94  H    0.010320
    95  H    0.012774
    96  H    0.032710
    97  H    0.044688
    98  H    0.051588
    99  H    0.040145
   100  H    0.039595
   101  H    0.041002
   102  H    0.036418
   103  H    0.036652
   104  H    0.007043
   105  H    0.008334
   106  H    0.054459
   107  H    0.024985
   108  H    0.008381
   109  H    0.005023
   110  H   -0.020192
   111  H   -0.026766
   112  H   -0.004926
   113  H    0.000597
   114  H   -0.006163
   115  H    0.003592
   116  H    0.012875
   117  H    0.016637
   118  H   -0.017693
   119  H   -0.008468
   120  H   -0.009294
   121  H   -0.021612
   122  H   -0.004140
   123  H   -0.000680
   124  H   -0.003228
   125  H    0.008196
   126  H    0.010043
   127  H   -0.008629
   128  H   -0.008060
   129  H   -0.007248
   130  H   -0.013020
   131  H   -0.000720
   132  H   -0.014001
   133  H   -0.001411
   134  H   -0.006352
   135  H   -0.010933
   136  H    0.004097
   137  H    0.009752
   138  H    0.007466
   139  H    0.009371
   140  H    0.013510
 Sum of Mulliken charges =  -0.00000

 Dipole moment (field-independent basis, Debye):
    X=              4.5540    Y=              1.9607    Z=             -0.4295  Tot=              4.9767
 Quadrupole moment (field-independent basis, Debye-Ang):
   XX=           -364.5598   YY=           -424.3984   ZZ=           -412.2378
   XY=            -14.7446   XZ=              1.3312   YZ=             -4.2302

 Normal termination of Gaussian 16 at Wed May  4 13:13:13 2022.
