 Gaussian 16, Revision A.03,
 Gaussian 16:  ES64L-G16RevA.03 25-Dec-2016

 ---------------------------------
 #p PBE1PBE/Def2SVP td=(nstates=5)
 ---------------------------------

 ------------------------------------------------------
 step_1751_chromophore_12 TDDFT with PBE1PBE functional
 ------------------------------------------------------
 Symbolic Z-matrix:
 Charge =  0 Multiplicity = 1

                         Standard orientation:
 ---------------------------------------------------------------------
 Center     Atomic      Atomic             Coordinates (Angstroms)
 Number     Number       Type             X           Y           Z
 ---------------------------------------------------------------------
      1         12           0       -3.753760    0.391986   -0.346598
      2          6           0       -3.086122   -2.853098    0.574731
      3          6           0       -0.571960    1.226923    0.023021
      4          6           0       -4.716586    3.651377   -0.879988
      5          6           0       -7.325421   -0.324208    0.100550
      6          7           0       -2.045394   -0.710034    0.366660
      7          6           0       -1.921678   -2.076827    0.435184
      8          6           0       -0.445057   -2.486323    0.545651
      9          6           0        0.308269   -1.082323    0.660511
     10          6           0       -0.813817   -0.098440    0.399727
     11          6           0        0.969127   -0.688862    1.979503
     12          6           0       -0.047141   -3.342074   -0.716407
     13          6           0        1.326995   -4.062635   -0.656388
     14          6           0        2.236753   -4.217594   -1.889313
     15          8           0        1.916999   -4.203792   -3.122087
     16          8           0        3.548028   -4.420512   -1.425637
     17          7           0       -2.786131    2.182576   -0.438845
     18          6           0       -1.449449    2.327588   -0.282129
     19          6           0       -1.046373    3.644952   -0.703225
     20          6           0       -2.194553    4.286874   -1.188558
     21          6           0       -3.290684    3.402199   -0.883941
     22          6           0        0.412116    4.098870   -0.772918
     23          6           0       -2.429692    5.676145   -1.846455
     24          8           0       -3.509453    6.138320   -2.109663
     25          6           0       -1.188170    6.474092   -2.123760
     26          7           0       -5.752779    1.574983   -0.254775
     27          6           0       -5.842583    2.826923   -0.674303
     28          6           0       -7.316056    3.305614   -0.893785
     29          6           0       -8.102954    2.114065   -0.475047
     30          6           0       -7.007442    1.037488   -0.257015
     31          6           0       -7.741648    4.609965   -0.144477
     32          6           0       -9.137437    1.563575   -1.491476
     33          6           0       -8.630720    1.023722   -2.815168
     34          7           0       -5.051554   -1.273927    0.145467
     35          6           0       -6.416612   -1.434570    0.344897
     36          6           0       -6.699070   -2.880568    0.765157
     37          6           0       -5.403779   -3.450079    0.733992
     38          6           0       -4.441872   -2.478971    0.398291
     39          6           0       -8.025159   -3.517105    0.885827
     40          6           0       -4.651037   -4.698573    0.839521
     41          8           0       -4.997318   -5.849247    0.998467
     42          6           0       -3.143870   -4.333153    0.814542
     43          6           0       -2.569557   -4.857529    2.089548
     44          8           0       -2.373498   -4.170648    3.065682
     45          8           0       -2.039271   -6.086343    1.949199
     46          6           0       -1.247997   -6.666509    3.047441
     47          6           0        4.578166   -4.404697   -2.497248
     48          6           0        5.909157   -4.370621   -1.779121
     49          6           0        7.039807   -3.863765   -2.239539
     50          6           0        7.189422   -3.228887   -3.647433
     51          6           0        8.195977   -3.776991   -1.241171
     52          6           0        8.904381   -2.391562   -1.221485
     53          6           0        9.003966   -1.684549    0.081921
     54          6           0        9.704219   -0.252360   -0.113559
     55          6           0       11.263523   -0.283227    0.148581
     56          6           0        9.068390    0.820261    0.824200
     57          6           0        8.818119    2.206259    0.216396
     58          6           0        8.066659    3.244366    1.066184
     59          6           0        6.928226    3.978677    0.274081
     60          6           0        7.558357    4.971213   -0.750945
     61          6           0        5.935618    4.557183    1.316357
     62          6           0        4.923897    3.508772    1.751616
     63          6           0        3.429507    3.936221    1.786197
     64          6           0        2.801378    4.148362    3.196089
     65          6           0        1.286130    4.423325    3.162340
     66          6           0        3.567555    5.233634    3.974256
     67          1           0        0.498177    1.435090    0.076937
     68          1           0       -5.075616    4.636142   -1.187177
     69          1           0       -8.403081   -0.462937    0.212137
     70          1           0       -0.287183   -3.106219    1.427444
     71          1           0        1.133074   -0.989920   -0.046246
     72          1           0        0.896638   -1.566092    2.621674
     73          1           0        0.577327    0.160394    2.537955
     74          1           0        2.025846   -0.429321    1.912825
     75          1           0       -0.045467   -2.585017   -1.501213
     76          1           0       -0.750410   -4.151981   -0.908056
     77          1           0        1.146307   -5.032423   -0.191992
     78          1           0        1.842014   -3.448488    0.083592
     79          1           0        0.647485    4.536088   -1.744313
     80          1           0        1.223597    3.419150   -0.512161
     81          1           0        0.581349    4.875613   -0.027390
     82          1           0       -1.372885    7.544793   -2.221316
     83          1           0       -0.802486    6.124309   -3.081877
     84          1           0       -0.378460    6.421240   -1.396582
     85          1           0       -7.516464    3.561623   -1.933621
     86          1           0       -8.595859    2.190885    0.494068
     87          1           0       -6.877528    5.191595    0.178242
     88          1           0       -8.363433    4.477888    0.740812
     89          1           0       -8.278185    5.284029   -0.812678
     90          1           0       -9.868739    2.292044   -1.842648
     91          1           0       -9.714667    0.760487   -1.031326
     92          1           0       -9.010862    0.011469   -2.952536
     93          1           0       -7.545024    1.089024   -2.744829
     94          1           0       -8.994868    1.630655   -3.642996
     95          1           0       -8.788885   -2.908474    0.401185
     96          1           0       -8.242309   -3.510529    1.954014
     97          1           0       -8.048537   -4.537681    0.503581
     98          1           0       -2.660336   -4.790427   -0.048596
     99          1           0       -1.812114   -6.420975    3.947640
    100          1           0       -0.226491   -6.288741    3.084356
    101          1           0       -1.269090   -7.755729    3.039636
    102          1           0        4.450841   -3.502030   -3.095587
    103          1           0        4.399698   -5.329417   -3.045686
    104          1           0        5.829547   -4.664279   -0.732527
    105          1           0        8.148902   -3.374958   -4.141561
    106          1           0        7.011459   -2.155821   -3.575188
    107          1           0        6.582585   -3.832663   -4.321765
    108          1           0        8.938059   -4.479621   -1.620766
    109          1           0        7.824146   -3.908545   -0.224745
    110          1           0        8.606099   -1.752251   -2.051994
    111          1           0        9.927132   -2.447646   -1.593201
    112          1           0        9.653238   -2.131523    0.834572
    113          1           0        8.039760   -1.706720    0.589558
    114          1           0        9.721696    0.191965   -1.109086
    115          1           0       11.612268   -1.041080   -0.553989
    116          1           0       11.511342   -0.591748    1.164012
    117          1           0       11.761825    0.668389   -0.036522
    118          1           0        9.828489    1.021021    1.578958
    119          1           0        8.185649    0.448439    1.345094
    120          1           0        8.480939    2.056110   -0.809152
    121          1           0        9.816262    2.593634    0.009822
    122          1           0        8.735640    4.066594    1.319189
    123          1           0        7.672287    2.827194    1.993234
    124          1           0        6.445573    3.213001   -0.332534
    125          1           0        7.415851    4.763750   -1.812363
    126          1           0        8.614493    5.176226   -0.576277
    127          1           0        6.999603    5.903287   -0.657273
    128          1           0        5.499751    5.494059    0.968675
    129          1           0        6.522671    4.911669    2.163438
    130          1           0        5.090501    3.197984    2.783171
    131          1           0        4.954633    2.581363    1.181377
    132          1           0        2.931126    3.035345    1.425892
    133          1           0        3.202408    4.671225    1.013868
    134          1           0        3.039991    3.216188    3.707059
    135          1           0        0.881128    4.332851    2.155100
    136          1           0        1.006840    5.403788    3.549971
    137          1           0        0.695168    3.746893    3.779714
    138          1           0        4.108859    5.771911    3.196106
    139          1           0        4.232432    4.694111    4.649413
    140          1           0        2.983190    5.937225    4.566609
 ---------------------------------------------------------------------

 SCF Done:  E(RPBE1PBE) =  -3005.35954606     A.U. after   15 cycles

 Excitation energies and oscillator strengths:

 Excited State   1:      Singlet-A      1.8666 eV  664.23 nm  f=0.3692  <S**2>=0.000
     245 -> 248        0.19235
     246 -> 247        0.68726
 This state for optimization and/or second-order correction.
 Total Energy, E(TD-HF/TD-DFT) =  -3005.29095061
 Copying the excited state density for this state as the 1-particle RhoCI density.

 Excited State   2:      Singlet-A      2.1596 eV  574.11 nm  f=0.1117  <S**2>=0.000
     245 -> 247        0.65741
     246 -> 248       -0.25221

 Excited State   3:      Singlet-A      3.0547 eV  405.87 nm  f=0.0003  <S**2>=0.000
     242 -> 247       -0.12748
     243 -> 247        0.62646
     243 -> 249       -0.16375
     244 -> 247        0.21096

 Excited State   4:      Singlet-A      3.0968 eV  400.37 nm  f=0.0008  <S**2>=0.000
     243 -> 247       -0.22196
     244 -> 247        0.65917

 Excited State   5:      Singlet-A      3.2528 eV  381.16 nm  f=0.0328  <S**2>=0.000
     240 -> 247        0.18332
     242 -> 247        0.59081
     246 -> 248        0.28695

 The electronic state is 1-A.
 Alpha  occ. eigenvalues --  -46.93226 -19.25898 -19.25178 -19.20964 -19.19702
 Alpha  occ. eigenvalues --  -19.19221 -19.18943 -14.41629 -14.40990 -14.39062
 Alpha  occ. eigenvalues --  -14.39055 -10.37883 -10.35846 -10.32727 -10.31858
 Alpha  occ. eigenvalues --  -10.29494 -10.29196 -10.29048 -10.28622 -10.28538
 Alpha  occ. eigenvalues --  -10.28479 -10.27976 -10.27917 -10.27559 -10.26977
 Alpha  occ. eigenvalues --  -10.26637 -10.26530 -10.26355 -10.26147 -10.25962
 Alpha  occ. eigenvalues --  -10.25507 -10.25356 -10.25332 -10.25196 -10.25061
 Alpha  occ. eigenvalues --  -10.25021 -10.24972 -10.24630 -10.24543 -10.24408
 Alpha  occ. eigenvalues --  -10.24397 -10.24289 -10.23789 -10.23760 -10.23707
 Alpha  occ. eigenvalues --  -10.23697 -10.23584 -10.23430 -10.23408 -10.23403
 Alpha  occ. eigenvalues --  -10.23116 -10.23066 -10.23042 -10.23013 -10.22914
 Alpha  occ. eigenvalues --  -10.22866 -10.22790 -10.22721 -10.22688 -10.22570
 Alpha  occ. eigenvalues --  -10.22312 -10.22175 -10.22153 -10.22109 -10.21946
 Alpha  occ. eigenvalues --  -10.21746  -3.15136  -1.87952  -1.87506  -1.87368
 Alpha  occ. eigenvalues --   -1.11476  -1.09335  -1.06205  -1.04997  -1.02372
 Alpha  occ. eigenvalues --   -1.00936  -0.98822  -0.98103  -0.97453  -0.96466
 Alpha  occ. eigenvalues --   -0.86954  -0.84943  -0.84204  -0.83779  -0.83762
 Alpha  occ. eigenvalues --   -0.83007  -0.82241  -0.81873  -0.81400  -0.80883
 Alpha  occ. eigenvalues --   -0.80375  -0.79714  -0.78962  -0.77629  -0.77503
 Alpha  occ. eigenvalues --   -0.76837  -0.76149  -0.75517  -0.75066  -0.74548
 Alpha  occ. eigenvalues --   -0.74126  -0.72733  -0.72454  -0.71408  -0.70992
 Alpha  occ. eigenvalues --   -0.70562  -0.69870  -0.69692  -0.69330  -0.68699
 Alpha  occ. eigenvalues --   -0.67776  -0.66815  -0.65669  -0.64725  -0.63577
 Alpha  occ. eigenvalues --   -0.62799  -0.62537  -0.61467  -0.61178  -0.60039
 Alpha  occ. eigenvalues --   -0.59817  -0.59232  -0.58722  -0.58311  -0.58091
 Alpha  occ. eigenvalues --   -0.57716  -0.57629  -0.57304  -0.56341  -0.54791
 Alpha  occ. eigenvalues --   -0.54779  -0.53985  -0.53813  -0.52882  -0.52497
 Alpha  occ. eigenvalues --   -0.51974  -0.51207  -0.50696  -0.50639  -0.50432
 Alpha  occ. eigenvalues --   -0.49967  -0.49798  -0.49424  -0.49003  -0.48620
 Alpha  occ. eigenvalues --   -0.48518  -0.48199  -0.47809  -0.47806  -0.47397
 Alpha  occ. eigenvalues --   -0.47166  -0.46967  -0.46905  -0.46783  -0.46706
 Alpha  occ. eigenvalues --   -0.46356  -0.46078  -0.45566  -0.45493  -0.45226
 Alpha  occ. eigenvalues --   -0.45012  -0.44896  -0.44764  -0.44489  -0.44125
 Alpha  occ. eigenvalues --   -0.44107  -0.44002  -0.43740  -0.43552  -0.43265
 Alpha  occ. eigenvalues --   -0.43207  -0.43100  -0.42840  -0.42721  -0.42482
 Alpha  occ. eigenvalues --   -0.42432  -0.42106  -0.41654  -0.41332  -0.41097
 Alpha  occ. eigenvalues --   -0.41078  -0.40798  -0.40663  -0.40339  -0.40238
 Alpha  occ. eigenvalues --   -0.40059  -0.39961  -0.39813  -0.39741  -0.39664
 Alpha  occ. eigenvalues --   -0.39430  -0.39207  -0.39155  -0.39044  -0.38715
 Alpha  occ. eigenvalues --   -0.38640  -0.38495  -0.38247  -0.38015  -0.37959
 Alpha  occ. eigenvalues --   -0.37824  -0.37374  -0.37356  -0.37014  -0.36951
 Alpha  occ. eigenvalues --   -0.36784  -0.36562  -0.36354  -0.36203  -0.35930
 Alpha  occ. eigenvalues --   -0.35773  -0.35428  -0.35377  -0.35263  -0.35198
 Alpha  occ. eigenvalues --   -0.34810  -0.34608  -0.34217  -0.34002  -0.33679
 Alpha  occ. eigenvalues --   -0.33617  -0.33310  -0.33012  -0.32797  -0.32308
 Alpha  occ. eigenvalues --   -0.32047  -0.31903  -0.31754  -0.31584  -0.31531
 Alpha  occ. eigenvalues --   -0.31228  -0.31138  -0.30081  -0.29626  -0.29584
 Alpha  occ. eigenvalues --   -0.29137  -0.28683  -0.28243  -0.26736  -0.26156
 Alpha  occ. eigenvalues --   -0.25919  -0.25799  -0.25437  -0.25041  -0.20305
 Alpha  occ. eigenvalues --   -0.18613
 Alpha virt. eigenvalues --   -0.10868  -0.05107  -0.03672  -0.02004  -0.01342
 Alpha virt. eigenvalues --   -0.00986   0.01097   0.01211   0.01674   0.02845
 Alpha virt. eigenvalues --    0.03369   0.04431   0.04890   0.05310   0.05448

 Mulliken charges:
               1
     1  Mg   0.959838
     2  C    0.043000
     3  C   -0.063154
     4  C   -0.026258
     5  C   -0.044612
     6  N   -0.422405
     7  C    0.046100
     8  C   -0.066190
     9  C   -0.140675
    10  C    0.076885
    11  C    0.003143
    12  C   -0.009665
    13  C   -0.044981
    14  C    0.280257
    15  O   -0.299640
    16  O   -0.401351
    17  N   -0.509308
    18  C    0.197278
    19  C   -0.160097
    20  C   -0.102569
    21  C    0.138287
    22  C    0.018048
    23  C    0.093099
    24  O   -0.207682
    25  C   -0.047970
    26  N   -0.296896
    27  C    0.013705
    28  C   -0.076088
    29  C   -0.056074
    30  C   -0.009842
    31  C   -0.000138
    32  C   -0.069362
    33  C   -0.063453
    34  N   -0.458474
    35  C    0.124520
    36  C   -0.179548
    37  C   -0.040425
    38  C    0.132419
    39  C    0.069138
    40  C    0.117302
    41  O   -0.201326
    42  C   -0.168006
    43  C    0.292304
    44  O   -0.252067
    45  O   -0.355957
    46  C    0.123828
    47  C    0.250380
    48  C   -0.154777
    49  C   -0.217052
    50  C    0.002134
    51  C    0.088880
    52  C   -0.077737
    53  C    0.015735
    54  C   -0.225769
    55  C   -0.041821
    56  C    0.002408
    57  C   -0.043199
    58  C    0.002051
    59  C   -0.243553
    60  C   -0.003384
    61  C    0.025470
    62  C   -0.030031
    63  C   -0.067465
    64  C   -0.235855
    65  C   -0.000813
    66  C   -0.014941
    67  H   -0.007957
    68  H    0.021615
    69  H    0.000133
    70  H    0.053509
    71  H    0.050168
    72  H    0.040970
    73  H    0.059773
    74  H    0.035353
    75  H    0.049912
    76  H    0.060172
    77  H    0.077756
    78  H    0.059063
    79  H    0.054730
    80  H    0.038956
    81  H    0.070275
    82  H    0.050651
    83  H    0.068917
    84  H    0.048321
    85  H    0.057143
    86  H    0.055928
    87  H    0.046291
    88  H    0.039009
    89  H    0.037132
    90  H    0.034027
    91  H    0.034632
    92  H    0.046069
    93  H    0.052371
    94  H    0.037947
    95  H    0.039910
    96  H    0.061468
    97  H    0.071181
    98  H    0.090247
    99  H    0.061123
   100  H    0.060836
   101  H    0.062560
   102  H    0.062600
   103  H    0.063766
   104  H    0.036488
   105  H    0.036538
   106  H    0.080380
   107  H    0.052591
   108  H    0.043494
   109  H    0.036080
   110  H    0.012872
   111  H    0.007170
   112  H    0.027789
   113  H    0.031735
   114  H    0.031170
   115  H    0.032931
   116  H    0.040214
   117  H    0.044523
   118  H    0.017040
   119  H    0.023268
   120  H    0.021768
   121  H    0.012314
   122  H    0.029562
   123  H    0.031644
   124  H    0.035377
   125  H    0.035306
   126  H    0.036246
   127  H    0.019370
   128  H    0.022368
   129  H    0.025444
   130  H    0.020178
   131  H    0.029991
   132  H    0.022946
   133  H    0.031576
   134  H    0.031415
   135  H    0.024404
   136  H    0.031121
   137  H    0.037289
   138  H    0.038509
   139  H    0.036044
   140  H    0.040688
 Sum of Mulliken charges =  -0.00000

 Dipole moment (field-independent basis, Debye):
    X=              4.5921    Y=              2.0491    Z=             -0.4249  Tot=              5.0465
 Quadrupole moment (field-independent basis, Debye-Ang):
   XX=           -358.6500   YY=           -421.9612   ZZ=           -409.6368
   XY=            -15.2651   XZ=              1.6210   YZ=             -4.4544

 Normal termination of Gaussian 16 at Wed May  4 13:59:47 2022.
