 Gaussian 16, Revision A.03,
 Gaussian 16:  ES64L-G16RevA.03 25-Dec-2016

 --------------------------------
 #p wB97XD/Def2SVP td=(nstates=5)
 --------------------------------

 -----------------------------------------------------
 step_1751_chromophore_12 TDDFT with wB97XD functional
 -----------------------------------------------------
 Symbolic Z-matrix:
 Charge =  0 Multiplicity = 1

                         Standard orientation:
 ---------------------------------------------------------------------
 Center     Atomic      Atomic             Coordinates (Angstroms)
 Number     Number       Type             X           Y           Z
 ---------------------------------------------------------------------
      1         12           0       -3.753760    0.391986   -0.346598
      2          6           0       -3.086122   -2.853098    0.574731
      3          6           0       -0.571960    1.226923    0.023021
      4          6           0       -4.716586    3.651377   -0.879988
      5          6           0       -7.325421   -0.324208    0.100550
      6          7           0       -2.045394   -0.710034    0.366660
      7          6           0       -1.921678   -2.076827    0.435184
      8          6           0       -0.445057   -2.486323    0.545651
      9          6           0        0.308269   -1.082323    0.660511
     10          6           0       -0.813817   -0.098440    0.399727
     11          6           0        0.969127   -0.688862    1.979503
     12          6           0       -0.047141   -3.342074   -0.716407
     13          6           0        1.326995   -4.062635   -0.656388
     14          6           0        2.236753   -4.217594   -1.889313
     15          8           0        1.916999   -4.203792   -3.122087
     16          8           0        3.548028   -4.420512   -1.425637
     17          7           0       -2.786131    2.182576   -0.438845
     18          6           0       -1.449449    2.327588   -0.282129
     19          6           0       -1.046373    3.644952   -0.703225
     20          6           0       -2.194553    4.286874   -1.188558
     21          6           0       -3.290684    3.402199   -0.883941
     22          6           0        0.412116    4.098870   -0.772918
     23          6           0       -2.429692    5.676145   -1.846455
     24          8           0       -3.509453    6.138320   -2.109663
     25          6           0       -1.188170    6.474092   -2.123760
     26          7           0       -5.752779    1.574983   -0.254775
     27          6           0       -5.842583    2.826923   -0.674303
     28          6           0       -7.316056    3.305614   -0.893785
     29          6           0       -8.102954    2.114065   -0.475047
     30          6           0       -7.007442    1.037488   -0.257015
     31          6           0       -7.741648    4.609965   -0.144477
     32          6           0       -9.137437    1.563575   -1.491476
     33          6           0       -8.630720    1.023722   -2.815168
     34          7           0       -5.051554   -1.273927    0.145467
     35          6           0       -6.416612   -1.434570    0.344897
     36          6           0       -6.699070   -2.880568    0.765157
     37          6           0       -5.403779   -3.450079    0.733992
     38          6           0       -4.441872   -2.478971    0.398291
     39          6           0       -8.025159   -3.517105    0.885827
     40          6           0       -4.651037   -4.698573    0.839521
     41          8           0       -4.997318   -5.849247    0.998467
     42          6           0       -3.143870   -4.333153    0.814542
     43          6           0       -2.569557   -4.857529    2.089548
     44          8           0       -2.373498   -4.170648    3.065682
     45          8           0       -2.039271   -6.086343    1.949199
     46          6           0       -1.247997   -6.666509    3.047441
     47          6           0        4.578166   -4.404697   -2.497248
     48          6           0        5.909157   -4.370621   -1.779121
     49          6           0        7.039807   -3.863765   -2.239539
     50          6           0        7.189422   -3.228887   -3.647433
     51          6           0        8.195977   -3.776991   -1.241171
     52          6           0        8.904381   -2.391562   -1.221485
     53          6           0        9.003966   -1.684549    0.081921
     54          6           0        9.704219   -0.252360   -0.113559
     55          6           0       11.263523   -0.283227    0.148581
     56          6           0        9.068390    0.820261    0.824200
     57          6           0        8.818119    2.206259    0.216396
     58          6           0        8.066659    3.244366    1.066184
     59          6           0        6.928226    3.978677    0.274081
     60          6           0        7.558357    4.971213   -0.750945
     61          6           0        5.935618    4.557183    1.316357
     62          6           0        4.923897    3.508772    1.751616
     63          6           0        3.429507    3.936221    1.786197
     64          6           0        2.801378    4.148362    3.196089
     65          6           0        1.286130    4.423325    3.162340
     66          6           0        3.567555    5.233634    3.974256
     67          1           0        0.498177    1.435090    0.076937
     68          1           0       -5.075616    4.636142   -1.187177
     69          1           0       -8.403081   -0.462937    0.212137
     70          1           0       -0.287183   -3.106219    1.427444
     71          1           0        1.133074   -0.989920   -0.046246
     72          1           0        0.896638   -1.566092    2.621674
     73          1           0        0.577327    0.160394    2.537955
     74          1           0        2.025846   -0.429321    1.912825
     75          1           0       -0.045467   -2.585017   -1.501213
     76          1           0       -0.750410   -4.151981   -0.908056
     77          1           0        1.146307   -5.032423   -0.191992
     78          1           0        1.842014   -3.448488    0.083592
     79          1           0        0.647485    4.536088   -1.744313
     80          1           0        1.223597    3.419150   -0.512161
     81          1           0        0.581349    4.875613   -0.027390
     82          1           0       -1.372885    7.544793   -2.221316
     83          1           0       -0.802486    6.124309   -3.081877
     84          1           0       -0.378460    6.421240   -1.396582
     85          1           0       -7.516464    3.561623   -1.933621
     86          1           0       -8.595859    2.190885    0.494068
     87          1           0       -6.877528    5.191595    0.178242
     88          1           0       -8.363433    4.477888    0.740812
     89          1           0       -8.278185    5.284029   -0.812678
     90          1           0       -9.868739    2.292044   -1.842648
     91          1           0       -9.714667    0.760487   -1.031326
     92          1           0       -9.010862    0.011469   -2.952536
     93          1           0       -7.545024    1.089024   -2.744829
     94          1           0       -8.994868    1.630655   -3.642996
     95          1           0       -8.788885   -2.908474    0.401185
     96          1           0       -8.242309   -3.510529    1.954014
     97          1           0       -8.048537   -4.537681    0.503581
     98          1           0       -2.660336   -4.790427   -0.048596
     99          1           0       -1.812114   -6.420975    3.947640
    100          1           0       -0.226491   -6.288741    3.084356
    101          1           0       -1.269090   -7.755729    3.039636
    102          1           0        4.450841   -3.502030   -3.095587
    103          1           0        4.399698   -5.329417   -3.045686
    104          1           0        5.829547   -4.664279   -0.732527
    105          1           0        8.148902   -3.374958   -4.141561
    106          1           0        7.011459   -2.155821   -3.575188
    107          1           0        6.582585   -3.832663   -4.321765
    108          1           0        8.938059   -4.479621   -1.620766
    109          1           0        7.824146   -3.908545   -0.224745
    110          1           0        8.606099   -1.752251   -2.051994
    111          1           0        9.927132   -2.447646   -1.593201
    112          1           0        9.653238   -2.131523    0.834572
    113          1           0        8.039760   -1.706720    0.589558
    114          1           0        9.721696    0.191965   -1.109086
    115          1           0       11.612268   -1.041080   -0.553989
    116          1           0       11.511342   -0.591748    1.164012
    117          1           0       11.761825    0.668389   -0.036522
    118          1           0        9.828489    1.021021    1.578958
    119          1           0        8.185649    0.448439    1.345094
    120          1           0        8.480939    2.056110   -0.809152
    121          1           0        9.816262    2.593634    0.009822
    122          1           0        8.735640    4.066594    1.319189
    123          1           0        7.672287    2.827194    1.993234
    124          1           0        6.445573    3.213001   -0.332534
    125          1           0        7.415851    4.763750   -1.812363
    126          1           0        8.614493    5.176226   -0.576277
    127          1           0        6.999603    5.903287   -0.657273
    128          1           0        5.499751    5.494059    0.968675
    129          1           0        6.522671    4.911669    2.163438
    130          1           0        5.090501    3.197984    2.783171
    131          1           0        4.954633    2.581363    1.181377
    132          1           0        2.931126    3.035345    1.425892
    133          1           0        3.202408    4.671225    1.013868
    134          1           0        3.039991    3.216188    3.707059
    135          1           0        0.881128    4.332851    2.155100
    136          1           0        1.006840    5.403788    3.549971
    137          1           0        0.695168    3.746893    3.779714
    138          1           0        4.108859    5.771911    3.196106
    139          1           0        4.232432    4.694111    4.649413
    140          1           0        2.983190    5.937225    4.566609
 ---------------------------------------------------------------------

 SCF Done:  E(RwB97XD) =  -3007.87072162     A.U. after   20 cycles

 Excitation energies and oscillator strengths:

 Excited State   1:      Singlet-A      1.6407 eV  755.70 nm  f=0.3762  <S**2>=0.000
     245 -> 248       -0.20579
     246 -> 247        0.67861
     245 <- 248       -0.12280
 This state for optimization and/or second-order correction.
 Total Energy, E(TD-HF/TD-DFT) =  -3007.81042861
 Copying the excited state density for this state as the 1-particle RhoCI density.

 Excited State   2:      Singlet-A      2.0905 eV  593.07 nm  f=0.1154  <S**2>=0.000
     245 -> 247        0.64498
     246 -> 248        0.28027
     246 <- 248        0.10104

 Excited State   3:      Singlet-A      3.4379 eV  360.64 nm  f=0.0623  <S**2>=0.000
     244 -> 247        0.63470
     246 -> 248       -0.26136

 Excited State   4:      Singlet-A      3.5152 eV  352.70 nm  f=0.4767  <S**2>=0.000
     242 -> 247        0.12924
     243 -> 247       -0.29474
     244 -> 247        0.22072
     245 -> 247       -0.22325
     246 -> 248        0.53602
     245 <- 247        0.10437

 Excited State   5:      Singlet-A      3.5840 eV  345.94 nm  f=0.0059  <S**2>=0.000
     240 -> 247        0.13735
     242 -> 247        0.45278
     242 -> 249       -0.30914
     242 -> 250       -0.16756
     243 -> 247        0.29342
     243 -> 249       -0.12251

 The electronic state is 1-A.
 Alpha  occ. eigenvalues --  -46.96148 -19.30439 -19.29781 -19.25619 -19.24515
 Alpha  occ. eigenvalues --  -19.23949 -19.23831 -14.46662 -14.46131 -14.43995
 Alpha  occ. eigenvalues --  -14.43989 -10.44659 -10.42694 -10.39558 -10.38760
 Alpha  occ. eigenvalues --  -10.35994 -10.35729 -10.35368 -10.34927 -10.34823
 Alpha  occ. eigenvalues --  -10.34716 -10.34254 -10.34223 -10.33879 -10.33236
 Alpha  occ. eigenvalues --  -10.33144 -10.32870 -10.32587 -10.32572 -10.32392
 Alpha  occ. eigenvalues --  -10.31795 -10.31709 -10.31636 -10.31586 -10.31465
 Alpha  occ. eigenvalues --  -10.31304 -10.31282 -10.31000 -10.30918 -10.30889
 Alpha  occ. eigenvalues --  -10.30744 -10.30656 -10.30140 -10.30133 -10.30070
 Alpha  occ. eigenvalues --  -10.30061 -10.29971 -10.29781 -10.29778 -10.29715
 Alpha  occ. eigenvalues --  -10.29616 -10.29493 -10.29456 -10.29372 -10.29287
 Alpha  occ. eigenvalues --  -10.29212 -10.29175 -10.29096 -10.29057 -10.28996
 Alpha  occ. eigenvalues --  -10.28704 -10.28586 -10.28581 -10.28476 -10.28377
 Alpha  occ. eigenvalues --  -10.28179  -3.21951  -1.95510  -1.95065  -1.94921
 Alpha  occ. eigenvalues --   -1.18892  -1.16722  -1.13672  -1.12537  -1.09756
 Alpha  occ. eigenvalues --   -1.08292  -1.06200  -1.05490  -1.04811  -1.03845
 Alpha  occ. eigenvalues --   -0.94586  -0.92617  -0.91876  -0.91412  -0.91337
 Alpha  occ. eigenvalues --   -0.90676  -0.89838  -0.89540  -0.89054  -0.88502
 Alpha  occ. eigenvalues --   -0.88039  -0.87352  -0.86613  -0.85256  -0.85153
 Alpha  occ. eigenvalues --   -0.84490  -0.83819  -0.83238  -0.82716  -0.82165
 Alpha  occ. eigenvalues --   -0.81788  -0.80384  -0.80096  -0.79014  -0.78670
 Alpha  occ. eigenvalues --   -0.78183  -0.77572  -0.77370  -0.76895  -0.76369
 Alpha  occ. eigenvalues --   -0.75385  -0.74363  -0.73229  -0.72320  -0.71151
 Alpha  occ. eigenvalues --   -0.70402  -0.70109  -0.69014  -0.68796  -0.67625
 Alpha  occ. eigenvalues --   -0.67367  -0.66668  -0.66176  -0.65797  -0.65765
 Alpha  occ. eigenvalues --   -0.65295  -0.65206  -0.64954  -0.63733  -0.62288
 Alpha  occ. eigenvalues --   -0.62240  -0.61427  -0.61249  -0.60400  -0.59911
 Alpha  occ. eigenvalues --   -0.59402  -0.58685  -0.58098  -0.58080  -0.57812
 Alpha  occ. eigenvalues --   -0.57385  -0.57204  -0.56846  -0.56466  -0.56067
 Alpha  occ. eigenvalues --   -0.55903  -0.55591  -0.55228  -0.55164  -0.54744
 Alpha  occ. eigenvalues --   -0.54568  -0.54343  -0.54288  -0.54231  -0.54074
 Alpha  occ. eigenvalues --   -0.53693  -0.53430  -0.52937  -0.52866  -0.52556
 Alpha  occ. eigenvalues --   -0.52353  -0.52258  -0.52126  -0.51833  -0.51512
 Alpha  occ. eigenvalues --   -0.51475  -0.51317  -0.51073  -0.50797  -0.50581
 Alpha  occ. eigenvalues --   -0.50516  -0.50399  -0.50110  -0.49949  -0.49739
 Alpha  occ. eigenvalues --   -0.49698  -0.49356  -0.48943  -0.48604  -0.48380
 Alpha  occ. eigenvalues --   -0.48343  -0.47956  -0.47843  -0.47536  -0.47419
 Alpha  occ. eigenvalues --   -0.47241  -0.47155  -0.46990  -0.46927  -0.46817
 Alpha  occ. eigenvalues --   -0.46592  -0.46370  -0.46328  -0.46238  -0.45848
 Alpha  occ. eigenvalues --   -0.45791  -0.45656  -0.45430  -0.45153  -0.45077
 Alpha  occ. eigenvalues --   -0.45005  -0.44504  -0.44406  -0.44072  -0.44036
 Alpha  occ. eigenvalues --   -0.43870  -0.43654  -0.43355  -0.43246  -0.42964
 Alpha  occ. eigenvalues --   -0.42814  -0.42497  -0.42469  -0.42435  -0.42269
 Alpha  occ. eigenvalues --   -0.41811  -0.41680  -0.41245  -0.40992  -0.40645
 Alpha  occ. eigenvalues --   -0.40624  -0.40311  -0.40072  -0.39721  -0.39342
 Alpha  occ. eigenvalues --   -0.39071  -0.38839  -0.38744  -0.38687  -0.38511
 Alpha  occ. eigenvalues --   -0.38301  -0.38157  -0.37091  -0.36512  -0.36413
 Alpha  occ. eigenvalues --   -0.36223  -0.35801  -0.34949  -0.33557  -0.32984
 Alpha  occ. eigenvalues --   -0.32689  -0.32644  -0.32339  -0.31606  -0.25223
 Alpha  occ. eigenvalues --   -0.22794
 Alpha virt. eigenvalues --   -0.06772   0.00281   0.02610   0.04436   0.05068
 Alpha virt. eigenvalues --    0.05543   0.07894   0.07956   0.08417   0.09421
 Alpha virt. eigenvalues --    0.10102   0.11236   0.11340   0.12099   0.12258

 Mulliken charges:
               1
     1  Mg   0.951776
     2  C    0.037498
     3  C   -0.076639
     4  C   -0.037502
     5  C   -0.059151
     6  N   -0.391123
     7  C    0.016661
     8  C   -0.038612
     9  C   -0.118204
    10  C    0.067038
    11  C    0.010861
    12  C    0.000933
    13  C   -0.027363
    14  C    0.272990
    15  O   -0.297588
    16  O   -0.401536
    17  N   -0.479159
    18  C    0.186956
    19  C   -0.146091
    20  C   -0.098676
    21  C    0.128302
    22  C    0.036620
    23  C    0.089565
    24  O   -0.201490
    25  C   -0.038041
    26  N   -0.262672
    27  C   -0.000182
    28  C   -0.055035
    29  C   -0.028892
    30  C   -0.020249
    31  C    0.009167
    32  C   -0.055488
    33  C   -0.046007
    34  N   -0.424696
    35  C    0.114287
    36  C   -0.173667
    37  C   -0.039019
    38  C    0.118971
    39  C    0.079813
    40  C    0.100821
    41  O   -0.191553
    42  C   -0.125202
    43  C    0.266252
    44  O   -0.245587
    45  O   -0.354395
    46  C    0.139697
    47  C    0.261681
    48  C   -0.162546
    49  C   -0.204931
    50  C    0.013496
    51  C    0.108939
    52  C   -0.058884
    53  C    0.030428
    54  C   -0.198189
    55  C   -0.026891
    56  C    0.017454
    57  C   -0.025825
    58  C    0.018712
    59  C   -0.211325
    60  C    0.007001
    61  C    0.039948
    62  C   -0.013388
    63  C   -0.046166
    64  C   -0.205874
    65  C    0.019583
    66  C   -0.002084
    67  H   -0.019373
    68  H    0.015082
    69  H   -0.007444
    70  H    0.040472
    71  H    0.041009
    72  H    0.034701
    73  H    0.053847
    74  H    0.030249
    75  H    0.041663
    76  H    0.049742
    77  H    0.073169
    78  H    0.050178
    79  H    0.049171
    80  H    0.030486
    81  H    0.061311
    82  H    0.049276
    83  H    0.064379
    84  H    0.042645
    85  H    0.047560
    86  H    0.046195
    87  H    0.039783
    88  H    0.033887
    89  H    0.031983
    90  H    0.026362
    91  H    0.025779
    92  H    0.041355
    93  H    0.040478
    94  H    0.033271
    95  H    0.034418
    96  H    0.056437
    97  H    0.068090
    98  H    0.081457
    99  H    0.056635
   100  H    0.057146
   101  H    0.059311
   102  H    0.056924
   103  H    0.060002
   104  H    0.033717
   105  H    0.031966
   106  H    0.075272
   107  H    0.047350
   108  H    0.036276
   109  H    0.027972
   110  H    0.000686
   111  H   -0.003693
   112  H    0.019019
   113  H    0.023402
   114  H    0.017809
   115  H    0.024912
   116  H    0.033126
   117  H    0.038871
   118  H    0.006230
   119  H    0.014391
   120  H    0.011566
   121  H    0.002110
   122  H    0.019005
   123  H    0.022058
   124  H    0.020980
   125  H    0.030498
   126  H    0.030096
   127  H    0.012677
   128  H    0.013298
   129  H    0.016059
   130  H    0.009207
   131  H    0.022152
   132  H    0.009519
   133  H    0.021118
   134  H    0.020055
   135  H    0.007224
   136  H    0.025202
   137  H    0.032391
   138  H    0.028050
   139  H    0.030437
   140  H    0.035830
 Sum of Mulliken charges =  -0.00000

 Dipole moment (field-independent basis, Debye):
    X=              4.6257    Y=              2.0121    Z=             -0.4501  Tot=              5.0644
 Quadrupole moment (field-independent basis, Debye-Ang):
   XX=           -358.9836   YY=           -420.4606   ZZ=           -409.3028
   XY=            -14.6045   XZ=              1.6274   YZ=             -4.8510

 Normal termination of Gaussian 16 at Wed May  4 14:50:49 2022.
