 Gaussian 16, Revision A.03,
 Gaussian 16:  ES64L-G16RevA.03 25-Dec-2016

 --------------------
 #p ZINDO=(nstates=5)
 --------------------

 ------------------------------
 step_1751_chromophore_12 ZINDO
 ------------------------------
 Symbolic Z-matrix:
 Charge =  0 Multiplicity = 1

                         Standard orientation:
 ---------------------------------------------------------------------
 Center     Atomic      Atomic             Coordinates (Angstroms)
 Number     Number       Type             X           Y           Z
 ---------------------------------------------------------------------
      1         12           0       -3.753760    0.391986   -0.346598
      2          6           0       -3.086122   -2.853098    0.574731
      3          6           0       -0.571960    1.226923    0.023021
      4          6           0       -4.716586    3.651377   -0.879988
      5          6           0       -7.325421   -0.324208    0.100550
      6          7           0       -2.045394   -0.710034    0.366660
      7          6           0       -1.921678   -2.076827    0.435184
      8          6           0       -0.445057   -2.486323    0.545651
      9          6           0        0.308269   -1.082323    0.660511
     10          6           0       -0.813817   -0.098440    0.399727
     11          6           0        0.969127   -0.688862    1.979503
     12          6           0       -0.047141   -3.342074   -0.716407
     13          6           0        1.326995   -4.062635   -0.656388
     14          6           0        2.236753   -4.217594   -1.889313
     15          8           0        1.916999   -4.203792   -3.122087
     16          8           0        3.548028   -4.420512   -1.425637
     17          7           0       -2.786131    2.182576   -0.438845
     18          6           0       -1.449449    2.327588   -0.282129
     19          6           0       -1.046373    3.644952   -0.703225
     20          6           0       -2.194553    4.286874   -1.188558
     21          6           0       -3.290684    3.402199   -0.883941
     22          6           0        0.412116    4.098870   -0.772918
     23          6           0       -2.429692    5.676145   -1.846455
     24          8           0       -3.509453    6.138320   -2.109663
     25          6           0       -1.188170    6.474092   -2.123760
     26          7           0       -5.752779    1.574983   -0.254775
     27          6           0       -5.842583    2.826923   -0.674303
     28          6           0       -7.316056    3.305614   -0.893785
     29          6           0       -8.102954    2.114065   -0.475047
     30          6           0       -7.007442    1.037488   -0.257015
     31          6           0       -7.741648    4.609965   -0.144477
     32          6           0       -9.137437    1.563575   -1.491476
     33          6           0       -8.630720    1.023722   -2.815168
     34          7           0       -5.051554   -1.273927    0.145467
     35          6           0       -6.416612   -1.434570    0.344897
     36          6           0       -6.699070   -2.880568    0.765157
     37          6           0       -5.403779   -3.450079    0.733992
     38          6           0       -4.441872   -2.478971    0.398291
     39          6           0       -8.025159   -3.517105    0.885827
     40          6           0       -4.651037   -4.698573    0.839521
     41          8           0       -4.997318   -5.849247    0.998467
     42          6           0       -3.143870   -4.333153    0.814542
     43          6           0       -2.569557   -4.857529    2.089548
     44          8           0       -2.373498   -4.170648    3.065682
     45          8           0       -2.039271   -6.086343    1.949199
     46          6           0       -1.247997   -6.666509    3.047441
     47          6           0        4.578166   -4.404697   -2.497248
     48          6           0        5.909157   -4.370621   -1.779121
     49          6           0        7.039807   -3.863765   -2.239539
     50          6           0        7.189422   -3.228887   -3.647433
     51          6           0        8.195977   -3.776991   -1.241171
     52          6           0        8.904381   -2.391562   -1.221485
     53          6           0        9.003966   -1.684549    0.081921
     54          6           0        9.704219   -0.252360   -0.113559
     55          6           0       11.263523   -0.283227    0.148581
     56          6           0        9.068390    0.820261    0.824200
     57          6           0        8.818119    2.206259    0.216396
     58          6           0        8.066659    3.244366    1.066184
     59          6           0        6.928226    3.978677    0.274081
     60          6           0        7.558357    4.971213   -0.750945
     61          6           0        5.935618    4.557183    1.316357
     62          6           0        4.923897    3.508772    1.751616
     63          6           0        3.429507    3.936221    1.786197
     64          6           0        2.801378    4.148362    3.196089
     65          6           0        1.286130    4.423325    3.162340
     66          6           0        3.567555    5.233634    3.974256
     67          1           0        0.498177    1.435090    0.076937
     68          1           0       -5.075616    4.636142   -1.187177
     69          1           0       -8.403081   -0.462937    0.212137
     70          1           0       -0.287183   -3.106219    1.427444
     71          1           0        1.133074   -0.989920   -0.046246
     72          1           0        0.896638   -1.566092    2.621674
     73          1           0        0.577327    0.160394    2.537955
     74          1           0        2.025846   -0.429321    1.912825
     75          1           0       -0.045467   -2.585017   -1.501213
     76          1           0       -0.750410   -4.151981   -0.908056
     77          1           0        1.146307   -5.032423   -0.191992
     78          1           0        1.842014   -3.448488    0.083592
     79          1           0        0.647485    4.536088   -1.744313
     80          1           0        1.223597    3.419150   -0.512161
     81          1           0        0.581349    4.875613   -0.027390
     82          1           0       -1.372885    7.544793   -2.221316
     83          1           0       -0.802486    6.124309   -3.081877
     84          1           0       -0.378460    6.421240   -1.396582
     85          1           0       -7.516464    3.561623   -1.933621
     86          1           0       -8.595859    2.190885    0.494068
     87          1           0       -6.877528    5.191595    0.178242
     88          1           0       -8.363433    4.477888    0.740812
     89          1           0       -8.278185    5.284029   -0.812678
     90          1           0       -9.868739    2.292044   -1.842648
     91          1           0       -9.714667    0.760487   -1.031326
     92          1           0       -9.010862    0.011469   -2.952536
     93          1           0       -7.545024    1.089024   -2.744829
     94          1           0       -8.994868    1.630655   -3.642996
     95          1           0       -8.788885   -2.908474    0.401185
     96          1           0       -8.242309   -3.510529    1.954014
     97          1           0       -8.048537   -4.537681    0.503581
     98          1           0       -2.660336   -4.790427   -0.048596
     99          1           0       -1.812114   -6.420975    3.947640
    100          1           0       -0.226491   -6.288741    3.084356
    101          1           0       -1.269090   -7.755729    3.039636
    102          1           0        4.450841   -3.502030   -3.095587
    103          1           0        4.399698   -5.329417   -3.045686
    104          1           0        5.829547   -4.664279   -0.732527
    105          1           0        8.148902   -3.374958   -4.141561
    106          1           0        7.011459   -2.155821   -3.575188
    107          1           0        6.582585   -3.832663   -4.321765
    108          1           0        8.938059   -4.479621   -1.620766
    109          1           0        7.824146   -3.908545   -0.224745
    110          1           0        8.606099   -1.752251   -2.051994
    111          1           0        9.927132   -2.447646   -1.593201
    112          1           0        9.653238   -2.131523    0.834572
    113          1           0        8.039760   -1.706720    0.589558
    114          1           0        9.721696    0.191965   -1.109086
    115          1           0       11.612268   -1.041080   -0.553989
    116          1           0       11.511342   -0.591748    1.164012
    117          1           0       11.761825    0.668389   -0.036522
    118          1           0        9.828489    1.021021    1.578958
    119          1           0        8.185649    0.448439    1.345094
    120          1           0        8.480939    2.056110   -0.809152
    121          1           0        9.816262    2.593634    0.009822
    122          1           0        8.735640    4.066594    1.319189
    123          1           0        7.672287    2.827194    1.993234
    124          1           0        6.445573    3.213001   -0.332534
    125          1           0        7.415851    4.763750   -1.812363
    126          1           0        8.614493    5.176226   -0.576277
    127          1           0        6.999603    5.903287   -0.657273
    128          1           0        5.499751    5.494059    0.968675
    129          1           0        6.522671    4.911669    2.163438
    130          1           0        5.090501    3.197984    2.783171
    131          1           0        4.954633    2.581363    1.181377
    132          1           0        2.931126    3.035345    1.425892
    133          1           0        3.202408    4.671225    1.013868
    134          1           0        3.039991    3.216188    3.707059
    135          1           0        0.881128    4.332851    2.155100
    136          1           0        1.006840    5.403788    3.549971
    137          1           0        0.695168    3.746893    3.779714
    138          1           0        4.108859    5.771911    3.196106
    139          1           0        4.232432    4.694111    4.649413
    140          1           0        2.983190    5.937225    4.566609
 ---------------------------------------------------------------------

 SCF Done:  E(RZINDO/S) =  -474.145296029     A.U. after   19 cycles

 Excitation energies and oscillator strengths:

 Excited State   1:      Singlet-A      1.2423 eV  998.00 nm  f=0.5815  <S**2>=0.000
     175 ->178         0.21066
     176 ->177         0.65735
 This state for optimization and/or second-order correction.
 Total Energy, E(CIS/TDA) =  -474.099641536
 Copying the excited state density for this state as the 1-particle RhoCI density.

 Excited State   2:      Singlet-A      1.8513 eV  669.70 nm  f=0.0558  <S**2>=0.000
     175 ->177         0.56179
     176 ->178        -0.40443

 Excited State   3:      Singlet-A      2.9844 eV  415.44 nm  f=0.0119  <S**2>=0.000
     168 ->177         0.22328
     168 ->179        -0.30227
     168 ->186        -0.14122
     169 ->177         0.23538
     169 ->179        -0.31298
     169 ->186        -0.14577
     176 ->179         0.10273

 Excited State   4:      Singlet-A      3.0073 eV  412.28 nm  f=1.1319  <S**2>=0.000
     172 ->177        -0.11026
     175 ->177         0.36187
     176 ->178         0.53489
     176 ->179         0.15354

 Excited State   5:      Singlet-A      3.0640 eV  404.65 nm  f=0.1297  <S**2>=0.000
     175 ->177        -0.10966
     176 ->178        -0.11300
     176 ->179         0.58656
     176 ->181         0.23762

 The electronic state is 1-A.
 Alpha  occ. eigenvalues --   -1.82334  -1.80805  -1.79448  -1.73564  -1.71145
 Alpha  occ. eigenvalues --   -1.69655  -1.64631  -1.60940  -1.59412  -1.59240
 Alpha  occ. eigenvalues --   -1.55739  -1.51345  -1.49450  -1.48658  -1.47215
 Alpha  occ. eigenvalues --   -1.43480  -1.42518  -1.39002  -1.38719  -1.38427
 Alpha  occ. eigenvalues --   -1.36880  -1.33700  -1.32911  -1.31441  -1.27942
 Alpha  occ. eigenvalues --   -1.26794  -1.23682  -1.21747  -1.20558  -1.18139
 Alpha  occ. eigenvalues --   -1.17200  -1.16333  -1.16215  -1.14906  -1.14535
 Alpha  occ. eigenvalues --   -1.12468  -1.11205  -1.10725  -1.04904  -1.04061
 Alpha  occ. eigenvalues --   -1.03444  -1.01190  -0.98755  -0.98024  -0.96107
 Alpha  occ. eigenvalues --   -0.94847  -0.94021  -0.93099  -0.92771  -0.92109
 Alpha  occ. eigenvalues --   -0.90002  -0.89135  -0.88256  -0.87860  -0.87125
 Alpha  occ. eigenvalues --   -0.85044  -0.84566  -0.83839  -0.82154  -0.81574
 Alpha  occ. eigenvalues --   -0.79521  -0.78709  -0.77322  -0.77007  -0.76439
 Alpha  occ. eigenvalues --   -0.75731  -0.75473  -0.75130  -0.74703  -0.73706
 Alpha  occ. eigenvalues --   -0.73357  -0.72791  -0.72606  -0.71644  -0.70682
 Alpha  occ. eigenvalues --   -0.70492  -0.69983  -0.69350  -0.68900  -0.68385
 Alpha  occ. eigenvalues --   -0.67891  -0.67403  -0.66768  -0.65974  -0.65507
 Alpha  occ. eigenvalues --   -0.64979  -0.64445  -0.64143  -0.64082  -0.63958
 Alpha  occ. eigenvalues --   -0.63458  -0.62818  -0.62755  -0.62531  -0.61675
 Alpha  occ. eigenvalues --   -0.61540  -0.61181  -0.60673  -0.60340  -0.59803
 Alpha  occ. eigenvalues --   -0.59718  -0.59198  -0.58271  -0.58183  -0.57847
 Alpha  occ. eigenvalues --   -0.57650  -0.57555  -0.57180  -0.57120  -0.56775
 Alpha  occ. eigenvalues --   -0.56245  -0.55357  -0.55189  -0.54610  -0.54455
 Alpha  occ. eigenvalues --   -0.54374  -0.53779  -0.53630  -0.53228  -0.52736
 Alpha  occ. eigenvalues --   -0.52105  -0.51980  -0.51871  -0.51405  -0.51082
 Alpha  occ. eigenvalues --   -0.50838  -0.50465  -0.50358  -0.50168  -0.49718
 Alpha  occ. eigenvalues --   -0.49473  -0.49336  -0.49186  -0.49113  -0.48898
 Alpha  occ. eigenvalues --   -0.48553  -0.48490  -0.48324  -0.48189  -0.47866
 Alpha  occ. eigenvalues --   -0.47650  -0.47467  -0.47102  -0.46911  -0.46870
 Alpha  occ. eigenvalues --   -0.46449  -0.46345  -0.46137  -0.45795  -0.45621
 Alpha  occ. eigenvalues --   -0.45394  -0.45198  -0.44677  -0.44528  -0.44252
 Alpha  occ. eigenvalues --   -0.43949  -0.43481  -0.43094  -0.42796  -0.42518
 Alpha  occ. eigenvalues --   -0.42243  -0.42062  -0.41817  -0.39831  -0.38551
 Alpha  occ. eigenvalues --   -0.37947  -0.37617  -0.35381  -0.35232  -0.34451
 Alpha  occ. eigenvalues --   -0.33226  -0.33136  -0.32489  -0.31957  -0.26019
 Alpha  occ. eigenvalues --   -0.21621
 Alpha virt. eigenvalues --   -0.08347  -0.02012  -0.00463   0.00376   0.01313
 Alpha virt. eigenvalues --    0.01614   0.02624   0.02894   0.04687   0.04885
 Alpha virt. eigenvalues --    0.06404   0.07027   0.07338   0.07534   0.07776

 Mulliken charges:
               1
     1  Mg   0.439043
     2  C   -0.045659
     3  C   -0.085968
     4  C   -0.065558
     5  C   -0.078301
     6  N   -0.287744
     7  C    0.130190
     8  C    0.010183
     9  C    0.010094
    10  C    0.124271
    11  C   -0.048796
    12  C   -0.027301
    13  C    0.003405
    14  C    0.464396
    15  O   -0.520755
    16  O   -0.278996
    17  N   -0.317923
    18  C    0.106031
    19  C    0.002364
    20  C   -0.043575
    21  C    0.117772
    22  C   -0.048789
    23  C    0.337503
    24  O   -0.505899
    25  C   -0.034729
    26  N   -0.260106
    27  C    0.128766
    28  C    0.016010
    29  C    0.017328
    30  C    0.125200
    31  C   -0.056372
    32  C   -0.034106
    33  C   -0.057381
    34  N   -0.331767
    35  C    0.097629
    36  C    0.040984
    37  C   -0.045955
    38  C    0.115132
    39  C   -0.026999
    40  C    0.336267
    41  O   -0.517277
    42  C    0.055101
    43  C    0.497642
    44  O   -0.529808
    45  O   -0.266622
    46  C    0.075214
    47  C    0.102666
    48  C   -0.086067
    49  C   -0.012391
    50  C   -0.046357
    51  C   -0.024459
    52  C   -0.039049
    53  C   -0.022874
    54  C   -0.024729
    55  C   -0.059569
    56  C   -0.039816
    57  C   -0.037282
    58  C   -0.031350
    59  C   -0.013407
    60  C   -0.062440
    61  C   -0.023355
    62  C   -0.033653
    63  C   -0.038551
    64  C   -0.004171
    65  C   -0.056374
    66  C   -0.060117
    67  H    0.016972
    68  H    0.036361
    69  H    0.027819
    70  H    0.038973
    71  H    0.030813
    72  H    0.016507
    73  H    0.028772
    74  H    0.014925
    75  H    0.032044
    76  H    0.028977
    77  H    0.049240
    78  H    0.033663
    79  H    0.025226
    80  H    0.025919
    81  H    0.023714
    82  H    0.030090
    83  H    0.039439
    84  H    0.031437
    85  H    0.037151
    86  H    0.034469
    87  H    0.023107
    88  H    0.021498
    89  H    0.017410
    90  H    0.013142
    91  H    0.014106
    92  H    0.021881
    93  H    0.026488
    94  H    0.018407
    95  H    0.024950
    96  H    0.037788
    97  H    0.041085
    98  H    0.054763
    99  H    0.044479
   100  H    0.044517
   101  H    0.037821
   102  H    0.053765
   103  H    0.056099
   104  H    0.032933
   105  H    0.019809
   106  H    0.041701
   107  H    0.025275
   108  H    0.033001
   109  H    0.032634
   110  H    0.023409
   111  H    0.007794
   112  H    0.019811
   113  H    0.021577
   114  H    0.025914
   115  H    0.011338
   116  H    0.019042
   117  H    0.022387
   118  H    0.011179
   119  H    0.017644
   120  H    0.018569
   121  H    0.007325
   122  H    0.018651
   123  H    0.021323
   124  H    0.017882
   125  H    0.019918
   126  H    0.023789
   127  H    0.009169
   128  H    0.017894
   129  H    0.015569
   130  H    0.015540
   131  H    0.020306
   132  H   -0.002436
   133  H    0.024699
   134  H    0.019664
   135  H    0.017543
   136  H    0.018506
   137  H    0.016409
   138  H    0.020797
   139  H    0.016528
   140  H    0.022290
 Sum of Mulliken charges =  -0.00000

 Dipole moment (field-independent basis, Debye):
    X=              5.5998    Y=              1.5921    Z=             -0.5393  Tot=              5.8467
 N-N= 4.535383706478D+03 E-N= 0.000000000000D+00  KE=-9.744854268005D+03
 Leave Link  601 at Wed May  4 15:21:17 2022, MaxMem=  6710886400 cpu:               0.7 elap:               0.0
 (Enter /sw/apps/gaussian-16.0/g16/l9999.exe)
 1\1\GINC-BP1-COMPUTE141\SP\RZINDO CIS\STO-3G\C55H74Mg1N4O6\OF15641\04-
 May-2022\0\\#p ZINDO=(nstates=5)\\step_1751_chromophore_12 ZINDO\\0,1\
 Mg,0,47.907,15.895,28.879\C,0,45.579,15.482,31.376\C,0,49.492,18.206,3
 0.641\C,0,49.86,16.441,26.1\C,0,45.683,14.025,26.637\N,0,47.463,16.825
 ,30.771\C,0,46.632,16.336,31.75\C,0,46.921,17.012,33.099\C,0,48.016,18
 .112,32.721\C,0,48.327,17.767,31.279\C,0,47.644,19.592,32.771\C,0,47.4
 12,15.926,34.13\C,0,47.502,16.374,35.614\C,0,48.615,15.888,36.561\O,0,

 Normal termination of Gaussian 16 at Wed May  4 15:21:17 2022.
