 Gaussian 16, Revision A.03,
 Gaussian 16:  ES64L-G16RevA.03 25-Dec-2016

 ------------------------------
 #p blyp/Def2SVP td=(nstates=5)
 ------------------------------

 --------------------------------------------------
 step_101_chromophore_25 TDDFT with blyp functional
 --------------------------------------------------
 Symbolic Z-matrix:
 Charge =  0 Multiplicity = 1

                         Standard orientation:
 ---------------------------------------------------------------------
 Center     Atomic      Atomic             Coordinates (Angstroms)
 Number     Number       Type             X           Y           Z
 ---------------------------------------------------------------------
      1         12           0        5.810473    0.300318    0.137585
      2          6           0        3.419454   -2.128347    0.227865
      3          6           0        3.413449    2.701629   -0.483590
      4          6           0        8.312641    2.607253   -0.062668
      5          6           0        8.217172   -2.106517    0.779372
      6          7           0        3.682667    0.272062   -0.144666
      7          6           0        2.888566   -0.842538    0.071046
      8          6           0        1.407005   -0.522577   -0.145305
      9          6           0        1.421716    1.002084   -0.652148
     10          6           0        2.867739    1.387330   -0.311800
     11          6           0        1.100233    1.208417   -2.166707
     12          6           0        0.409763   -0.850203    0.981371
     13          6           0       -0.791864   -1.816361    0.745560
     14          6           0       -2.154548   -1.483690    1.424152
     15          8           0       -2.373137   -1.600826    2.629300
     16          8           0       -3.138143   -1.314517    0.410272
     17          7           0        5.901056    2.294707   -0.257322
     18          6           0        4.832748    3.088445   -0.441157
     19          6           0        5.311925    4.441434   -0.613555
     20          6           0        6.703958    4.453698   -0.669019
     21          6           0        7.038835    3.047880   -0.308405
     22          6           0        4.369786    5.546950   -0.720822
     23          6           0        7.744688    5.523884   -1.123745
     24          8           0        8.942873    5.394030   -1.138667
     25          6           0        7.225048    6.748564   -1.677434
     26          7           0        7.985372    0.213935    0.122790
     27          6           0        8.767600    1.346791    0.124505
     28          6           0       10.242660    1.050559    0.331928
     29          6           0       10.218337   -0.464684    0.674357
     30          6           0        8.717460   -0.858070    0.512581
     31          6           0       11.116664    1.404415   -0.928972
     32          6           0       11.029496   -0.744331    1.958331
     33          6           0       10.197220   -0.471343    3.204165
     34          7           0        5.867828   -1.707608    0.225969
     35          6           0        6.900501   -2.603348    0.604270
     36          6           0        6.442658   -3.975567    0.715072
     37          6           0        5.062526   -3.827786    0.419672
     38          6           0        4.750155   -2.455952    0.361037
     39          6           0        7.209303   -5.254651    0.787331
     40          6           0        3.885255   -4.596627    0.321796
     41          8           0        3.652677   -5.812866    0.375783
     42          6           0        2.703057   -3.501022    0.185566
     43          6           0        1.987766   -3.685779   -1.092761
     44          8           0        2.376559   -3.190267   -2.157508
     45          8           0        0.812589   -4.342403   -0.897536
     46          6           0       -0.121962   -4.412844   -2.085388
     47          6           0       -4.522661   -1.252075    0.788595
     48          6           0       -5.294602   -1.051094   -0.513473
     49          6           0       -6.037080    0.037168   -0.873217
     50          6           0       -5.982224    1.346430   -0.047184
     51          6           0       -6.844228   -0.011454   -2.140644
     52          6           0       -8.092301   -0.838749   -2.056047
     53          6           0       -9.413583   -0.059352   -2.331355
     54          6           0      -10.602046   -0.993614   -2.691566
     55          6           0      -10.509014   -1.382552   -4.141193
     56          6           0      -12.029465   -0.383432   -2.410495
     57          6           0      -12.517896   -0.491161   -0.979518
     58          6           0      -13.010297    0.830880   -0.437647
     59          6           0      -13.899768    0.708062    0.823434
     60          6           0      -15.336261    0.632137    0.407221
     61          6           0      -13.692590    1.895002    1.788827
     62          6           0      -12.636861    1.627603    2.888653
     63          6           0      -11.394388    2.528959    2.718682
     64          6           0      -10.158370    1.843891    3.317048
     65          6           0       -9.014947    2.909737    3.420451
     66          6           0       -9.540299    0.687064    2.454669
     67          1           0        2.652994    3.435361   -0.759609
     68          1           0        9.060520    3.309561    0.308889
     69          1           0        9.008637   -2.796751    1.077960
     70          1           0        1.086012   -1.102745   -1.010536
     71          1           0        0.707759    1.519611   -0.012413
     72          1           0        1.862360    1.749553   -2.728181
     73          1           0        0.144371    1.728568   -2.111613
     74          1           0        0.797503    0.286576   -2.661670
     75          1           0       -0.129702   -0.000125    1.399512
     76          1           0        1.117778   -1.242741    1.710945
     77          1           0       -0.362340   -2.696325    1.225356
     78          1           0       -0.846182   -2.138004   -0.294197
     79          1           0        4.599810    6.061396   -1.654154
     80          1           0        4.544783    6.351779   -0.007030
     81          1           0        3.302693    5.327164   -0.751530
     82          1           0        6.810992    7.336144   -0.858431
     83          1           0        6.455548    6.532298   -2.417422
     84          1           0        8.018540    7.344233   -2.128697
     85          1           0       10.486099    1.615470    1.232678
     86          1           0       10.746899   -0.937943   -0.153355
     87          1           0       10.468631    1.644927   -1.771685
     88          1           0       11.783925    0.580371   -1.181812
     89          1           0       11.684241    2.289222   -0.641028
     90          1           0       11.977547   -0.209417    2.000263
     91          1           0       11.285906   -1.803602    1.942294
     92          1           0       10.396735   -1.188489    4.000750
     93          1           0        9.113874   -0.373530    3.129961
     94          1           0       10.540775    0.452003    3.669597
     95          1           0        6.650252   -5.860871    1.501073
     96          1           0        8.231514   -5.076210    1.121298
     97          1           0        7.145212   -5.629669   -0.234050
     98          1           0        2.097701   -3.742025    1.059221
     99          1           0       -0.509534   -3.401432   -2.209230
    100          1           0       -0.830341   -5.230882   -1.953725
    101          1           0        0.419949   -4.602932   -3.011737
    102          1           0       -4.580530   -0.326370    1.361152
    103          1           0       -4.823056   -2.121273    1.374055
    104          1           0       -5.340737   -1.863051   -1.239453
    105          1           0       -5.919593    2.198190   -0.723937
    106          1           0       -5.003817    1.410140    0.430296
    107          1           0       -6.810217    1.426288    0.657320
    108          1           0       -6.279884   -0.620845   -2.846250
    109          1           0       -6.937714    1.007693   -2.516168
    110          1           0       -8.345403   -1.230724   -1.070187
    111          1           0       -7.974975   -1.726442   -2.676602
    112          1           0       -9.256737    0.787126   -2.999462
    113          1           0       -9.663220    0.382104   -1.365983
    114          1           0      -10.371036   -1.887976   -2.112110
    115          1           0      -11.336156   -0.941234   -4.697859
    116          1           0      -10.568972   -2.468779   -4.203259
    117          1           0       -9.613155   -0.936158   -4.573242
    118          1           0      -12.718036   -1.010247   -2.977850
    119          1           0      -12.091469    0.591651   -2.893672
    120          1           0      -11.625460   -0.739331   -0.405095
    121          1           0      -13.248084   -1.293644   -0.876094
    122          1           0      -13.539019    1.431011   -1.178730
    123          1           0      -12.152632    1.500989   -0.375278
    124          1           0      -13.657217   -0.244338    1.295469
    125          1           0      -15.776331    1.623365    0.516709
    126          1           0      -16.098619    0.077329    0.952914
    127          1           0      -15.286340    0.289441   -0.625834
    128          1           0      -14.627513    2.191121    2.262795
    129          1           0      -13.541137    2.804282    1.207322
    130          1           0      -12.369778    0.572737    2.952037
    131          1           0      -13.148639    1.924644    3.803899
    132          1           0      -11.661458    3.496350    3.142855
    133          1           0      -11.231291    2.744792    1.662671
    134          1           0      -10.418608    1.374026    4.265301
    135          1           0       -9.169237    3.721556    2.709364
    136          1           0       -8.042648    2.475943    3.190556
    137          1           0       -8.928905    3.129692    4.484727
    138          1           0       -8.869846    0.011341    2.984527
    139          1           0       -9.072655    1.230085    1.633147
    140          1           0      -10.301560    0.054005    2.000248
 ---------------------------------------------------------------------

 SCF Done:  E(RB-LYP) =  -3007.36493359     A.U. after   21 cycles

 Excitation energies and oscillator strengths:

 Excited State   1:      Singlet-A      1.7905 eV  692.47 nm  f=0.2920  <S**2>=0.000
     245 -> 248       -0.19077
     246 -> 247        0.68815
     246 <- 247       -0.15419
 This state for optimization and/or second-order correction.
 Total Energy, E(TD-HF/TD-DFT) =  -3007.29913556
 Copying the excited state density for this state as the 1-particle RhoCI density.

 Excited State   2:      Singlet-A      1.9365 eV  640.24 nm  f=0.0403  <S**2>=0.000
     243 -> 247       -0.25818
     244 -> 247        0.49722
     245 -> 247        0.40758
     246 -> 248        0.11051

 Excited State   3:      Singlet-A      1.9575 eV  633.37 nm  f=0.0292  <S**2>=0.000
     243 -> 247        0.30515
     244 -> 247        0.49981
     245 -> 247       -0.37075
     246 -> 248       -0.11491

 Excited State   4:      Singlet-A      2.1171 eV  585.62 nm  f=0.0339  <S**2>=0.000
     243 -> 247        0.57502
     245 -> 247        0.34947
     246 -> 248        0.19237

 Excited State   5:      Singlet-A      2.4067 eV  515.16 nm  f=0.0001  <S**2>=0.000
     242 -> 247        0.70244

 The electronic state is 1-A.
 Alpha  occ. eigenvalues --  -46.25767 -18.82373 -18.81435 -18.77714 -18.76162
 Alpha  occ. eigenvalues --  -18.75772 -18.75580 -14.03406 -14.02494 -14.01253
 Alpha  occ. eigenvalues --  -14.00705 -10.04723 -10.03573  -9.99942  -9.99204
 Alpha  occ. eigenvalues --   -9.98237  -9.97780  -9.96780  -9.96657  -9.95949
 Alpha  occ. eigenvalues --   -9.95908  -9.95737  -9.95411  -9.95257  -9.94360
 Alpha  occ. eigenvalues --   -9.94152  -9.93826  -9.93773  -9.93620  -9.93518
 Alpha  occ. eigenvalues --   -9.93498  -9.93360  -9.93332  -9.93146  -9.93116
 Alpha  occ. eigenvalues --   -9.93114  -9.93041  -9.92846  -9.92689  -9.92634
 Alpha  occ. eigenvalues --   -9.92513  -9.92463  -9.92443  -9.92288  -9.92232
 Alpha  occ. eigenvalues --   -9.92152  -9.92054  -9.91854  -9.91822  -9.91795
 Alpha  occ. eigenvalues --   -9.91663  -9.91502  -9.91450  -9.91366  -9.91222
 Alpha  occ. eigenvalues --   -9.91220  -9.91170  -9.91134  -9.91091  -9.90902
 Alpha  occ. eigenvalues --   -9.90852  -9.90823  -9.90806  -9.90710  -9.90491
 Alpha  occ. eigenvalues --   -9.90288  -2.90652  -1.71078  -1.70510  -1.70387
 Alpha  occ. eigenvalues --   -0.96988  -0.96417  -0.92807  -0.90166  -0.90053
 Alpha  occ. eigenvalues --   -0.88878  -0.86452  -0.85762  -0.85160  -0.84384
 Alpha  occ. eigenvalues --   -0.75010  -0.74123  -0.73418  -0.72358  -0.72262
 Alpha  occ. eigenvalues --   -0.72151  -0.71996  -0.71260  -0.71107  -0.70853
 Alpha  occ. eigenvalues --   -0.69948  -0.68966  -0.68361  -0.67312  -0.67180
 Alpha  occ. eigenvalues --   -0.66668  -0.66548  -0.65635  -0.65300  -0.64708
 Alpha  occ. eigenvalues --   -0.64324  -0.62767  -0.62180  -0.61383  -0.61140
 Alpha  occ. eigenvalues --   -0.60607  -0.59864  -0.59789  -0.59274  -0.59133
 Alpha  occ. eigenvalues --   -0.58224  -0.57809  -0.56727  -0.55274  -0.55141
 Alpha  occ. eigenvalues --   -0.53931  -0.53541  -0.52562  -0.52425  -0.51274
 Alpha  occ. eigenvalues --   -0.51078  -0.50937  -0.50678  -0.50412  -0.50021
 Alpha  occ. eigenvalues --   -0.49556  -0.49298  -0.49070  -0.48152  -0.46401
 Alpha  occ. eigenvalues --   -0.46209  -0.46028  -0.45580  -0.44644  -0.44387
 Alpha  occ. eigenvalues --   -0.43935  -0.43869  -0.43494  -0.42938  -0.42283
 Alpha  occ. eigenvalues --   -0.42154  -0.41935  -0.41885  -0.41365  -0.41306
 Alpha  occ. eigenvalues --   -0.40882  -0.40841  -0.40526  -0.40287  -0.39959
 Alpha  occ. eigenvalues --   -0.39793  -0.39553  -0.39380  -0.39341  -0.39224
 Alpha  occ. eigenvalues --   -0.38927  -0.38846  -0.38687  -0.38327  -0.38289
 Alpha  occ. eigenvalues --   -0.38225  -0.37839  -0.37673  -0.37433  -0.37316
 Alpha  occ. eigenvalues --   -0.37199  -0.37010  -0.36840  -0.36806  -0.36459
 Alpha  occ. eigenvalues --   -0.36332  -0.36184  -0.35752  -0.35677  -0.35528
 Alpha  occ. eigenvalues --   -0.35397  -0.35290  -0.35065  -0.34959  -0.34799
 Alpha  occ. eigenvalues --   -0.34733  -0.34465  -0.34276  -0.34233  -0.34133
 Alpha  occ. eigenvalues --   -0.33846  -0.33733  -0.33590  -0.33388  -0.33146
 Alpha  occ. eigenvalues --   -0.32794  -0.32447  -0.32262  -0.32213  -0.32087
 Alpha  occ. eigenvalues --   -0.31892  -0.31718  -0.31645  -0.31548  -0.31268
 Alpha  occ. eigenvalues --   -0.31195  -0.31073  -0.31011  -0.30882  -0.30822
 Alpha  occ. eigenvalues --   -0.30631  -0.30475  -0.30062  -0.30035  -0.29851
 Alpha  occ. eigenvalues --   -0.29588  -0.29473  -0.29342  -0.29110  -0.28744
 Alpha  occ. eigenvalues --   -0.28509  -0.28490  -0.28267  -0.27991  -0.27882
 Alpha  occ. eigenvalues --   -0.27374  -0.27009  -0.26879  -0.26688  -0.26548
 Alpha  occ. eigenvalues --   -0.26428  -0.26305  -0.25842  -0.25386  -0.25343
 Alpha  occ. eigenvalues --   -0.25045  -0.24636  -0.24196  -0.23678  -0.23618
 Alpha  occ. eigenvalues --   -0.23284  -0.22616  -0.22053  -0.21508  -0.20920
 Alpha  occ. eigenvalues --   -0.20495  -0.20379  -0.18981  -0.18570  -0.17169
 Alpha  occ. eigenvalues --   -0.15708
 Alpha virt. eigenvalues --   -0.11537  -0.06657  -0.06070  -0.04408  -0.04299
 Alpha virt. eigenvalues --   -0.02906  -0.02565  -0.01894  -0.01393   0.00637
 Alpha virt. eigenvalues --    0.01202   0.01260   0.02009   0.02604   0.02891

 Mulliken charges:
               1
     1  Mg   0.696151
     2  C    0.032967
     3  C   -0.067641
     4  C   -0.050572
     5  C   -0.077493
     6  N   -0.253591
     7  C   -0.027911
     8  C   -0.026692
     9  C    0.008795
    10  C    0.007689
    11  C    0.139521
    12  C    0.109360
    13  C    0.121201
    14  C    0.105558
    15  O   -0.187436
    16  O   -0.300721
    17  N   -0.266396
    18  C    0.140824
    19  C   -0.131993
    20  C    0.001517
    21  C    0.119239
    22  C    0.183912
    23  C   -0.060558
    24  O   -0.140012
    25  C    0.139375
    26  N   -0.204199
    27  C   -0.049986
    28  C   -0.000221
    29  C    0.065218
    30  C    0.004815
    31  C    0.145654
    32  C    0.107989
    33  C    0.051591
    34  N   -0.311454
    35  C    0.160331
    36  C   -0.191284
    37  C    0.106542
    38  C    0.100776
    39  C    0.190457
    40  C   -0.084978
    41  O   -0.148872
    42  C    0.027733
    43  C    0.133868
    44  O   -0.208186
    45  O   -0.271360
    46  C    0.217972
    47  C    0.338551
    48  C   -0.071709
    49  C   -0.200918
    50  C    0.119040
    51  C    0.216717
    52  C    0.043462
    53  C    0.067998
    54  C   -0.108637
    55  C    0.139643
    56  C    0.119054
    57  C    0.117559
    58  C    0.058473
    59  C   -0.041322
    60  C    0.117581
    61  C    0.104954
    62  C    0.097696
    63  C    0.091366
    64  C   -0.098951
    65  C    0.118738
    66  C    0.060634
    67  H   -0.059005
    68  H   -0.032870
    69  H   -0.074092
    70  H   -0.010111
    71  H   -0.030503
    72  H    0.015181
    73  H   -0.016046
    74  H   -0.001907
    75  H   -0.013749
    76  H   -0.017838
    77  H    0.007114
    78  H   -0.019615
    79  H   -0.027116
    80  H   -0.006938
    81  H   -0.014914
    82  H    0.004048
    83  H    0.014334
    84  H   -0.010232
    85  H   -0.023134
    86  H   -0.039690
    87  H    0.007484
    88  H   -0.007149
    89  H    0.001652
    90  H   -0.015253
    91  H   -0.026264
    92  H   -0.018805
    93  H    0.008380
    94  H   -0.020251
    95  H    0.016469
    96  H   -0.010276
    97  H    0.029637
    98  H    0.000791
    99  H    0.018434
   100  H    0.033150
   101  H    0.016689
   102  H   -0.026236
   103  H    0.004950
   104  H   -0.049819
   105  H   -0.016529
   106  H   -0.002033
   107  H    0.024947
   108  H   -0.029187
   109  H   -0.031703
   110  H   -0.020088
   111  H   -0.029626
   112  H   -0.036998
   113  H   -0.039595
   114  H   -0.044807
   115  H   -0.027197
   116  H   -0.011766
   117  H   -0.024551
   118  H   -0.044152
   119  H   -0.029892
   120  H   -0.023806
   121  H   -0.026742
   122  H   -0.049557
   123  H   -0.047003
   124  H   -0.039365
   125  H   -0.028767
   126  H   -0.021996
   127  H   -0.021729
   128  H   -0.057372
   129  H   -0.045655
   130  H   -0.022828
   131  H   -0.035724
   132  H   -0.029079
   133  H   -0.035390
   134  H   -0.031292
   135  H   -0.008930
   136  H   -0.029558
   137  H   -0.013188
   138  H    0.000985
   139  H    0.000021
   140  H   -0.023776
 Sum of Mulliken charges =  -0.00000

 Dipole moment (field-independent basis, Debye):
    X=             -2.4019    Y=              3.7605    Z=             -0.4063  Tot=              4.4806
 Quadrupole moment (field-independent basis, Debye-Ang):
   XX=           -373.0214   YY=           -417.9368   ZZ=           -411.0157
   XY=             -5.0917   XZ=             21.9223   YZ=              3.5899

 Normal termination of Gaussian 16 at Wed Apr 27 01:37:10 2022.
