 Gaussian 16, Revision A.03,
 Gaussian 16:  ES64L-G16RevA.03 25-Dec-2016

 -----------------------------------
 #p cam-b3lyp/Def2SVP td=(nstates=5)
 -----------------------------------

 -------------------------------------------------------
 step_101_chromophore_25 TDDFT with cam-b3lyp functional
 -------------------------------------------------------
 Symbolic Z-matrix:
 Charge =  0 Multiplicity = 1

                         Standard orientation:
 ---------------------------------------------------------------------
 Center     Atomic      Atomic             Coordinates (Angstroms)
 Number     Number       Type             X           Y           Z
 ---------------------------------------------------------------------
      1         12           0        5.810473    0.300318    0.137585
      2          6           0        3.419454   -2.128347    0.227865
      3          6           0        3.413449    2.701629   -0.483590
      4          6           0        8.312641    2.607253   -0.062668
      5          6           0        8.217172   -2.106517    0.779372
      6          7           0        3.682667    0.272062   -0.144666
      7          6           0        2.888566   -0.842538    0.071046
      8          6           0        1.407005   -0.522577   -0.145305
      9          6           0        1.421716    1.002084   -0.652148
     10          6           0        2.867739    1.387330   -0.311800
     11          6           0        1.100233    1.208417   -2.166707
     12          6           0        0.409763   -0.850203    0.981371
     13          6           0       -0.791864   -1.816361    0.745560
     14          6           0       -2.154548   -1.483690    1.424152
     15          8           0       -2.373137   -1.600826    2.629300
     16          8           0       -3.138143   -1.314517    0.410272
     17          7           0        5.901056    2.294707   -0.257322
     18          6           0        4.832748    3.088445   -0.441157
     19          6           0        5.311925    4.441434   -0.613555
     20          6           0        6.703958    4.453698   -0.669019
     21          6           0        7.038835    3.047880   -0.308405
     22          6           0        4.369786    5.546950   -0.720822
     23          6           0        7.744688    5.523884   -1.123745
     24          8           0        8.942873    5.394030   -1.138667
     25          6           0        7.225048    6.748564   -1.677434
     26          7           0        7.985372    0.213935    0.122790
     27          6           0        8.767600    1.346791    0.124505
     28          6           0       10.242660    1.050559    0.331928
     29          6           0       10.218337   -0.464684    0.674357
     30          6           0        8.717460   -0.858070    0.512581
     31          6           0       11.116664    1.404415   -0.928972
     32          6           0       11.029496   -0.744331    1.958331
     33          6           0       10.197220   -0.471343    3.204165
     34          7           0        5.867828   -1.707608    0.225969
     35          6           0        6.900501   -2.603348    0.604270
     36          6           0        6.442658   -3.975567    0.715072
     37          6           0        5.062526   -3.827786    0.419672
     38          6           0        4.750155   -2.455952    0.361037
     39          6           0        7.209303   -5.254651    0.787331
     40          6           0        3.885255   -4.596627    0.321796
     41          8           0        3.652677   -5.812866    0.375783
     42          6           0        2.703057   -3.501022    0.185566
     43          6           0        1.987766   -3.685779   -1.092761
     44          8           0        2.376559   -3.190267   -2.157508
     45          8           0        0.812589   -4.342403   -0.897536
     46          6           0       -0.121962   -4.412844   -2.085388
     47          6           0       -4.522661   -1.252075    0.788595
     48          6           0       -5.294602   -1.051094   -0.513473
     49          6           0       -6.037080    0.037168   -0.873217
     50          6           0       -5.982224    1.346430   -0.047184
     51          6           0       -6.844228   -0.011454   -2.140644
     52          6           0       -8.092301   -0.838749   -2.056047
     53          6           0       -9.413583   -0.059352   -2.331355
     54          6           0      -10.602046   -0.993614   -2.691566
     55          6           0      -10.509014   -1.382552   -4.141193
     56          6           0      -12.029465   -0.383432   -2.410495
     57          6           0      -12.517896   -0.491161   -0.979518
     58          6           0      -13.010297    0.830880   -0.437647
     59          6           0      -13.899768    0.708062    0.823434
     60          6           0      -15.336261    0.632137    0.407221
     61          6           0      -13.692590    1.895002    1.788827
     62          6           0      -12.636861    1.627603    2.888653
     63          6           0      -11.394388    2.528959    2.718682
     64          6           0      -10.158370    1.843891    3.317048
     65          6           0       -9.014947    2.909737    3.420451
     66          6           0       -9.540299    0.687064    2.454669
     67          1           0        2.652994    3.435361   -0.759609
     68          1           0        9.060520    3.309561    0.308889
     69          1           0        9.008637   -2.796751    1.077960
     70          1           0        1.086012   -1.102745   -1.010536
     71          1           0        0.707759    1.519611   -0.012413
     72          1           0        1.862360    1.749553   -2.728181
     73          1           0        0.144371    1.728568   -2.111613
     74          1           0        0.797503    0.286576   -2.661670
     75          1           0       -0.129702   -0.000125    1.399512
     76          1           0        1.117778   -1.242741    1.710945
     77          1           0       -0.362340   -2.696325    1.225356
     78          1           0       -0.846182   -2.138004   -0.294197
     79          1           0        4.599810    6.061396   -1.654154
     80          1           0        4.544783    6.351779   -0.007030
     81          1           0        3.302693    5.327164   -0.751530
     82          1           0        6.810992    7.336144   -0.858431
     83          1           0        6.455548    6.532298   -2.417422
     84          1           0        8.018540    7.344233   -2.128697
     85          1           0       10.486099    1.615470    1.232678
     86          1           0       10.746899   -0.937943   -0.153355
     87          1           0       10.468631    1.644927   -1.771685
     88          1           0       11.783925    0.580371   -1.181812
     89          1           0       11.684241    2.289222   -0.641028
     90          1           0       11.977547   -0.209417    2.000263
     91          1           0       11.285906   -1.803602    1.942294
     92          1           0       10.396735   -1.188489    4.000750
     93          1           0        9.113874   -0.373530    3.129961
     94          1           0       10.540775    0.452003    3.669597
     95          1           0        6.650252   -5.860871    1.501073
     96          1           0        8.231514   -5.076210    1.121298
     97          1           0        7.145212   -5.629669   -0.234050
     98          1           0        2.097701   -3.742025    1.059221
     99          1           0       -0.509534   -3.401432   -2.209230
    100          1           0       -0.830341   -5.230882   -1.953725
    101          1           0        0.419949   -4.602932   -3.011737
    102          1           0       -4.580530   -0.326370    1.361152
    103          1           0       -4.823056   -2.121273    1.374055
    104          1           0       -5.340737   -1.863051   -1.239453
    105          1           0       -5.919593    2.198190   -0.723937
    106          1           0       -5.003817    1.410140    0.430296
    107          1           0       -6.810217    1.426288    0.657320
    108          1           0       -6.279884   -0.620845   -2.846250
    109          1           0       -6.937714    1.007693   -2.516168
    110          1           0       -8.345403   -1.230724   -1.070187
    111          1           0       -7.974975   -1.726442   -2.676602
    112          1           0       -9.256737    0.787126   -2.999462
    113          1           0       -9.663220    0.382104   -1.365983
    114          1           0      -10.371036   -1.887976   -2.112110
    115          1           0      -11.336156   -0.941234   -4.697859
    116          1           0      -10.568972   -2.468779   -4.203259
    117          1           0       -9.613155   -0.936158   -4.573242
    118          1           0      -12.718036   -1.010247   -2.977850
    119          1           0      -12.091469    0.591651   -2.893672
    120          1           0      -11.625460   -0.739331   -0.405095
    121          1           0      -13.248084   -1.293644   -0.876094
    122          1           0      -13.539019    1.431011   -1.178730
    123          1           0      -12.152632    1.500989   -0.375278
    124          1           0      -13.657217   -0.244338    1.295469
    125          1           0      -15.776331    1.623365    0.516709
    126          1           0      -16.098619    0.077329    0.952914
    127          1           0      -15.286340    0.289441   -0.625834
    128          1           0      -14.627513    2.191121    2.262795
    129          1           0      -13.541137    2.804282    1.207322
    130          1           0      -12.369778    0.572737    2.952037
    131          1           0      -13.148639    1.924644    3.803899
    132          1           0      -11.661458    3.496350    3.142855
    133          1           0      -11.231291    2.744792    1.662671
    134          1           0      -10.418608    1.374026    4.265301
    135          1           0       -9.169237    3.721556    2.709364
    136          1           0       -8.042648    2.475943    3.190556
    137          1           0       -8.928905    3.129692    4.484727
    138          1           0       -8.869846    0.011341    2.984527
    139          1           0       -9.072655    1.230085    1.633147
    140          1           0      -10.301560    0.054005    2.000248
 ---------------------------------------------------------------------

 SCF Done:  E(RCAM-B3LYP) =  -3007.16045080     A.U. after   19 cycles

 Excitation energies and oscillator strengths:

 Excited State   1:      Singlet-A      1.6698 eV  742.52 nm  f=0.3785  <S**2>=0.000
     245 -> 248       -0.17831
     246 -> 247        0.68681
     245 <- 248       -0.10953
 This state for optimization and/or second-order correction.
 Total Energy, E(TD-HF/TD-DFT) =  -3007.09908756
 Copying the excited state density for this state as the 1-particle RhoCI density.

 Excited State   2:      Singlet-A      2.2268 eV  556.79 nm  f=0.1259  <S**2>=0.000
     245 -> 247        0.64342
     246 -> 248        0.28287

 Excited State   3:      Singlet-A      3.4082 eV  363.78 nm  f=0.0024  <S**2>=0.000
     241 -> 247       -0.20860
     242 -> 247       -0.27046
     242 -> 249       -0.20461
     242 -> 250        0.12529
     244 -> 247        0.52343

 Excited State   4:      Singlet-A      3.4717 eV  357.13 nm  f=0.0429  <S**2>=0.000
     241 -> 249        0.10782
     242 -> 247        0.48880
     242 -> 249        0.15141
     244 -> 247        0.38334
     246 -> 248       -0.20218

 Excited State   5:      Singlet-A      3.5374 eV  350.49 nm  f=0.4823  <S**2>=0.000
     241 -> 247       -0.26224
     242 -> 247        0.21124
     245 -> 247       -0.22960
     246 -> 248        0.55976

 The electronic state is 1-A.
 Alpha  occ. eigenvalues --  -46.87221 -19.25415 -19.24287 -19.20823 -19.19273
 Alpha  occ. eigenvalues --  -19.19094 -19.18552 -14.42286 -14.41389 -14.39861
 Alpha  occ. eigenvalues --  -14.39048 -10.40279 -10.39090 -10.35208 -10.34521
 Alpha  occ. eigenvalues --  -10.32427 -10.31834 -10.31444 -10.31156 -10.30475
 Alpha  occ. eigenvalues --  -10.30185 -10.29961 -10.29819 -10.29727 -10.28448
 Alpha  occ. eigenvalues --  -10.28347 -10.28155 -10.28041 -10.27936 -10.27847
 Alpha  occ. eigenvalues --  -10.27821 -10.27683 -10.27445 -10.27252 -10.27137
 Alpha  occ. eigenvalues --  -10.27054 -10.26990 -10.26943 -10.26523 -10.26436
 Alpha  occ. eigenvalues --  -10.26333 -10.26305 -10.26258 -10.26236 -10.26006
 Alpha  occ. eigenvalues --  -10.25808 -10.25798 -10.25708 -10.25706 -10.25547
 Alpha  occ. eigenvalues --  -10.25443 -10.25182 -10.25158 -10.25054 -10.24994
 Alpha  occ. eigenvalues --  -10.24896 -10.24842 -10.24818 -10.24757 -10.24671
 Alpha  occ. eigenvalues --  -10.24551 -10.24481 -10.24444 -10.24372 -10.24049
 Alpha  occ. eigenvalues --  -10.23851  -3.16022  -1.90921  -1.90453  -1.90365
 Alpha  occ. eigenvalues --   -1.15559  -1.14877  -1.11384  -1.08369  -1.07974
 Alpha  occ. eigenvalues --   -1.06846  -1.04258  -1.03351  -1.02798  -1.01890
 Alpha  occ. eigenvalues --   -0.92053  -0.91008  -0.90247  -0.89140  -0.89093
 Alpha  occ. eigenvalues --   -0.88884  -0.88615  -0.87919  -0.87869  -0.87414
 Alpha  occ. eigenvalues --   -0.86446  -0.85322  -0.84685  -0.83482  -0.83360
 Alpha  occ. eigenvalues --   -0.82888  -0.82745  -0.81527  -0.81201  -0.80567
 Alpha  occ. eigenvalues --   -0.80094  -0.78530  -0.77847  -0.76876  -0.76558
 Alpha  occ. eigenvalues --   -0.76036  -0.75144  -0.75086  -0.74534  -0.74391
 Alpha  occ. eigenvalues --   -0.73270  -0.72807  -0.71660  -0.70098  -0.69791
 Alpha  occ. eigenvalues --   -0.68556  -0.68086  -0.67079  -0.66860  -0.65500
 Alpha  occ. eigenvalues --   -0.65212  -0.65084  -0.64639  -0.64494  -0.63953
 Alpha  occ. eigenvalues --   -0.63515  -0.63117  -0.62960  -0.61865  -0.60107
 Alpha  occ. eigenvalues --   -0.59750  -0.59592  -0.59065  -0.58139  -0.57869
 Alpha  occ. eigenvalues --   -0.57338  -0.57290  -0.56645  -0.56065  -0.55275
 Alpha  occ. eigenvalues --   -0.55101  -0.55009  -0.54969  -0.54400  -0.54143
 Alpha  occ. eigenvalues --   -0.54000  -0.53551  -0.53505  -0.53279  -0.52917
 Alpha  occ. eigenvalues --   -0.52364  -0.52325  -0.52128  -0.51847  -0.51785
 Alpha  occ. eigenvalues --   -0.51536  -0.51328  -0.51206  -0.50696  -0.50621
 Alpha  occ. eigenvalues --   -0.50602  -0.50312  -0.50144  -0.49997  -0.49815
 Alpha  occ. eigenvalues --   -0.49706  -0.49416  -0.49234  -0.49120  -0.48939
 Alpha  occ. eigenvalues --   -0.48483  -0.48340  -0.48256  -0.47819  -0.47686
 Alpha  occ. eigenvalues --   -0.47404  -0.47122  -0.47053  -0.46973  -0.46726
 Alpha  occ. eigenvalues --   -0.46606  -0.46450  -0.46075  -0.45927  -0.45914
 Alpha  occ. eigenvalues --   -0.45623  -0.45522  -0.45449  -0.45122  -0.44864
 Alpha  occ. eigenvalues --   -0.44662  -0.44313  -0.44117  -0.43729  -0.43726
 Alpha  occ. eigenvalues --   -0.43624  -0.43434  -0.43166  -0.43026  -0.42764
 Alpha  occ. eigenvalues --   -0.42746  -0.42506  -0.42486  -0.42394  -0.42290
 Alpha  occ. eigenvalues --   -0.42160  -0.41871  -0.41639  -0.41468  -0.41273
 Alpha  occ. eigenvalues --   -0.41014  -0.40585  -0.40546  -0.40367  -0.39871
 Alpha  occ. eigenvalues --   -0.39574  -0.39486  -0.39405  -0.38924  -0.38746
 Alpha  occ. eigenvalues --   -0.38255  -0.38173  -0.37966  -0.37705  -0.37459
 Alpha  occ. eigenvalues --   -0.37160  -0.37044  -0.36654  -0.36546  -0.36160
 Alpha  occ. eigenvalues --   -0.35966  -0.35904  -0.34686  -0.34673  -0.34487
 Alpha  occ. eigenvalues --   -0.34034  -0.33975  -0.32754  -0.31706  -0.30912
 Alpha  occ. eigenvalues --   -0.30488  -0.30316  -0.30091  -0.29654  -0.23988
 Alpha  occ. eigenvalues --   -0.20983
 Alpha virt. eigenvalues --   -0.08674  -0.01446   0.00424   0.02560   0.03222
 Alpha virt. eigenvalues --    0.03322   0.04533   0.05072   0.05438   0.07131
 Alpha virt. eigenvalues --    0.07142   0.08224   0.08641   0.08995   0.09384

 Mulliken charges:
               1
     1  Mg   0.832427
     2  C    0.003678
     3  C   -0.083665
     4  C   -0.062976
     5  C   -0.081724
     6  N   -0.324814
     7  C    0.014185
     8  C   -0.074743
     9  C   -0.038062
    10  C    0.028477
    11  C    0.078930
    12  C    0.058959
    13  C    0.055386
    14  C    0.186526
    15  O   -0.226279
    16  O   -0.365735
    17  N   -0.356846
    18  C    0.154510
    19  C   -0.144134
    20  C   -0.059484
    21  C    0.140822
    22  C    0.120924
    23  C    0.023646
    24  O   -0.178662
    25  C    0.050026
    26  N   -0.273606
    27  C   -0.026884
    28  C   -0.055814
    29  C    0.011265
    30  C    0.018625
    31  C    0.088597
    32  C    0.050960
    33  C   -0.013417
    34  N   -0.395538
    35  C    0.155056
    36  C   -0.180820
    37  C    0.032355
    38  C    0.131326
    39  C    0.138960
    40  C    0.010394
    41  O   -0.190414
    42  C   -0.046150
    43  C    0.220615
    44  O   -0.244704
    45  O   -0.335203
    46  C    0.179123
    47  C    0.301674
    48  C   -0.094976
    49  C   -0.217122
    50  C    0.063620
    51  C    0.144462
    52  C   -0.003969
    53  C    0.022403
    54  C   -0.161843
    55  C    0.075147
    56  C    0.061048
    57  C    0.064402
    58  C    0.008378
    59  C   -0.100955
    60  C    0.059396
    61  C    0.049130
    62  C    0.040363
    63  C    0.041108
    64  C   -0.157848
    65  C    0.055284
    66  C    0.012941
    67  H   -0.024626
    68  H    0.004160
    69  H   -0.039131
    70  H    0.020926
    71  H    0.004921
    72  H    0.040519
    73  H    0.008623
    74  H    0.023328
    75  H    0.015363
    76  H    0.014293
    77  H    0.039222
    78  H    0.011031
    79  H    0.000056
    80  H    0.021629
    81  H    0.015049
    82  H    0.031714
    83  H    0.040459
    84  H    0.026581
    85  H    0.009903
    86  H   -0.002646
    87  H    0.033368
    88  H    0.016458
    89  H    0.025145
    90  H    0.013836
    91  H    0.001747
    92  H    0.007269
    93  H    0.031677
    94  H    0.003197
    95  H    0.042018
    96  H    0.013439
    97  H    0.054813
    98  H    0.041990
    99  H    0.037684
   100  H    0.057201
   101  H    0.043930
   102  H    0.003638
   103  H    0.033614
   104  H   -0.015813
   105  H    0.008740
   106  H    0.021745
   107  H    0.043213
   108  H    0.004239
   109  H   -0.001128
   110  H    0.007212
   111  H   -0.002189
   112  H   -0.009938
   113  H   -0.016015
   114  H   -0.012266
   115  H   -0.001134
   116  H    0.012694
   117  H    0.000727
   118  H   -0.012056
   119  H   -0.001323
   120  H    0.000160
   121  H    0.001375
   122  H   -0.019434
   123  H   -0.020103
   124  H   -0.007223
   125  H   -0.005037
   126  H    0.004536
   127  H    0.002332
   128  H   -0.024407
   129  H   -0.016294
   130  H    0.003418
   131  H   -0.005335
   132  H    0.000838
   133  H   -0.010281
   134  H   -0.000054
   135  H    0.015050
   136  H   -0.004671
   137  H    0.011922
   138  H    0.025012
   139  H    0.014719
   140  H   -0.004371
 Sum of Mulliken charges =  -0.00000

 Dipole moment (field-independent basis, Debye):
    X=             -2.4818    Y=              4.5015    Z=             -0.5728  Tot=              5.1721
 Quadrupole moment (field-independent basis, Debye-Ang):
   XX=           -371.5193   YY=           -414.0880   ZZ=           -411.2569
   XY=             -1.7276   XZ=             23.0589   YZ=              3.0193

 Normal termination of Gaussian 16 at Wed Apr 27 00:37:27 2022.
