 Gaussian 16, Revision A.03,
 Gaussian 16:  ES64L-G16RevA.03 25-Dec-2016

 ---------------------------------
 #p PBE1PBE/Def2SVP td=(nstates=5)
 ---------------------------------

 -----------------------------------------------------
 step_101_chromophore_25 TDDFT with PBE1PBE functional
 -----------------------------------------------------
 Symbolic Z-matrix:
 Charge =  0 Multiplicity = 1

                         Standard orientation:
 ---------------------------------------------------------------------
 Center     Atomic      Atomic             Coordinates (Angstroms)
 Number     Number       Type             X           Y           Z
 ---------------------------------------------------------------------
      1         12           0        5.810473    0.300318    0.137585
      2          6           0        3.419454   -2.128347    0.227865
      3          6           0        3.413449    2.701629   -0.483590
      4          6           0        8.312641    2.607253   -0.062668
      5          6           0        8.217172   -2.106517    0.779372
      6          7           0        3.682667    0.272062   -0.144666
      7          6           0        2.888566   -0.842538    0.071046
      8          6           0        1.407005   -0.522577   -0.145305
      9          6           0        1.421716    1.002084   -0.652148
     10          6           0        2.867739    1.387330   -0.311800
     11          6           0        1.100233    1.208417   -2.166707
     12          6           0        0.409763   -0.850203    0.981371
     13          6           0       -0.791864   -1.816361    0.745560
     14          6           0       -2.154548   -1.483690    1.424152
     15          8           0       -2.373137   -1.600826    2.629300
     16          8           0       -3.138143   -1.314517    0.410272
     17          7           0        5.901056    2.294707   -0.257322
     18          6           0        4.832748    3.088445   -0.441157
     19          6           0        5.311925    4.441434   -0.613555
     20          6           0        6.703958    4.453698   -0.669019
     21          6           0        7.038835    3.047880   -0.308405
     22          6           0        4.369786    5.546950   -0.720822
     23          6           0        7.744688    5.523884   -1.123745
     24          8           0        8.942873    5.394030   -1.138667
     25          6           0        7.225048    6.748564   -1.677434
     26          7           0        7.985372    0.213935    0.122790
     27          6           0        8.767600    1.346791    0.124505
     28          6           0       10.242660    1.050559    0.331928
     29          6           0       10.218337   -0.464684    0.674357
     30          6           0        8.717460   -0.858070    0.512581
     31          6           0       11.116664    1.404415   -0.928972
     32          6           0       11.029496   -0.744331    1.958331
     33          6           0       10.197220   -0.471343    3.204165
     34          7           0        5.867828   -1.707608    0.225969
     35          6           0        6.900501   -2.603348    0.604270
     36          6           0        6.442658   -3.975567    0.715072
     37          6           0        5.062526   -3.827786    0.419672
     38          6           0        4.750155   -2.455952    0.361037
     39          6           0        7.209303   -5.254651    0.787331
     40          6           0        3.885255   -4.596627    0.321796
     41          8           0        3.652677   -5.812866    0.375783
     42          6           0        2.703057   -3.501022    0.185566
     43          6           0        1.987766   -3.685779   -1.092761
     44          8           0        2.376559   -3.190267   -2.157508
     45          8           0        0.812589   -4.342403   -0.897536
     46          6           0       -0.121962   -4.412844   -2.085388
     47          6           0       -4.522661   -1.252075    0.788595
     48          6           0       -5.294602   -1.051094   -0.513473
     49          6           0       -6.037080    0.037168   -0.873217
     50          6           0       -5.982224    1.346430   -0.047184
     51          6           0       -6.844228   -0.011454   -2.140644
     52          6           0       -8.092301   -0.838749   -2.056047
     53          6           0       -9.413583   -0.059352   -2.331355
     54          6           0      -10.602046   -0.993614   -2.691566
     55          6           0      -10.509014   -1.382552   -4.141193
     56          6           0      -12.029465   -0.383432   -2.410495
     57          6           0      -12.517896   -0.491161   -0.979518
     58          6           0      -13.010297    0.830880   -0.437647
     59          6           0      -13.899768    0.708062    0.823434
     60          6           0      -15.336261    0.632137    0.407221
     61          6           0      -13.692590    1.895002    1.788827
     62          6           0      -12.636861    1.627603    2.888653
     63          6           0      -11.394388    2.528959    2.718682
     64          6           0      -10.158370    1.843891    3.317048
     65          6           0       -9.014947    2.909737    3.420451
     66          6           0       -9.540299    0.687064    2.454669
     67          1           0        2.652994    3.435361   -0.759609
     68          1           0        9.060520    3.309561    0.308889
     69          1           0        9.008637   -2.796751    1.077960
     70          1           0        1.086012   -1.102745   -1.010536
     71          1           0        0.707759    1.519611   -0.012413
     72          1           0        1.862360    1.749553   -2.728181
     73          1           0        0.144371    1.728568   -2.111613
     74          1           0        0.797503    0.286576   -2.661670
     75          1           0       -0.129702   -0.000125    1.399512
     76          1           0        1.117778   -1.242741    1.710945
     77          1           0       -0.362340   -2.696325    1.225356
     78          1           0       -0.846182   -2.138004   -0.294197
     79          1           0        4.599810    6.061396   -1.654154
     80          1           0        4.544783    6.351779   -0.007030
     81          1           0        3.302693    5.327164   -0.751530
     82          1           0        6.810992    7.336144   -0.858431
     83          1           0        6.455548    6.532298   -2.417422
     84          1           0        8.018540    7.344233   -2.128697
     85          1           0       10.486099    1.615470    1.232678
     86          1           0       10.746899   -0.937943   -0.153355
     87          1           0       10.468631    1.644927   -1.771685
     88          1           0       11.783925    0.580371   -1.181812
     89          1           0       11.684241    2.289222   -0.641028
     90          1           0       11.977547   -0.209417    2.000263
     91          1           0       11.285906   -1.803602    1.942294
     92          1           0       10.396735   -1.188489    4.000750
     93          1           0        9.113874   -0.373530    3.129961
     94          1           0       10.540775    0.452003    3.669597
     95          1           0        6.650252   -5.860871    1.501073
     96          1           0        8.231514   -5.076210    1.121298
     97          1           0        7.145212   -5.629669   -0.234050
     98          1           0        2.097701   -3.742025    1.059221
     99          1           0       -0.509534   -3.401432   -2.209230
    100          1           0       -0.830341   -5.230882   -1.953725
    101          1           0        0.419949   -4.602932   -3.011737
    102          1           0       -4.580530   -0.326370    1.361152
    103          1           0       -4.823056   -2.121273    1.374055
    104          1           0       -5.340737   -1.863051   -1.239453
    105          1           0       -5.919593    2.198190   -0.723937
    106          1           0       -5.003817    1.410140    0.430296
    107          1           0       -6.810217    1.426288    0.657320
    108          1           0       -6.279884   -0.620845   -2.846250
    109          1           0       -6.937714    1.007693   -2.516168
    110          1           0       -8.345403   -1.230724   -1.070187
    111          1           0       -7.974975   -1.726442   -2.676602
    112          1           0       -9.256737    0.787126   -2.999462
    113          1           0       -9.663220    0.382104   -1.365983
    114          1           0      -10.371036   -1.887976   -2.112110
    115          1           0      -11.336156   -0.941234   -4.697859
    116          1           0      -10.568972   -2.468779   -4.203259
    117          1           0       -9.613155   -0.936158   -4.573242
    118          1           0      -12.718036   -1.010247   -2.977850
    119          1           0      -12.091469    0.591651   -2.893672
    120          1           0      -11.625460   -0.739331   -0.405095
    121          1           0      -13.248084   -1.293644   -0.876094
    122          1           0      -13.539019    1.431011   -1.178730
    123          1           0      -12.152632    1.500989   -0.375278
    124          1           0      -13.657217   -0.244338    1.295469
    125          1           0      -15.776331    1.623365    0.516709
    126          1           0      -16.098619    0.077329    0.952914
    127          1           0      -15.286340    0.289441   -0.625834
    128          1           0      -14.627513    2.191121    2.262795
    129          1           0      -13.541137    2.804282    1.207322
    130          1           0      -12.369778    0.572737    2.952037
    131          1           0      -13.148639    1.924644    3.803899
    132          1           0      -11.661458    3.496350    3.142855
    133          1           0      -11.231291    2.744792    1.662671
    134          1           0      -10.418608    1.374026    4.265301
    135          1           0       -9.169237    3.721556    2.709364
    136          1           0       -8.042648    2.475943    3.190556
    137          1           0       -8.928905    3.129692    4.484727
    138          1           0       -8.869846    0.011341    2.984527
    139          1           0       -9.072655    1.230085    1.633147
    140          1           0      -10.301560    0.054005    2.000248
 ---------------------------------------------------------------------

 SCF Done:  E(RPBE1PBE) =  -3005.35043198     A.U. after   15 cycles

 Excitation energies and oscillator strengths:

 Excited State   1:      Singlet-A      1.8301 eV  677.48 nm  f=0.3645  <S**2>=0.000
     245 -> 248        0.17186
     246 -> 247        0.69420
     246 <- 247       -0.11216
 This state for optimization and/or second-order correction.
 Total Energy, E(TD-HF/TD-DFT) =  -3005.28317753
 Copying the excited state density for this state as the 1-particle RhoCI density.

 Excited State   2:      Singlet-A      2.2305 eV  555.85 nm  f=0.1248  <S**2>=0.000
     245 -> 247        0.65441
     246 -> 248       -0.25610

 Excited State   3:      Singlet-A      2.9276 eV  423.50 nm  f=0.0022  <S**2>=0.000
     242 -> 247        0.24975
     244 -> 247        0.62581
     244 -> 249       -0.12733

 Excited State   4:      Singlet-A      3.1249 eV  396.76 nm  f=0.0009  <S**2>=0.000
     240 -> 247       -0.12115
     242 -> 247        0.62927
     244 -> 247       -0.25687

 Excited State   5:      Singlet-A      3.1876 eV  388.96 nm  f=0.0156  <S**2>=0.000
     241 -> 247        0.65202
     241 -> 249        0.11306
     246 -> 248       -0.13662

 The electronic state is 1-A.
 Alpha  occ. eigenvalues --  -46.90638 -19.26042 -19.25037 -19.21099 -19.19515
 Alpha  occ. eigenvalues --  -19.19213 -19.18926 -14.41870 -14.40874 -14.39420
 Alpha  occ. eigenvalues --  -14.38794 -10.37345 -10.36082 -10.32232 -10.31740
 Alpha  occ. eigenvalues --  -10.29649 -10.29220 -10.29122 -10.28952 -10.28039
 Alpha  occ. eigenvalues --  -10.28004 -10.27714 -10.27532 -10.27370 -10.26243
 Alpha  occ. eigenvalues --  -10.26092 -10.25921 -10.25766 -10.25554 -10.25536
 Alpha  occ. eigenvalues --  -10.25522 -10.25392 -10.25122 -10.24957 -10.24850
 Alpha  occ. eigenvalues --  -10.24750 -10.24742 -10.24659 -10.24147 -10.23884
 Alpha  occ. eigenvalues --  -10.23786 -10.23783 -10.23743 -10.23704 -10.23674
 Alpha  occ. eigenvalues --  -10.23395 -10.23372 -10.23252 -10.23194 -10.23014
 Alpha  occ. eigenvalues --  -10.22927 -10.22857 -10.22696 -10.22638 -10.22531
 Alpha  occ. eigenvalues --  -10.22468 -10.22415 -10.22351 -10.22267 -10.22233
 Alpha  occ. eigenvalues --  -10.22085 -10.22034 -10.21940 -10.21849 -10.21435
 Alpha  occ. eigenvalues --  -10.21225  -3.13012  -1.85854  -1.85363  -1.85280
 Alpha  occ. eigenvalues --   -1.10302  -1.09693  -1.06048  -1.03204  -1.02865
 Alpha  occ. eigenvalues --   -1.01644  -0.98837  -0.98050  -0.97391  -0.96551
 Alpha  occ. eigenvalues --   -0.86472  -0.85136  -0.84353  -0.83369  -0.83315
 Alpha  occ. eigenvalues --   -0.83021  -0.82903  -0.82143  -0.81979  -0.81799
 Alpha  occ. eigenvalues --   -0.80782  -0.79548  -0.78881  -0.77753  -0.77602
 Alpha  occ. eigenvalues --   -0.77024  -0.76954  -0.75807  -0.75387  -0.74862
 Alpha  occ. eigenvalues --   -0.74379  -0.72834  -0.72105  -0.71188  -0.70724
 Alpha  occ. eigenvalues --   -0.70363  -0.69469  -0.69163  -0.68685  -0.68539
 Alpha  occ. eigenvalues --   -0.67698  -0.67185  -0.66080  -0.64414  -0.64151
 Alpha  occ. eigenvalues --   -0.63061  -0.62317  -0.61455  -0.61104  -0.59742
 Alpha  occ. eigenvalues --   -0.59669  -0.59557  -0.59107  -0.58590  -0.58527
 Alpha  occ. eigenvalues --   -0.57712  -0.57571  -0.57180  -0.56459  -0.54594
 Alpha  occ. eigenvalues --   -0.54231  -0.54025  -0.53675  -0.52691  -0.52392
 Alpha  occ. eigenvalues --   -0.51911  -0.51710  -0.51029  -0.50663  -0.49811
 Alpha  occ. eigenvalues --   -0.49520  -0.49439  -0.49381  -0.48974  -0.48712
 Alpha  occ. eigenvalues --   -0.48573  -0.47998  -0.47926  -0.47753  -0.47313
 Alpha  occ. eigenvalues --   -0.46987  -0.46788  -0.46667  -0.46403  -0.46334
 Alpha  occ. eigenvalues --   -0.46141  -0.45901  -0.45743  -0.45332  -0.45203
 Alpha  occ. eigenvalues --   -0.45170  -0.44823  -0.44665  -0.44552  -0.44379
 Alpha  occ. eigenvalues --   -0.44267  -0.44003  -0.43870  -0.43701  -0.43535
 Alpha  occ. eigenvalues --   -0.43113  -0.42987  -0.42889  -0.42482  -0.42304
 Alpha  occ. eigenvalues --   -0.42021  -0.41774  -0.41723  -0.41659  -0.41432
 Alpha  occ. eigenvalues --   -0.41236  -0.41000  -0.40831  -0.40609  -0.40569
 Alpha  occ. eigenvalues --   -0.40406  -0.40263  -0.40179  -0.39886  -0.39616
 Alpha  occ. eigenvalues --   -0.39427  -0.39086  -0.38869  -0.38587  -0.38465
 Alpha  occ. eigenvalues --   -0.38386  -0.38238  -0.37949  -0.37750  -0.37603
 Alpha  occ. eigenvalues --   -0.37546  -0.37308  -0.37279  -0.37183  -0.36975
 Alpha  occ. eigenvalues --   -0.36942  -0.36600  -0.36537  -0.36302  -0.36147
 Alpha  occ. eigenvalues --   -0.35789  -0.35420  -0.35303  -0.35271  -0.34667
 Alpha  occ. eigenvalues --   -0.34414  -0.34360  -0.34310  -0.33661  -0.33563
 Alpha  occ. eigenvalues --   -0.33219  -0.32956  -0.32939  -0.32455  -0.32438
 Alpha  occ. eigenvalues --   -0.32071  -0.31972  -0.31578  -0.31356  -0.31164
 Alpha  occ. eigenvalues --   -0.30984  -0.30830  -0.29792  -0.29584  -0.29425
 Alpha  occ. eigenvalues --   -0.28960  -0.28699  -0.28365  -0.27080  -0.26011
 Alpha  occ. eigenvalues --   -0.25858  -0.25549  -0.25422  -0.25190  -0.20907
 Alpha  occ. eigenvalues --   -0.18631
 Alpha virt. eigenvalues --   -0.11142  -0.04980  -0.03797  -0.01842  -0.01245
 Alpha virt. eigenvalues --    0.00061   0.00342   0.00639   0.01137   0.03625
 Alpha virt. eigenvalues --    0.03953   0.04069   0.04912   0.05509   0.05849

 Mulliken charges:
               1
     1  Mg   0.989656
     2  C   -0.008271
     3  C   -0.077181
     4  C   -0.046694
     5  C   -0.074481
     6  N   -0.425011
     7  C    0.076845
     8  C   -0.138278
     9  C   -0.112835
    10  C    0.064650
    11  C    0.021541
    12  C    0.009713
    13  C   -0.029478
    14  C    0.248552
    15  O   -0.258461
    16  O   -0.394136
    17  N   -0.480791
    18  C    0.185185
    19  C   -0.190364
    20  C   -0.095059
    21  C    0.164851
    22  C    0.064615
    23  C    0.074230
    24  O   -0.217524
    25  C   -0.024808
    26  N   -0.378924
    27  C    0.007863
    28  C   -0.132846
    29  C   -0.059006
    30  C    0.057081
    31  C    0.031401
    32  C   -0.019525
    33  C   -0.081949
    34  N   -0.511539
    35  C    0.164859
    36  C   -0.186617
    37  C   -0.002876
    38  C    0.172999
    39  C    0.078009
    40  C    0.095991
    41  O   -0.235365
    42  C   -0.149720
    43  C    0.309379
    44  O   -0.278059
    45  O   -0.367373
    46  C    0.122153
    47  C    0.259817
    48  C   -0.109089
    49  C   -0.251928
    50  C   -0.007320
    51  C    0.074343
    52  C   -0.058101
    53  C   -0.037020
    54  C   -0.248054
    55  C    0.015744
    56  C    0.006395
    57  C   -0.006140
    58  C   -0.041778
    59  C   -0.193915
    60  C    0.001927
    61  C   -0.000924
    62  C   -0.023770
    63  C   -0.010502
    64  C   -0.251577
    65  C   -0.009567
    66  C   -0.056750
    67  H    0.008458
    68  H    0.033404
    69  H   -0.005629
    70  H    0.064010
    71  H    0.041799
    72  H    0.067152
    73  H    0.036526
    74  H    0.049629
    75  H    0.048076
    76  H    0.048123
    77  H    0.074329
    78  H    0.049223
    79  H    0.028552
    80  H    0.049624
    81  H    0.041079
    82  H    0.059134
    83  H    0.066647
    84  H    0.054131
    85  H    0.047743
    86  H    0.037038
    87  H    0.061226
    88  H    0.042977
    89  H    0.052282
    90  H    0.046314
    91  H    0.034177
    92  H    0.035704
    93  H    0.060494
    94  H    0.031061
    95  H    0.069898
    96  H    0.041423
    97  H    0.082417
    98  H    0.078641
    99  H    0.058261
   100  H    0.077981
   101  H    0.065376
   102  H    0.031274
   103  H    0.059810
   104  H    0.014722
   105  H    0.036617
   106  H    0.048630
   107  H    0.076216
   108  H    0.038415
   109  H    0.029654
   110  H    0.039480
   111  H    0.028735
   112  H    0.021619
   113  H    0.022837
   114  H    0.025365
   115  H    0.026792
   116  H    0.040173
   117  H    0.028794
   118  H    0.022923
   119  H    0.029728
   120  H    0.037974
   121  H    0.032723
   122  H    0.013019
   123  H    0.014095
   124  H    0.030278
   125  H    0.022499
   126  H    0.032247
   127  H    0.030697
   128  H    0.008528
   129  H    0.015321
   130  H    0.034278
   131  H    0.028903
   132  H    0.033467
   133  H    0.022489
   134  H    0.037012
   135  H    0.041815
   136  H    0.025058
   137  H    0.040401
   138  H    0.052604
   139  H    0.046706
   140  H    0.026634
 Sum of Mulliken charges =  -0.00000

 Dipole moment (field-independent basis, Debye):
    X=             -2.4619    Y=              4.3134    Z=             -0.5667  Tot=              4.9987
 Quadrupole moment (field-independent basis, Debye-Ang):
   XX=           -365.3889   YY=           -411.1860   ZZ=           -408.7867
   XY=             -3.7061   XZ=             23.9966   YZ=              2.8764

 Normal termination of Gaussian 16 at Wed Apr 27 00:56:12 2022.
