 Gaussian 16, Revision A.03,
 Gaussian 16:  ES64L-G16RevA.03 25-Dec-2016

 --------------------------------
 #p wB97XD/Def2SVP td=(nstates=5)
 --------------------------------

 ----------------------------------------------------
 step_101_chromophore_25 TDDFT with wB97XD functional
 ----------------------------------------------------
 Symbolic Z-matrix:
 Charge =  0 Multiplicity = 1

                         Standard orientation:
 ---------------------------------------------------------------------
 Center     Atomic      Atomic             Coordinates (Angstroms)
 Number     Number       Type             X           Y           Z
 ---------------------------------------------------------------------
      1         12           0        5.810473    0.300318    0.137585
      2          6           0        3.419454   -2.128347    0.227865
      3          6           0        3.413449    2.701629   -0.483590
      4          6           0        8.312641    2.607253   -0.062668
      5          6           0        8.217172   -2.106517    0.779372
      6          7           0        3.682667    0.272062   -0.144666
      7          6           0        2.888566   -0.842538    0.071046
      8          6           0        1.407005   -0.522577   -0.145305
      9          6           0        1.421716    1.002084   -0.652148
     10          6           0        2.867739    1.387330   -0.311800
     11          6           0        1.100233    1.208417   -2.166707
     12          6           0        0.409763   -0.850203    0.981371
     13          6           0       -0.791864   -1.816361    0.745560
     14          6           0       -2.154548   -1.483690    1.424152
     15          8           0       -2.373137   -1.600826    2.629300
     16          8           0       -3.138143   -1.314517    0.410272
     17          7           0        5.901056    2.294707   -0.257322
     18          6           0        4.832748    3.088445   -0.441157
     19          6           0        5.311925    4.441434   -0.613555
     20          6           0        6.703958    4.453698   -0.669019
     21          6           0        7.038835    3.047880   -0.308405
     22          6           0        4.369786    5.546950   -0.720822
     23          6           0        7.744688    5.523884   -1.123745
     24          8           0        8.942873    5.394030   -1.138667
     25          6           0        7.225048    6.748564   -1.677434
     26          7           0        7.985372    0.213935    0.122790
     27          6           0        8.767600    1.346791    0.124505
     28          6           0       10.242660    1.050559    0.331928
     29          6           0       10.218337   -0.464684    0.674357
     30          6           0        8.717460   -0.858070    0.512581
     31          6           0       11.116664    1.404415   -0.928972
     32          6           0       11.029496   -0.744331    1.958331
     33          6           0       10.197220   -0.471343    3.204165
     34          7           0        5.867828   -1.707608    0.225969
     35          6           0        6.900501   -2.603348    0.604270
     36          6           0        6.442658   -3.975567    0.715072
     37          6           0        5.062526   -3.827786    0.419672
     38          6           0        4.750155   -2.455952    0.361037
     39          6           0        7.209303   -5.254651    0.787331
     40          6           0        3.885255   -4.596627    0.321796
     41          8           0        3.652677   -5.812866    0.375783
     42          6           0        2.703057   -3.501022    0.185566
     43          6           0        1.987766   -3.685779   -1.092761
     44          8           0        2.376559   -3.190267   -2.157508
     45          8           0        0.812589   -4.342403   -0.897536
     46          6           0       -0.121962   -4.412844   -2.085388
     47          6           0       -4.522661   -1.252075    0.788595
     48          6           0       -5.294602   -1.051094   -0.513473
     49          6           0       -6.037080    0.037168   -0.873217
     50          6           0       -5.982224    1.346430   -0.047184
     51          6           0       -6.844228   -0.011454   -2.140644
     52          6           0       -8.092301   -0.838749   -2.056047
     53          6           0       -9.413583   -0.059352   -2.331355
     54          6           0      -10.602046   -0.993614   -2.691566
     55          6           0      -10.509014   -1.382552   -4.141193
     56          6           0      -12.029465   -0.383432   -2.410495
     57          6           0      -12.517896   -0.491161   -0.979518
     58          6           0      -13.010297    0.830880   -0.437647
     59          6           0      -13.899768    0.708062    0.823434
     60          6           0      -15.336261    0.632137    0.407221
     61          6           0      -13.692590    1.895002    1.788827
     62          6           0      -12.636861    1.627603    2.888653
     63          6           0      -11.394388    2.528959    2.718682
     64          6           0      -10.158370    1.843891    3.317048
     65          6           0       -9.014947    2.909737    3.420451
     66          6           0       -9.540299    0.687064    2.454669
     67          1           0        2.652994    3.435361   -0.759609
     68          1           0        9.060520    3.309561    0.308889
     69          1           0        9.008637   -2.796751    1.077960
     70          1           0        1.086012   -1.102745   -1.010536
     71          1           0        0.707759    1.519611   -0.012413
     72          1           0        1.862360    1.749553   -2.728181
     73          1           0        0.144371    1.728568   -2.111613
     74          1           0        0.797503    0.286576   -2.661670
     75          1           0       -0.129702   -0.000125    1.399512
     76          1           0        1.117778   -1.242741    1.710945
     77          1           0       -0.362340   -2.696325    1.225356
     78          1           0       -0.846182   -2.138004   -0.294197
     79          1           0        4.599810    6.061396   -1.654154
     80          1           0        4.544783    6.351779   -0.007030
     81          1           0        3.302693    5.327164   -0.751530
     82          1           0        6.810992    7.336144   -0.858431
     83          1           0        6.455548    6.532298   -2.417422
     84          1           0        8.018540    7.344233   -2.128697
     85          1           0       10.486099    1.615470    1.232678
     86          1           0       10.746899   -0.937943   -0.153355
     87          1           0       10.468631    1.644927   -1.771685
     88          1           0       11.783925    0.580371   -1.181812
     89          1           0       11.684241    2.289222   -0.641028
     90          1           0       11.977547   -0.209417    2.000263
     91          1           0       11.285906   -1.803602    1.942294
     92          1           0       10.396735   -1.188489    4.000750
     93          1           0        9.113874   -0.373530    3.129961
     94          1           0       10.540775    0.452003    3.669597
     95          1           0        6.650252   -5.860871    1.501073
     96          1           0        8.231514   -5.076210    1.121298
     97          1           0        7.145212   -5.629669   -0.234050
     98          1           0        2.097701   -3.742025    1.059221
     99          1           0       -0.509534   -3.401432   -2.209230
    100          1           0       -0.830341   -5.230882   -1.953725
    101          1           0        0.419949   -4.602932   -3.011737
    102          1           0       -4.580530   -0.326370    1.361152
    103          1           0       -4.823056   -2.121273    1.374055
    104          1           0       -5.340737   -1.863051   -1.239453
    105          1           0       -5.919593    2.198190   -0.723937
    106          1           0       -5.003817    1.410140    0.430296
    107          1           0       -6.810217    1.426288    0.657320
    108          1           0       -6.279884   -0.620845   -2.846250
    109          1           0       -6.937714    1.007693   -2.516168
    110          1           0       -8.345403   -1.230724   -1.070187
    111          1           0       -7.974975   -1.726442   -2.676602
    112          1           0       -9.256737    0.787126   -2.999462
    113          1           0       -9.663220    0.382104   -1.365983
    114          1           0      -10.371036   -1.887976   -2.112110
    115          1           0      -11.336156   -0.941234   -4.697859
    116          1           0      -10.568972   -2.468779   -4.203259
    117          1           0       -9.613155   -0.936158   -4.573242
    118          1           0      -12.718036   -1.010247   -2.977850
    119          1           0      -12.091469    0.591651   -2.893672
    120          1           0      -11.625460   -0.739331   -0.405095
    121          1           0      -13.248084   -1.293644   -0.876094
    122          1           0      -13.539019    1.431011   -1.178730
    123          1           0      -12.152632    1.500989   -0.375278
    124          1           0      -13.657217   -0.244338    1.295469
    125          1           0      -15.776331    1.623365    0.516709
    126          1           0      -16.098619    0.077329    0.952914
    127          1           0      -15.286340    0.289441   -0.625834
    128          1           0      -14.627513    2.191121    2.262795
    129          1           0      -13.541137    2.804282    1.207322
    130          1           0      -12.369778    0.572737    2.952037
    131          1           0      -13.148639    1.924644    3.803899
    132          1           0      -11.661458    3.496350    3.142855
    133          1           0      -11.231291    2.744792    1.662671
    134          1           0      -10.418608    1.374026    4.265301
    135          1           0       -9.169237    3.721556    2.709364
    136          1           0       -8.042648    2.475943    3.190556
    137          1           0       -8.928905    3.129692    4.484727
    138          1           0       -8.869846    0.011341    2.984527
    139          1           0       -9.072655    1.230085    1.633147
    140          1           0      -10.301560    0.054005    2.000248
 ---------------------------------------------------------------------

 SCF Done:  E(RwB97XD) =  -3007.86074013     A.U. after   20 cycles

 Excitation energies and oscillator strengths:

 Excited State   1:      Singlet-A      1.6114 eV  769.41 nm  f=0.3774  <S**2>=0.000
     245 -> 248       -0.18369
     246 -> 247        0.68461
     245 <- 248       -0.11866
 This state for optimization and/or second-order correction.
 Total Energy, E(TD-HF/TD-DFT) =  -3007.80152151
 Copying the excited state density for this state as the 1-particle RhoCI density.

 Excited State   2:      Singlet-A      2.1711 eV  571.06 nm  f=0.1214  <S**2>=0.000
     245 -> 247        0.64125
     246 -> 248        0.28594

 Excited State   3:      Singlet-A      3.4404 eV  360.38 nm  f=0.0020  <S**2>=0.000
     241 -> 247       -0.13845
     242 -> 247       -0.15026
     242 -> 249       -0.18122
     242 -> 250        0.12188
     244 -> 247        0.59734
     244 -> 249        0.12668

 Excited State   4:      Singlet-A      3.5032 eV  353.92 nm  f=0.1014  <S**2>=0.000
     242 -> 247        0.51762
     242 -> 249        0.22485
     242 -> 250       -0.11912
     244 -> 247        0.20256
     245 -> 247        0.10478
     246 -> 248       -0.27191

 Excited State   5:      Singlet-A      3.5517 eV  349.09 nm  f=0.4375  <S**2>=0.000
     241 -> 247       -0.33099
     242 -> 247        0.20969
     245 -> 247       -0.21556
     246 -> 248        0.52039

 The electronic state is 1-A.
 Alpha  occ. eigenvalues --  -46.93578 -19.30615 -19.29581 -19.25798 -19.24204
 Alpha  occ. eigenvalues --  -19.24127 -19.23611 -14.46895 -14.46009 -14.44479
 Alpha  occ. eigenvalues --  -14.43661 -10.44159 -10.42916 -10.39174 -10.38536
 Alpha  occ. eigenvalues --  -10.36190 -10.35727 -10.35517 -10.35171 -10.34559
 Alpha  occ. eigenvalues --  -10.34162 -10.34018 -10.33823 -10.33741 -10.32503
 Alpha  occ. eigenvalues --  -10.32311 -10.32262 -10.32185 -10.32004 -10.31909
 Alpha  occ. eigenvalues --  -10.31889 -10.31705 -10.31390 -10.31347 -10.31184
 Alpha  occ. eigenvalues --  -10.31106 -10.31026 -10.30977 -10.30438 -10.30380
 Alpha  occ. eigenvalues --  -10.30277 -10.30182 -10.30158 -10.30096 -10.29949
 Alpha  occ. eigenvalues --  -10.29752 -10.29743 -10.29577 -10.29576 -10.29526
 Alpha  occ. eigenvalues --  -10.29384 -10.29183 -10.29151 -10.28993 -10.28834
 Alpha  occ. eigenvalues --  -10.28799 -10.28729 -10.28686 -10.28662 -10.28658
 Alpha  occ. eigenvalues --  -10.28463 -10.28413 -10.28295 -10.28261 -10.27866
 Alpha  occ. eigenvalues --  -10.27668  -3.19778  -1.93375  -1.92884  -1.92796
 Alpha  occ. eigenvalues --   -1.17708  -1.17084  -1.13617  -1.10597  -1.10217
 Alpha  occ. eigenvalues --   -1.09014  -1.06302  -1.05374  -1.04795  -1.03913
 Alpha  occ. eigenvalues --   -0.94021  -0.92796  -0.92017  -0.91047  -0.90958
 Alpha  occ. eigenvalues --   -0.90677  -0.90469  -0.89879  -0.89638  -0.89344
 Alpha  occ. eigenvalues --   -0.88383  -0.87202  -0.86538  -0.85386  -0.85269
 Alpha  occ. eigenvalues --   -0.84784  -0.84605  -0.83431  -0.83039  -0.82503
 Alpha  occ. eigenvalues --   -0.82008  -0.80495  -0.79766  -0.78792  -0.78398
 Alpha  occ. eigenvalues --   -0.77973  -0.77065  -0.76866  -0.76355  -0.76208
 Alpha  occ. eigenvalues --   -0.75233  -0.74758  -0.73628  -0.72031  -0.71697
 Alpha  occ. eigenvalues --   -0.70557  -0.69955  -0.69085  -0.68738  -0.67346
 Alpha  occ. eigenvalues --   -0.67164  -0.67080  -0.66577  -0.66285  -0.65955
 Alpha  occ. eigenvalues --   -0.65341  -0.65093  -0.64809  -0.63852  -0.62117
 Alpha  occ. eigenvalues --   -0.61682  -0.61520  -0.61061  -0.60098  -0.59840
 Alpha  occ. eigenvalues --   -0.59334  -0.59186  -0.58522  -0.58038  -0.57246
 Alpha  occ. eigenvalues --   -0.56950  -0.56889  -0.56863  -0.56362  -0.56078
 Alpha  occ. eigenvalues --   -0.55939  -0.55480  -0.55378  -0.55178  -0.54868
 Alpha  occ. eigenvalues --   -0.54316  -0.54192  -0.54034  -0.53741  -0.53684
 Alpha  occ. eigenvalues --   -0.53468  -0.53266  -0.53102  -0.52589  -0.52532
 Alpha  occ. eigenvalues --   -0.52507  -0.52291  -0.52081  -0.51900  -0.51712
 Alpha  occ. eigenvalues --   -0.51589  -0.51326  -0.51224  -0.51021  -0.50822
 Alpha  occ. eigenvalues --   -0.50421  -0.50255  -0.50160  -0.49759  -0.49562
 Alpha  occ. eigenvalues --   -0.49294  -0.49009  -0.48960  -0.48903  -0.48660
 Alpha  occ. eigenvalues --   -0.48556  -0.48267  -0.47972  -0.47804  -0.47788
 Alpha  occ. eigenvalues --   -0.47551  -0.47458  -0.47343  -0.47022  -0.46758
 Alpha  occ. eigenvalues --   -0.46561  -0.46241  -0.46056  -0.45665  -0.45627
 Alpha  occ. eigenvalues --   -0.45556  -0.45386  -0.45071  -0.44896  -0.44667
 Alpha  occ. eigenvalues --   -0.44653  -0.44504  -0.44384  -0.44304  -0.44166
 Alpha  occ. eigenvalues --   -0.44117  -0.43728  -0.43631  -0.43389  -0.43167
 Alpha  occ. eigenvalues --   -0.42872  -0.42479  -0.42384  -0.42258  -0.41728
 Alpha  occ. eigenvalues --   -0.41427  -0.41384  -0.41329  -0.40755  -0.40587
 Alpha  occ. eigenvalues --   -0.40158  -0.40011  -0.39907  -0.39539  -0.39378
 Alpha  occ. eigenvalues --   -0.39058  -0.38988  -0.38656  -0.38405  -0.38172
 Alpha  occ. eigenvalues --   -0.37963  -0.37791  -0.36649  -0.36499  -0.36456
 Alpha  occ. eigenvalues --   -0.35860  -0.35855  -0.35025  -0.33819  -0.32986
 Alpha  occ. eigenvalues --   -0.32675  -0.32338  -0.32131  -0.31795  -0.25912
 Alpha  occ. eigenvalues --   -0.22784
 Alpha virt. eigenvalues --   -0.07021   0.00468   0.02483   0.04657   0.05578
 Alpha virt. eigenvalues --    0.06312   0.06779   0.07254   0.07824   0.09987
 Alpha virt. eigenvalues --    0.10510   0.10731   0.11615   0.12250   0.12646

 Mulliken charges:
               1
     1  Mg   0.976295
     2  C   -0.008748
     3  C   -0.095495
     4  C   -0.069615
     5  C   -0.088793
     6  N   -0.395520
     7  C    0.050235
     8  C   -0.109030
     9  C   -0.086968
    10  C    0.052794
    11  C    0.031029
    12  C    0.021261
    13  C   -0.002825
    14  C    0.239788
    15  O   -0.255453
    16  O   -0.393533
    17  N   -0.445166
    18  C    0.176558
    19  C   -0.170581
    20  C   -0.095293
    21  C    0.161016
    22  C    0.074059
    23  C    0.073594
    24  O   -0.210900
    25  C   -0.015143
    26  N   -0.344167
    27  C   -0.001996
    28  C   -0.109294
    29  C   -0.032432
    30  C    0.039565
    31  C    0.041760
    32  C   -0.001825
    33  C   -0.067787
    34  N   -0.480265
    35  C    0.160148
    36  C   -0.186401
    37  C   -0.006689
    38  C    0.160582
    39  C    0.092932
    40  C    0.080850
    41  O   -0.226464
    42  C   -0.113469
    43  C    0.284487
    44  O   -0.272205
    45  O   -0.364975
    46  C    0.138226
    47  C    0.272576
    48  C   -0.118322
    49  C   -0.241274
    50  C    0.013312
    51  C    0.092933
    52  C   -0.044648
    53  C   -0.017249
    54  C   -0.215687
    55  C    0.024523
    56  C    0.019218
    57  C    0.015500
    58  C   -0.023990
    59  C   -0.161897
    60  C    0.013567
    61  C    0.012276
    62  C   -0.007567
    63  C    0.003233
    64  C   -0.220837
    65  C    0.004107
    66  C   -0.032925
    67  H    0.000964
    68  H    0.029832
    69  H   -0.012698
    70  H    0.039796
    71  H    0.032115
    72  H    0.061685
    73  H    0.030806
    74  H    0.045533
    75  H    0.039733
    76  H    0.038796
    77  H    0.065918
    78  H    0.034048
    79  H    0.021410
    80  H    0.045473
    81  H    0.038664
    82  H    0.054187
    83  H    0.060653
    84  H    0.053626
    85  H    0.035610
    86  H    0.025058
    87  H    0.055290
    88  H    0.037507
    89  H    0.047183
    90  H    0.039255
    91  H    0.026567
    92  H    0.030756
    93  H    0.051778
    94  H    0.024681
    95  H    0.065029
    96  H    0.035765
    97  H    0.077259
    98  H    0.071564
    99  H    0.053669
   100  H    0.075896
   101  H    0.061756
   102  H    0.024613
   103  H    0.057016
   104  H    0.011392
   105  H    0.031228
   106  H    0.042061
   107  H    0.066352
   108  H    0.030620
   109  H    0.022688
   110  H    0.028600
   111  H    0.021073
   112  H    0.012566
   113  H    0.008022
   114  H    0.012721
   115  H    0.020501
   116  H    0.035715
   117  H    0.022159
   118  H    0.013791
   119  H    0.021226
   120  H    0.022506
   121  H    0.025976
   122  H    0.001922
   123  H    0.001059
   124  H    0.017652
   125  H    0.015088
   126  H    0.028049
   127  H    0.022681
   128  H    0.000687
   129  H    0.005869
   130  H    0.023276
   131  H    0.021791
   132  H    0.026366
   133  H    0.008905
   134  H    0.026918
   135  H    0.036278
   136  H    0.017041
   137  H    0.035077
   138  H    0.047816
   139  H    0.030692
   140  H    0.015849
 Sum of Mulliken charges =  -0.00000

 Dipole moment (field-independent basis, Debye):
    X=             -2.4914    Y=              4.6485    Z=             -0.6416  Tot=              5.3129
 Quadrupole moment (field-independent basis, Debye-Ang):
   XX=           -366.0035   YY=           -409.4856   ZZ=           -408.4284
   XY=             -1.3324   XZ=             23.6229   YZ=              2.7525

 Normal termination of Gaussian 16 at Wed Apr 27 01:24:20 2022.
