 Gaussian 16, Revision A.03,
 Gaussian 16:  ES64L-G16RevA.03 25-Dec-2016

 --------------------
 #p ZINDO=(nstates=5)
 --------------------

 -----------------------------
 step_101_chromophore_25 ZINDO
 -----------------------------
 Symbolic Z-matrix:
 Charge =  0 Multiplicity = 1

                         Standard orientation:
 ---------------------------------------------------------------------
 Center     Atomic      Atomic             Coordinates (Angstroms)
 Number     Number       Type             X           Y           Z
 ---------------------------------------------------------------------
      1         12           0        5.810473    0.300318    0.137585
      2          6           0        3.419454   -2.128347    0.227865
      3          6           0        3.413449    2.701629   -0.483590
      4          6           0        8.312641    2.607253   -0.062668
      5          6           0        8.217172   -2.106517    0.779372
      6          7           0        3.682667    0.272062   -0.144666
      7          6           0        2.888566   -0.842538    0.071046
      8          6           0        1.407005   -0.522577   -0.145305
      9          6           0        1.421716    1.002084   -0.652148
     10          6           0        2.867739    1.387330   -0.311800
     11          6           0        1.100233    1.208417   -2.166707
     12          6           0        0.409763   -0.850203    0.981371
     13          6           0       -0.791864   -1.816361    0.745560
     14          6           0       -2.154548   -1.483690    1.424152
     15          8           0       -2.373137   -1.600826    2.629300
     16          8           0       -3.138143   -1.314517    0.410272
     17          7           0        5.901056    2.294707   -0.257322
     18          6           0        4.832748    3.088445   -0.441157
     19          6           0        5.311925    4.441434   -0.613555
     20          6           0        6.703958    4.453698   -0.669019
     21          6           0        7.038835    3.047880   -0.308405
     22          6           0        4.369786    5.546950   -0.720822
     23          6           0        7.744688    5.523884   -1.123745
     24          8           0        8.942873    5.394030   -1.138667
     25          6           0        7.225048    6.748564   -1.677434
     26          7           0        7.985372    0.213935    0.122790
     27          6           0        8.767600    1.346791    0.124505
     28          6           0       10.242660    1.050559    0.331928
     29          6           0       10.218337   -0.464684    0.674357
     30          6           0        8.717460   -0.858070    0.512581
     31          6           0       11.116664    1.404415   -0.928972
     32          6           0       11.029496   -0.744331    1.958331
     33          6           0       10.197220   -0.471343    3.204165
     34          7           0        5.867828   -1.707608    0.225969
     35          6           0        6.900501   -2.603348    0.604270
     36          6           0        6.442658   -3.975567    0.715072
     37          6           0        5.062526   -3.827786    0.419672
     38          6           0        4.750155   -2.455952    0.361037
     39          6           0        7.209303   -5.254651    0.787331
     40          6           0        3.885255   -4.596627    0.321796
     41          8           0        3.652677   -5.812866    0.375783
     42          6           0        2.703057   -3.501022    0.185566
     43          6           0        1.987766   -3.685779   -1.092761
     44          8           0        2.376559   -3.190267   -2.157508
     45          8           0        0.812589   -4.342403   -0.897536
     46          6           0       -0.121962   -4.412844   -2.085388
     47          6           0       -4.522661   -1.252075    0.788595
     48          6           0       -5.294602   -1.051094   -0.513473
     49          6           0       -6.037080    0.037168   -0.873217
     50          6           0       -5.982224    1.346430   -0.047184
     51          6           0       -6.844228   -0.011454   -2.140644
     52          6           0       -8.092301   -0.838749   -2.056047
     53          6           0       -9.413583   -0.059352   -2.331355
     54          6           0      -10.602046   -0.993614   -2.691566
     55          6           0      -10.509014   -1.382552   -4.141193
     56          6           0      -12.029465   -0.383432   -2.410495
     57          6           0      -12.517896   -0.491161   -0.979518
     58          6           0      -13.010297    0.830880   -0.437647
     59          6           0      -13.899768    0.708062    0.823434
     60          6           0      -15.336261    0.632137    0.407221
     61          6           0      -13.692590    1.895002    1.788827
     62          6           0      -12.636861    1.627603    2.888653
     63          6           0      -11.394388    2.528959    2.718682
     64          6           0      -10.158370    1.843891    3.317048
     65          6           0       -9.014947    2.909737    3.420451
     66          6           0       -9.540299    0.687064    2.454669
     67          1           0        2.652994    3.435361   -0.759609
     68          1           0        9.060520    3.309561    0.308889
     69          1           0        9.008637   -2.796751    1.077960
     70          1           0        1.086012   -1.102745   -1.010536
     71          1           0        0.707759    1.519611   -0.012413
     72          1           0        1.862360    1.749553   -2.728181
     73          1           0        0.144371    1.728568   -2.111613
     74          1           0        0.797503    0.286576   -2.661670
     75          1           0       -0.129702   -0.000125    1.399512
     76          1           0        1.117778   -1.242741    1.710945
     77          1           0       -0.362340   -2.696325    1.225356
     78          1           0       -0.846182   -2.138004   -0.294197
     79          1           0        4.599810    6.061396   -1.654154
     80          1           0        4.544783    6.351779   -0.007030
     81          1           0        3.302693    5.327164   -0.751530
     82          1           0        6.810992    7.336144   -0.858431
     83          1           0        6.455548    6.532298   -2.417422
     84          1           0        8.018540    7.344233   -2.128697
     85          1           0       10.486099    1.615470    1.232678
     86          1           0       10.746899   -0.937943   -0.153355
     87          1           0       10.468631    1.644927   -1.771685
     88          1           0       11.783925    0.580371   -1.181812
     89          1           0       11.684241    2.289222   -0.641028
     90          1           0       11.977547   -0.209417    2.000263
     91          1           0       11.285906   -1.803602    1.942294
     92          1           0       10.396735   -1.188489    4.000750
     93          1           0        9.113874   -0.373530    3.129961
     94          1           0       10.540775    0.452003    3.669597
     95          1           0        6.650252   -5.860871    1.501073
     96          1           0        8.231514   -5.076210    1.121298
     97          1           0        7.145212   -5.629669   -0.234050
     98          1           0        2.097701   -3.742025    1.059221
     99          1           0       -0.509534   -3.401432   -2.209230
    100          1           0       -0.830341   -5.230882   -1.953725
    101          1           0        0.419949   -4.602932   -3.011737
    102          1           0       -4.580530   -0.326370    1.361152
    103          1           0       -4.823056   -2.121273    1.374055
    104          1           0       -5.340737   -1.863051   -1.239453
    105          1           0       -5.919593    2.198190   -0.723937
    106          1           0       -5.003817    1.410140    0.430296
    107          1           0       -6.810217    1.426288    0.657320
    108          1           0       -6.279884   -0.620845   -2.846250
    109          1           0       -6.937714    1.007693   -2.516168
    110          1           0       -8.345403   -1.230724   -1.070187
    111          1           0       -7.974975   -1.726442   -2.676602
    112          1           0       -9.256737    0.787126   -2.999462
    113          1           0       -9.663220    0.382104   -1.365983
    114          1           0      -10.371036   -1.887976   -2.112110
    115          1           0      -11.336156   -0.941234   -4.697859
    116          1           0      -10.568972   -2.468779   -4.203259
    117          1           0       -9.613155   -0.936158   -4.573242
    118          1           0      -12.718036   -1.010247   -2.977850
    119          1           0      -12.091469    0.591651   -2.893672
    120          1           0      -11.625460   -0.739331   -0.405095
    121          1           0      -13.248084   -1.293644   -0.876094
    122          1           0      -13.539019    1.431011   -1.178730
    123          1           0      -12.152632    1.500989   -0.375278
    124          1           0      -13.657217   -0.244338    1.295469
    125          1           0      -15.776331    1.623365    0.516709
    126          1           0      -16.098619    0.077329    0.952914
    127          1           0      -15.286340    0.289441   -0.625834
    128          1           0      -14.627513    2.191121    2.262795
    129          1           0      -13.541137    2.804282    1.207322
    130          1           0      -12.369778    0.572737    2.952037
    131          1           0      -13.148639    1.924644    3.803899
    132          1           0      -11.661458    3.496350    3.142855
    133          1           0      -11.231291    2.744792    1.662671
    134          1           0      -10.418608    1.374026    4.265301
    135          1           0       -9.169237    3.721556    2.709364
    136          1           0       -8.042648    2.475943    3.190556
    137          1           0       -8.928905    3.129692    4.484727
    138          1           0       -8.869846    0.011341    2.984527
    139          1           0       -9.072655    1.230085    1.633147
    140          1           0      -10.301560    0.054005    2.000248
 ---------------------------------------------------------------------

 SCF Done:  E(RZINDO/S) =  -474.419895519     A.U. after   20 cycles

 Excitation energies and oscillator strengths:

 Excited State   1:      Singlet-A      1.2229 eV 1013.85 nm  f=0.6001  <S**2>=0.000
     175 ->178        -0.18729
     176 ->177         0.66347
 This state for optimization and/or second-order correction.
 Total Energy, E(CIS/TDA) =  -474.374954746
 Copying the excited state density for this state as the 1-particle RhoCI density.

 Excited State   2:      Singlet-A      1.9143 eV  647.68 nm  f=0.0394  <S**2>=0.000
     175 ->177         0.53861
     176 ->178         0.42970

 Excited State   3:      Singlet-A      2.8968 eV  428.00 nm  f=0.5089  <S**2>=0.000
     175 ->177        -0.29996
     176 ->178         0.44554
     176 ->179         0.37957
     176 ->181        -0.14383
     176 ->182        -0.10790

 Excited State   4:      Singlet-A      2.9873 eV  415.03 nm  f=0.0237  <S**2>=0.000
     169 ->177         0.22470
     169 ->178         0.14021
     169 ->179         0.21081
     169 ->181        -0.18874
     169 ->187         0.10836
     170 ->177         0.23448
     170 ->178         0.14994
     170 ->179         0.23423
     170 ->181        -0.18513
     170 ->186         0.10323
     170 ->187         0.11092
     174 ->177        -0.20241

 Excited State   5:      Singlet-A      3.0353 eV  408.47 nm  f=0.0627  <S**2>=0.000
     168 ->177         0.25217
     168 ->179        -0.34417
     168 ->181        -0.31842
     168 ->186        -0.23788
     176 ->179        -0.21424

 The electronic state is 1-A.
 Alpha  occ. eigenvalues --   -1.84021  -1.82827  -1.79484  -1.71307  -1.70622
 Alpha  occ. eigenvalues --   -1.69752  -1.66716  -1.62016  -1.61867  -1.56787
 Alpha  occ. eigenvalues --   -1.56298  -1.52735  -1.49127  -1.48264  -1.47470
 Alpha  occ. eigenvalues --   -1.44266  -1.42836  -1.41232  -1.40099  -1.39355
 Alpha  occ. eigenvalues --   -1.35662  -1.33795  -1.33669  -1.32045  -1.29757
 Alpha  occ. eigenvalues --   -1.28705  -1.25260  -1.23044  -1.19711  -1.18110
 Alpha  occ. eigenvalues --   -1.17343  -1.16810  -1.14712  -1.13709  -1.11930
 Alpha  occ. eigenvalues --   -1.11535  -1.11094  -1.10801  -1.05616  -1.03768
 Alpha  occ. eigenvalues --   -1.02074  -1.01596  -0.98448  -0.98111  -0.97348
 Alpha  occ. eigenvalues --   -0.96291  -0.94408  -0.93591  -0.93130  -0.92401
 Alpha  occ. eigenvalues --   -0.91075  -0.90131  -0.88698  -0.88301  -0.87585
 Alpha  occ. eigenvalues --   -0.85431  -0.83350  -0.82842  -0.81406  -0.80794
 Alpha  occ. eigenvalues --   -0.80395  -0.78540  -0.78487  -0.77066  -0.76421
 Alpha  occ. eigenvalues --   -0.75984  -0.75085  -0.74691  -0.74187  -0.74071
 Alpha  occ. eigenvalues --   -0.73383  -0.72628  -0.72524  -0.72213  -0.71477
 Alpha  occ. eigenvalues --   -0.71038  -0.69845  -0.69253  -0.68450  -0.67443
 Alpha  occ. eigenvalues --   -0.67153  -0.66837  -0.66430  -0.66057  -0.65365
 Alpha  occ. eigenvalues --   -0.65105  -0.64637  -0.64427  -0.63813  -0.63708
 Alpha  occ. eigenvalues --   -0.63566  -0.63218  -0.62293  -0.61965  -0.61635
 Alpha  occ. eigenvalues --   -0.61509  -0.61183  -0.60610  -0.60426  -0.60194
 Alpha  occ. eigenvalues --   -0.59858  -0.59217  -0.59130  -0.58630  -0.58476
 Alpha  occ. eigenvalues --   -0.58281  -0.57753  -0.57129  -0.56806  -0.56505
 Alpha  occ. eigenvalues --   -0.56093  -0.55742  -0.55134  -0.54804  -0.54626
 Alpha  occ. eigenvalues --   -0.54223  -0.53181  -0.52938  -0.52855  -0.52620
 Alpha  occ. eigenvalues --   -0.52341  -0.52049  -0.51724  -0.51383  -0.51271
 Alpha  occ. eigenvalues --   -0.50972  -0.50600  -0.50376  -0.50333  -0.50115
 Alpha  occ. eigenvalues --   -0.49964  -0.49780  -0.49662  -0.49461  -0.49045
 Alpha  occ. eigenvalues --   -0.48385  -0.48206  -0.48159  -0.48018  -0.47395
 Alpha  occ. eigenvalues --   -0.47270  -0.46928  -0.46611  -0.46522  -0.46272
 Alpha  occ. eigenvalues --   -0.46070  -0.45996  -0.45657  -0.45510  -0.45297
 Alpha  occ. eigenvalues --   -0.45086  -0.44951  -0.44432  -0.43856  -0.43412
 Alpha  occ. eigenvalues --   -0.43292  -0.43137  -0.42531  -0.42189  -0.42088
 Alpha  occ. eigenvalues --   -0.41834  -0.41298  -0.41263  -0.39863  -0.38526
 Alpha  occ. eigenvalues --   -0.38149  -0.37309  -0.35721  -0.34464  -0.34220
 Alpha  occ. eigenvalues --   -0.33567  -0.32502  -0.32265  -0.31833  -0.26642
 Alpha  occ. eigenvalues --   -0.21555
 Alpha virt. eigenvalues --   -0.08449  -0.02009  -0.00284   0.00670   0.01355
 Alpha virt. eigenvalues --    0.02574   0.02835   0.03243   0.04251   0.04912
 Alpha virt. eigenvalues --    0.06191   0.06580   0.07413   0.07759   0.08194

 Mulliken charges:
               1
     1  Mg   0.424047
     2  C   -0.040503
     3  C   -0.103036
     4  C   -0.057789
     5  C   -0.058843
     6  N   -0.285448
     7  C    0.127084
     8  C   -0.001928
     9  C    0.003884
    10  C    0.130994
    11  C   -0.048316
    12  C   -0.025874
    13  C   -0.005050
    14  C    0.463202
    15  O   -0.494215
    16  O   -0.281054
    17  N   -0.301611
    18  C    0.121096
    19  C    0.030139
    20  C   -0.062413
    21  C    0.140573
    22  C   -0.045878
    23  C    0.343811
    24  O   -0.512551
    25  C   -0.023276
    26  N   -0.277102
    27  C    0.150475
    28  C   -0.005442
    29  C   -0.002307
    30  C    0.116529
    31  C   -0.047266
    32  C   -0.017548
    33  C   -0.056519
    34  N   -0.328204
    35  C    0.080983
    36  C    0.026980
    37  C   -0.058464
    38  C    0.130315
    39  C   -0.032371
    40  C    0.322759
    41  O   -0.541974
    42  C    0.046728
    43  C    0.496725
    44  O   -0.541055
    45  O   -0.268244
    46  C    0.070440
    47  C    0.109776
    48  C   -0.102042
    49  C   -0.004581
    50  C   -0.048043
    51  C   -0.013592
    52  C   -0.026550
    53  C   -0.038204
    54  C   -0.015957
    55  C   -0.057828
    56  C   -0.034849
    57  C   -0.028283
    58  C   -0.032325
    59  C   -0.001387
    60  C   -0.062342
    61  C   -0.038018
    62  C   -0.040861
    63  C   -0.027873
    64  C   -0.014051
    65  C   -0.063704
    66  C   -0.060512
    67  H    0.030663
    68  H    0.039994
    69  H    0.019205
    70  H    0.034775
    71  H    0.029897
    72  H    0.038412
    73  H    0.012955
    74  H    0.029341
    75  H    0.026968
    76  H    0.026206
    77  H    0.038325
    78  H    0.042665
    79  H    0.021294
    80  H    0.027971
    81  H    0.029349
    82  H    0.038054
    83  H    0.035595
    84  H    0.035638
    85  H    0.033688
    86  H    0.020746
    87  H    0.032298
    88  H    0.025521
    89  H    0.023457
    90  H    0.027039
    91  H    0.011702
    92  H    0.012178
    93  H    0.030223
    94  H    0.008880
    95  H    0.040585
    96  H    0.025395
    97  H    0.048109
    98  H    0.053259
    99  H    0.041487
   100  H    0.046640
   101  H    0.047001
   102  H    0.042491
   103  H    0.056224
   104  H    0.028336
   105  H    0.019940
   106  H    0.024209
   107  H    0.039701
   108  H    0.021492
   109  H    0.026561
   110  H    0.018611
   111  H    0.020562
   112  H    0.021471
   113  H    0.004510
   114  H    0.021536
   115  H    0.014631
   116  H    0.021061
   117  H    0.018467
   118  H    0.006871
   119  H    0.027089
   120  H    0.016438
   121  H    0.025030
   122  H    0.011855
   123  H    0.012592
   124  H    0.020003
   125  H    0.013485
   126  H    0.019589
   127  H    0.016886
   128  H    0.008508
   129  H    0.018126
   130  H    0.027794
   131  H    0.014315
   132  H    0.019697
   133  H    0.017996
   134  H    0.023700
   135  H    0.030086
   136  H    0.010600
   137  H    0.019513
   138  H    0.027155
   139  H    0.017710
   140  H    0.008381
 Sum of Mulliken charges =  -0.00000

 Dipole moment (field-independent basis, Debye):
    X=             -3.6161    Y=              8.1084    Z=              0.0463  Tot=              8.8783
 N-N= 4.307430475454D+03 E-N= 0.000000000000D+00  KE=-9.289384009236D+03
 Leave Link  601 at Wed Apr 27 01:37:16 2022, MaxMem=  6710886400 cpu:               1.1 elap:               0.1
 (Enter /sw/apps/gaussian-16.0/g16/l9999.exe)
 1\1\GINC-BP1-COMPUTE159\SP\RZINDO CIS\STO-3G\C55H74Mg1N4O6\OF15641\27-
 Apr-2022\0\\#p ZINDO=(nstates=5)\\step_101_chromophore_25 ZINDO\\0,1\M
 g,0,-2.377,34.33,26.905\C,0,-3.159,32.521,29.687\C,0,-0.677,36.636,28.
 826\C,0,-1.782,36.115,24.062\C,0,-4.068,32.006,24.972\N,0,-2.013,34.56
 9,29.007\C,0,-2.328,33.614,29.96\C,0,-1.878,34.05,31.357\C,0,-1.306,35
 .533,31.122\C,0,-1.217,35.55,29.59\C,0,-2.199,36.691,31.671\C,0,-0.98,
 33.101,32.172\C,0,-1.421,32.568,33.57\C,0,-0.34,32.424,34.683\O,0,0.53

 Normal termination of Gaussian 16 at Wed Apr 27 01:37:16 2022.
