 Gaussian 16, Revision A.03,
 Gaussian 16:  ES64L-G16RevA.03 25-Dec-2016

 ------------------------------
 #p blyp/Def2SVP td=(nstates=5)
 ------------------------------

 ---------------------------------------------------
 step_1051_chromophore_19 TDDFT with blyp functional
 ---------------------------------------------------
 Symbolic Z-matrix:
 Charge =  0 Multiplicity = 1

                         Standard orientation:
 ---------------------------------------------------------------------
 Center     Atomic      Atomic             Coordinates (Angstroms)
 Number     Number       Type             X           Y           Z
 ---------------------------------------------------------------------
      1         12           0       -5.956692    0.472751   -0.150713
      2          6           0       -3.423174   -1.979758   -0.408405
      3          6           0       -3.597212    2.751496    0.474470
      4          6           0       -8.484234    2.520309    0.463580
      5          6           0       -8.260167   -2.249384   -0.418004
      6          7           0       -3.712043    0.357965   -0.119410
      7          6           0       -2.885408   -0.678750   -0.197282
      8          6           0       -1.502346   -0.273897    0.045312
      9          6           0       -1.524704    1.272959    0.330021
     10          6           0       -3.036721    1.503440    0.250359
     11          6           0       -0.836050    1.870019    1.701986
     12          6           0       -0.608632   -0.693853   -1.203493
     13          6           0        0.726425   -1.639912   -1.143477
     14          6           0        1.791203   -1.322648   -0.061001
     15          8           0        1.610888   -1.285833    1.161871
     16          8           0        3.054304   -1.042378   -0.590716
     17          7           0       -6.006475    2.395636    0.207448
     18          6           0       -4.919639    3.187763    0.400346
     19          6           0       -5.322316    4.500257    0.493276
     20          6           0       -6.731781    4.488990    0.545414
     21          6           0       -7.151857    3.149320    0.387050
     22          6           0       -4.247026    5.624312    0.320065
     23          6           0       -7.643706    5.668223    0.852606
     24          8           0       -8.883126    5.457860    0.827320
     25          6           0       -7.141159    7.049873    1.089743
     26          7           0       -8.064765    0.124942    0.280372
     27          6           0       -8.865099    1.182551    0.427416
     28          6           0      -10.343403    0.728853    0.652072
     29          6           0      -10.310984   -0.710328   -0.047378
     30          6           0       -8.763027   -0.981063    0.017289
     31          6           0      -10.873921    0.613061    2.157763
     32          6           0      -10.700244   -0.690391   -1.535568
     33          6           0      -11.615878   -1.874939   -2.105479
     34          7           0       -5.915565   -1.584436   -0.490518
     35          6           0       -6.919053   -2.481552   -0.675891
     36          6           0       -6.407623   -3.754766   -1.098710
     37          6           0       -5.027732   -3.585481   -0.914288
     38          6           0       -4.802515   -2.281329   -0.586099
     39          6           0       -7.294767   -4.929501   -1.657090
     40          6           0       -3.769225   -4.376669   -0.941336
     41          8           0       -3.514656   -5.543676   -1.136612
     42          6           0       -2.649478   -3.273691   -0.546323
     43          6           0       -2.062967   -3.731517    0.722083
     44          8           0       -2.647483   -3.752473    1.721899
     45          8           0       -0.768622   -4.123273    0.442140
     46          6           0       -0.152575   -4.831588    1.520870
     47          6           0        4.082528   -0.758607    0.406092
     48          6           0        5.510858   -0.802861   -0.154030
     49          6           0        6.746258   -0.447178    0.254513
     50          6           0        6.893448    0.225176    1.664264
     51          6           0        7.922466   -0.545042   -0.674500
     52          6           0        7.983144    0.524047   -1.748636
     53          6           0        8.860403    1.773685   -1.382559
     54          6           0        9.545111    2.435683   -2.589190
     55          6           0        8.592923    2.899969   -3.766539
     56          6           0       10.830183    1.690595   -3.087080
     57          6           0       12.070197    2.272335   -2.444388
     58          6           0       13.228258    1.220952   -2.209074
     59          6           0       13.702257    1.085400   -0.694834
     60          6           0       15.218048    0.838736   -0.752947
     61          6           0       12.975100    0.035375    0.136682
     62          6           0       12.615094    0.513588    1.553256
     63          6           0       12.925365   -0.586813    2.575072
     64          6           0       11.554587   -1.304625    3.003832
     65          6           0       10.870467   -0.575192    4.204619
     66          6           0       11.945110   -2.751228    3.391990
     67          1           0       -2.834303    3.519369    0.617236
     68          1           0       -9.292132    3.224948    0.671035
     69          1           0       -8.861546   -3.135316   -0.630534
     70          1           0       -1.057925   -0.823407    0.875688
     71          1           0       -1.235862    1.860061   -0.541467
     72          1           0       -1.553731    2.147174    2.474697
     73          1           0       -0.362467    2.821083    1.457556
     74          1           0       -0.154293    1.099237    2.061606
     75          1           0       -0.189829    0.230700   -1.600822
     76          1           0       -1.263150   -1.098397   -1.976631
     77          1           0        1.222756   -1.517120   -2.106000
     78          1           0        0.421591   -2.686312   -1.145960
     79          1           0       -3.251958    5.349965   -0.028531
     80          1           0       -4.075378    6.216957    1.218280
     81          1           0       -4.638587    6.336563   -0.405825
     82          1           0       -8.035360    7.577456    1.421080
     83          1           0       -6.632116    7.434968    0.205839
     84          1           0       -6.401520    7.068735    1.890544
     85          1           0      -11.078729    1.360770    0.154047
     86          1           0      -10.854443   -1.432317    0.563338
     87          1           0      -10.498293    1.320021    2.897413
     88          1           0      -10.817413   -0.365837    2.633353
     89          1           0      -11.927919    0.885777    2.091652
     90          1           0       -9.758013   -0.601936   -2.075666
     91          1           0      -11.213766    0.230078   -1.813770
     92          1           0      -11.300033   -2.294670   -3.061105
     93          1           0      -12.658734   -1.561985   -2.138929
     94          1           0      -11.577642   -2.722943   -1.422801
     95          1           0       -7.711072   -5.346352   -0.740017
     96          1           0       -6.679674   -5.610014   -2.246263
     97          1           0       -8.161500   -4.610415   -2.235333
     98          1           0       -1.910692   -3.269922   -1.347509
     99          1           0       -0.074762   -5.870948    1.201944
    100          1           0       -0.698318   -4.842398    2.465075
    101          1           0        0.888595   -4.514014    1.578772
    102          1           0        4.163660   -1.553819    1.147028
    103          1           0        4.032484    0.194878    0.930953
    104          1           0        5.401356   -1.121308   -1.190443
    105          1           0        7.161855   -0.664965    2.232543
    106          1           0        5.949507    0.668786    1.979838
    107          1           0        7.674854    0.985569    1.648364
    108          1           0        8.037679   -1.489767   -1.206793
    109          1           0        8.822124   -0.473985   -0.064429
    110          1           0        6.945101    0.827088   -1.884924
    111          1           0        8.401429    0.041876   -2.632956
    112          1           0        9.650731    1.573184   -0.659838
    113          1           0        8.024341    2.423494   -1.126757
    114          1           0        9.766797    3.436240   -2.219106
    115          1           0        7.536596    2.772445   -3.531347
    116          1           0        8.770654    2.532649   -4.777701
    117          1           0        8.665211    3.983627   -3.860863
    118          1           0       10.949228    1.724699   -4.170362
    119          1           0       10.660722    0.644865   -2.829173
    120          1           0       11.908133    2.767306   -1.486747
    121          1           0       12.490672    3.039478   -3.095103
    122          1           0       14.085459    1.612902   -2.755586
    123          1           0       12.954100    0.208911   -2.505038
    124          1           0       13.495658    2.064391   -0.261634
    125          1           0       15.724340    1.744378   -0.417563
    126          1           0       15.557379    0.553893   -1.748112
    127          1           0       15.451898    0.034047   -0.055809
    128          1           0       13.364404   -0.981916    0.194809
    129          1           0       12.061775   -0.220343   -0.399274
    130          1           0       11.587715    0.873284    1.493037
    131          1           0       13.219871    1.391816    1.775741
    132          1           0       13.369069   -0.042235    3.408912
    133          1           0       13.574656   -1.431095    2.346137
    134          1           0       10.961987   -1.367404    2.090620
    135          1           0       10.617031   -1.322474    4.956629
    136          1           0        9.918875   -0.151488    3.885586
    137          1           0       11.374949    0.327734    4.546355
    138          1           0       12.032278   -3.458429    2.567698
    139          1           0       11.238604   -3.244697    4.059125
    140          1           0       12.897953   -2.783185    3.919650
 ---------------------------------------------------------------------

 SCF Done:  E(RB-LYP) =  -3007.34871794     A.U. after   21 cycles

 Excitation energies and oscillator strengths:

 Excited State   1:      Singlet-A      1.8414 eV  673.30 nm  f=0.2770  <S**2>=0.000
     245 -> 248        0.18900
     246 -> 247        0.68273
     246 <- 247       -0.14121
 This state for optimization and/or second-order correction.
 Total Energy, E(TD-HF/TD-DFT) =  -3007.28104601
 Copying the excited state density for this state as the 1-particle RhoCI density.

 Excited State   2:      Singlet-A      1.8988 eV  652.96 nm  f=0.0053  <S**2>=0.000
     244 -> 247        0.70141

 Excited State   3:      Singlet-A      2.0325 eV  610.02 nm  f=0.0998  <S**2>=0.000
     245 -> 247        0.65144
     246 -> 248       -0.21858

 Excited State   4:      Singlet-A      2.2215 eV  558.11 nm  f=0.0028  <S**2>=0.000
     243 -> 247        0.70234

 Excited State   5:      Singlet-A      2.2893 eV  541.57 nm  f=0.0000  <S**2>=0.000
     242 -> 247        0.70709

 The electronic state is 1-A.
 Alpha  occ. eigenvalues --  -46.26232 -18.83276 -18.81887 -18.77840 -18.77019
 Alpha  occ. eigenvalues --  -18.76818 -18.74891 -14.02789 -14.02778 -14.00361
 Alpha  occ. eigenvalues --  -14.00330 -10.05479 -10.03079 -10.00347  -9.99405
 Alpha  occ. eigenvalues --   -9.98503  -9.96603  -9.96566  -9.96329  -9.95789
 Alpha  occ. eigenvalues --   -9.95755  -9.95496  -9.94831  -9.94683  -9.94568
 Alpha  occ. eigenvalues --   -9.94503  -9.94197  -9.94161  -9.94077  -9.93839
 Alpha  occ. eigenvalues --   -9.93695  -9.93552  -9.93343  -9.93330  -9.93275
 Alpha  occ. eigenvalues --   -9.92971  -9.92962  -9.92854  -9.92680  -9.92675
 Alpha  occ. eigenvalues --   -9.92644  -9.92522  -9.92474  -9.92215  -9.92105
 Alpha  occ. eigenvalues --   -9.92086  -9.92017  -9.91973  -9.91940  -9.91890
 Alpha  occ. eigenvalues --   -9.91810  -9.91614  -9.91601  -9.91528  -9.91330
 Alpha  occ. eigenvalues --   -9.91291  -9.91183  -9.91171  -9.91143  -9.91117
 Alpha  occ. eigenvalues --   -9.91101  -9.90935  -9.90850  -9.90723  -9.90594
 Alpha  occ. eigenvalues --   -9.90412  -2.91042  -1.71468  -1.70939  -1.70746
 Alpha  occ. eigenvalues --   -0.99329  -0.97996  -0.92614  -0.92441  -0.89900
 Alpha  occ. eigenvalues --   -0.89479  -0.87824  -0.86550  -0.86477  -0.85509
 Alpha  occ. eigenvalues --   -0.75214  -0.73615  -0.72857  -0.71912  -0.71710
 Alpha  occ. eigenvalues --   -0.71655  -0.71099  -0.70522  -0.70334  -0.70065
 Alpha  occ. eigenvalues --   -0.69314  -0.68837  -0.67803  -0.67225  -0.66748
 Alpha  occ. eigenvalues --   -0.66163  -0.65485  -0.65204  -0.64787  -0.64540
 Alpha  occ. eigenvalues --   -0.63996  -0.62606  -0.62145  -0.61205  -0.60620
 Alpha  occ. eigenvalues --   -0.60523  -0.60232  -0.59804  -0.59185  -0.58958
 Alpha  occ. eigenvalues --   -0.58290  -0.57864  -0.56821  -0.55988  -0.54468
 Alpha  occ. eigenvalues --   -0.53924  -0.53531  -0.52903  -0.52522  -0.51523
 Alpha  occ. eigenvalues --   -0.51398  -0.51198  -0.50625  -0.50438  -0.50230
 Alpha  occ. eigenvalues --   -0.49587  -0.49381  -0.48357  -0.47849  -0.46534
 Alpha  occ. eigenvalues --   -0.46384  -0.45913  -0.45606  -0.45301  -0.44994
 Alpha  occ. eigenvalues --   -0.44116  -0.43286  -0.42993  -0.42737  -0.42398
 Alpha  occ. eigenvalues --   -0.42061  -0.41728  -0.41125  -0.40999  -0.40804
 Alpha  occ. eigenvalues --   -0.40566  -0.40412  -0.40359  -0.39785  -0.39691
 Alpha  occ. eigenvalues --   -0.39535  -0.39485  -0.39447  -0.39229  -0.39089
 Alpha  occ. eigenvalues --   -0.38836  -0.38745  -0.38495  -0.38296  -0.38019
 Alpha  occ. eigenvalues --   -0.37867  -0.37738  -0.37545  -0.37393  -0.37285
 Alpha  occ. eigenvalues --   -0.37089  -0.36962  -0.36679  -0.36613  -0.36157
 Alpha  occ. eigenvalues --   -0.36068  -0.35906  -0.35806  -0.35704  -0.35610
 Alpha  occ. eigenvalues --   -0.35449  -0.35206  -0.34967  -0.34750  -0.34651
 Alpha  occ. eigenvalues --   -0.34375  -0.34130  -0.34086  -0.34014  -0.33946
 Alpha  occ. eigenvalues --   -0.33832  -0.33630  -0.33472  -0.33113  -0.33001
 Alpha  occ. eigenvalues --   -0.32795  -0.32744  -0.32675  -0.32575  -0.32261
 Alpha  occ. eigenvalues --   -0.32238  -0.32062  -0.31987  -0.31897  -0.31714
 Alpha  occ. eigenvalues --   -0.31529  -0.31309  -0.31074  -0.30941  -0.30834
 Alpha  occ. eigenvalues --   -0.30613  -0.30294  -0.30175  -0.30111  -0.29829
 Alpha  occ. eigenvalues --   -0.29564  -0.29490  -0.29352  -0.29196  -0.29043
 Alpha  occ. eigenvalues --   -0.28837  -0.28515  -0.28469  -0.28249  -0.27886
 Alpha  occ. eigenvalues --   -0.27336  -0.27186  -0.27030  -0.26844  -0.26593
 Alpha  occ. eigenvalues --   -0.26327  -0.26298  -0.26105  -0.25281  -0.25168
 Alpha  occ. eigenvalues --   -0.24711  -0.24472  -0.23947  -0.23844  -0.23335
 Alpha  occ. eigenvalues --   -0.23205  -0.22952  -0.22507  -0.21568  -0.20806
 Alpha  occ. eigenvalues --   -0.20139  -0.19667  -0.19286  -0.18161  -0.16906
 Alpha  occ. eigenvalues --   -0.15701
 Alpha virt. eigenvalues --   -0.11253  -0.06598  -0.05694  -0.04503  -0.04295
 Alpha virt. eigenvalues --   -0.01550  -0.01421  -0.01062  -0.00963   0.00130
 Alpha virt. eigenvalues --    0.00621   0.01474   0.01909   0.02807   0.02934

 Mulliken charges:
               1
     1  Mg   0.710990
     2  C   -0.032408
     3  C   -0.068166
     4  C   -0.026594
     5  C   -0.073436
     6  N   -0.185203
     7  C   -0.071434
     8  C    0.034773
     9  C    0.046480
    10  C   -0.045341
    11  C    0.111445
    12  C    0.061848
    13  C    0.114758
    14  C    0.118486
    15  O   -0.209313
    16  O   -0.272157
    17  N   -0.353145
    18  C    0.173761
    19  C   -0.124760
    20  C    0.074720
    21  C    0.070221
    22  C    0.145966
    23  C   -0.093945
    24  O   -0.201668
    25  C    0.149260
    26  N   -0.161948
    27  C    0.047057
    28  C    0.024239
    29  C   -0.015381
    30  C    0.030467
    31  C    0.102279
    32  C    0.104370
    33  C    0.053545
    34  N   -0.202476
    35  C    0.093571
    36  C   -0.205468
    37  C    0.043684
    38  C    0.130383
    39  C    0.172877
    40  C   -0.028257
    41  O   -0.104338
    42  C    0.003927
    43  C    0.096626
    44  O   -0.102730
    45  O   -0.272158
    46  C    0.206231
    47  C    0.332593
    48  C   -0.156230
    49  C   -0.171158
    50  C    0.120910
    51  C    0.166492
    52  C    0.054910
    53  C    0.103587
    54  C   -0.071497
    55  C    0.078457
    56  C    0.139810
    57  C    0.063744
    58  C    0.082606
    59  C   -0.105165
    60  C    0.129486
    61  C    0.119490
    62  C    0.068837
    63  C    0.088462
    64  C   -0.099851
    65  C    0.125406
    66  C    0.078625
    67  H   -0.081227
    68  H   -0.042930
    69  H   -0.072080
    70  H    0.003699
    71  H   -0.020321
    72  H    0.001348
    73  H   -0.007808
    74  H    0.021853
    75  H   -0.021649
    76  H   -0.006298
    77  H   -0.014959
    78  H    0.029188
    79  H   -0.001546
    80  H   -0.012571
    81  H   -0.006481
    82  H    0.001903
    83  H    0.015270
    84  H   -0.001657
    85  H   -0.027470
    86  H   -0.029654
    87  H   -0.007028
    88  H   -0.004328
    89  H   -0.012764
    90  H   -0.014697
    91  H   -0.021075
    92  H   -0.002235
    93  H    0.000357
    94  H   -0.014485
    95  H    0.010404
    96  H    0.019254
    97  H   -0.000090
    98  H   -0.014880
    99  H   -0.000625
   100  H    0.027225
   101  H    0.010560
   102  H    0.007308
   103  H    0.004248
   104  H   -0.034383
   105  H    0.019081
   106  H   -0.008094
   107  H    0.004396
   108  H   -0.028316
   109  H   -0.048185
   110  H   -0.024068
   111  H   -0.028588
   112  H   -0.018257
   113  H   -0.033191
   114  H   -0.037130
   115  H   -0.030458
   116  H   -0.013621
   117  H   -0.027877
   118  H   -0.031720
   119  H   -0.032306
   120  H   -0.025167
   121  H   -0.032677
   122  H   -0.038059
   123  H   -0.025612
   124  H   -0.037418
   125  H   -0.018451
   126  H   -0.011005
   127  H   -0.025970
   128  H   -0.042570
   129  H   -0.058900
   130  H   -0.017995
   131  H   -0.032918
   132  H   -0.037571
   133  H   -0.020426
   134  H   -0.023532
   135  H   -0.011674
   136  H   -0.027368
   137  H   -0.012839
   138  H   -0.019589
   139  H   -0.027571
   140  H   -0.014884
 Sum of Mulliken charges =  -0.00000

 Dipole moment (field-independent basis, Debye):
    X=              3.0337    Y=              2.3434    Z=             -1.7694  Tot=              4.2221
 Quadrupole moment (field-independent basis, Debye-Ang):
   XX=           -393.3012   YY=           -415.5819   ZZ=           -407.1088
   XY=             19.6630   XZ=             11.3301   YZ=              0.3660

 Normal termination of Gaussian 16 at Wed Apr 27 03:38:07 2022.
