 Gaussian 16, Revision A.03,
 Gaussian 16:  ES64L-G16RevA.03 25-Dec-2016

 -----------------------------------
 #p cam-b3lyp/Def2SVP td=(nstates=5)
 -----------------------------------

 --------------------------------------------------------
 step_1051_chromophore_19 TDDFT with cam-b3lyp functional
 --------------------------------------------------------
 Symbolic Z-matrix:
 Charge =  0 Multiplicity = 1

                         Standard orientation:
 ---------------------------------------------------------------------
 Center     Atomic      Atomic             Coordinates (Angstroms)
 Number     Number       Type             X           Y           Z
 ---------------------------------------------------------------------
      1         12           0       -5.956692    0.472751   -0.150713
      2          6           0       -3.423174   -1.979758   -0.408405
      3          6           0       -3.597212    2.751496    0.474470
      4          6           0       -8.484234    2.520309    0.463580
      5          6           0       -8.260167   -2.249384   -0.418004
      6          7           0       -3.712043    0.357965   -0.119410
      7          6           0       -2.885408   -0.678750   -0.197282
      8          6           0       -1.502346   -0.273897    0.045312
      9          6           0       -1.524704    1.272959    0.330021
     10          6           0       -3.036721    1.503440    0.250359
     11          6           0       -0.836050    1.870019    1.701986
     12          6           0       -0.608632   -0.693853   -1.203493
     13          6           0        0.726425   -1.639912   -1.143477
     14          6           0        1.791203   -1.322648   -0.061001
     15          8           0        1.610888   -1.285833    1.161871
     16          8           0        3.054304   -1.042378   -0.590716
     17          7           0       -6.006475    2.395636    0.207448
     18          6           0       -4.919639    3.187763    0.400346
     19          6           0       -5.322316    4.500257    0.493276
     20          6           0       -6.731781    4.488990    0.545414
     21          6           0       -7.151857    3.149320    0.387050
     22          6           0       -4.247026    5.624312    0.320065
     23          6           0       -7.643706    5.668223    0.852606
     24          8           0       -8.883126    5.457860    0.827320
     25          6           0       -7.141159    7.049873    1.089743
     26          7           0       -8.064765    0.124942    0.280372
     27          6           0       -8.865099    1.182551    0.427416
     28          6           0      -10.343403    0.728853    0.652072
     29          6           0      -10.310984   -0.710328   -0.047378
     30          6           0       -8.763027   -0.981063    0.017289
     31          6           0      -10.873921    0.613061    2.157763
     32          6           0      -10.700244   -0.690391   -1.535568
     33          6           0      -11.615878   -1.874939   -2.105479
     34          7           0       -5.915565   -1.584436   -0.490518
     35          6           0       -6.919053   -2.481552   -0.675891
     36          6           0       -6.407623   -3.754766   -1.098710
     37          6           0       -5.027732   -3.585481   -0.914288
     38          6           0       -4.802515   -2.281329   -0.586099
     39          6           0       -7.294767   -4.929501   -1.657090
     40          6           0       -3.769225   -4.376669   -0.941336
     41          8           0       -3.514656   -5.543676   -1.136612
     42          6           0       -2.649478   -3.273691   -0.546323
     43          6           0       -2.062967   -3.731517    0.722083
     44          8           0       -2.647483   -3.752473    1.721899
     45          8           0       -0.768622   -4.123273    0.442140
     46          6           0       -0.152575   -4.831588    1.520870
     47          6           0        4.082528   -0.758607    0.406092
     48          6           0        5.510858   -0.802861   -0.154030
     49          6           0        6.746258   -0.447178    0.254513
     50          6           0        6.893448    0.225176    1.664264
     51          6           0        7.922466   -0.545042   -0.674500
     52          6           0        7.983144    0.524047   -1.748636
     53          6           0        8.860403    1.773685   -1.382559
     54          6           0        9.545111    2.435683   -2.589190
     55          6           0        8.592923    2.899969   -3.766539
     56          6           0       10.830183    1.690595   -3.087080
     57          6           0       12.070197    2.272335   -2.444388
     58          6           0       13.228258    1.220952   -2.209074
     59          6           0       13.702257    1.085400   -0.694834
     60          6           0       15.218048    0.838736   -0.752947
     61          6           0       12.975100    0.035375    0.136682
     62          6           0       12.615094    0.513588    1.553256
     63          6           0       12.925365   -0.586813    2.575072
     64          6           0       11.554587   -1.304625    3.003832
     65          6           0       10.870467   -0.575192    4.204619
     66          6           0       11.945110   -2.751228    3.391990
     67          1           0       -2.834303    3.519369    0.617236
     68          1           0       -9.292132    3.224948    0.671035
     69          1           0       -8.861546   -3.135316   -0.630534
     70          1           0       -1.057925   -0.823407    0.875688
     71          1           0       -1.235862    1.860061   -0.541467
     72          1           0       -1.553731    2.147174    2.474697
     73          1           0       -0.362467    2.821083    1.457556
     74          1           0       -0.154293    1.099237    2.061606
     75          1           0       -0.189829    0.230700   -1.600822
     76          1           0       -1.263150   -1.098397   -1.976631
     77          1           0        1.222756   -1.517120   -2.106000
     78          1           0        0.421591   -2.686312   -1.145960
     79          1           0       -3.251958    5.349965   -0.028531
     80          1           0       -4.075378    6.216957    1.218280
     81          1           0       -4.638587    6.336563   -0.405825
     82          1           0       -8.035360    7.577456    1.421080
     83          1           0       -6.632116    7.434968    0.205839
     84          1           0       -6.401520    7.068735    1.890544
     85          1           0      -11.078729    1.360770    0.154047
     86          1           0      -10.854443   -1.432317    0.563338
     87          1           0      -10.498293    1.320021    2.897413
     88          1           0      -10.817413   -0.365837    2.633353
     89          1           0      -11.927919    0.885777    2.091652
     90          1           0       -9.758013   -0.601936   -2.075666
     91          1           0      -11.213766    0.230078   -1.813770
     92          1           0      -11.300033   -2.294670   -3.061105
     93          1           0      -12.658734   -1.561985   -2.138929
     94          1           0      -11.577642   -2.722943   -1.422801
     95          1           0       -7.711072   -5.346352   -0.740017
     96          1           0       -6.679674   -5.610014   -2.246263
     97          1           0       -8.161500   -4.610415   -2.235333
     98          1           0       -1.910692   -3.269922   -1.347509
     99          1           0       -0.074762   -5.870948    1.201944
    100          1           0       -0.698318   -4.842398    2.465075
    101          1           0        0.888595   -4.514014    1.578772
    102          1           0        4.163660   -1.553819    1.147028
    103          1           0        4.032484    0.194878    0.930953
    104          1           0        5.401356   -1.121308   -1.190443
    105          1           0        7.161855   -0.664965    2.232543
    106          1           0        5.949507    0.668786    1.979838
    107          1           0        7.674854    0.985569    1.648364
    108          1           0        8.037679   -1.489767   -1.206793
    109          1           0        8.822124   -0.473985   -0.064429
    110          1           0        6.945101    0.827088   -1.884924
    111          1           0        8.401429    0.041876   -2.632956
    112          1           0        9.650731    1.573184   -0.659838
    113          1           0        8.024341    2.423494   -1.126757
    114          1           0        9.766797    3.436240   -2.219106
    115          1           0        7.536596    2.772445   -3.531347
    116          1           0        8.770654    2.532649   -4.777701
    117          1           0        8.665211    3.983627   -3.860863
    118          1           0       10.949228    1.724699   -4.170362
    119          1           0       10.660722    0.644865   -2.829173
    120          1           0       11.908133    2.767306   -1.486747
    121          1           0       12.490672    3.039478   -3.095103
    122          1           0       14.085459    1.612902   -2.755586
    123          1           0       12.954100    0.208911   -2.505038
    124          1           0       13.495658    2.064391   -0.261634
    125          1           0       15.724340    1.744378   -0.417563
    126          1           0       15.557379    0.553893   -1.748112
    127          1           0       15.451898    0.034047   -0.055809
    128          1           0       13.364404   -0.981916    0.194809
    129          1           0       12.061775   -0.220343   -0.399274
    130          1           0       11.587715    0.873284    1.493037
    131          1           0       13.219871    1.391816    1.775741
    132          1           0       13.369069   -0.042235    3.408912
    133          1           0       13.574656   -1.431095    2.346137
    134          1           0       10.961987   -1.367404    2.090620
    135          1           0       10.617031   -1.322474    4.956629
    136          1           0        9.918875   -0.151488    3.885586
    137          1           0       11.374949    0.327734    4.546355
    138          1           0       12.032278   -3.458429    2.567698
    139          1           0       11.238604   -3.244697    4.059125
    140          1           0       12.897953   -2.783185    3.919650
 ---------------------------------------------------------------------

 SCF Done:  E(RCAM-B3LYP) =  -3007.14457108     A.U. after   18 cycles

 Excitation energies and oscillator strengths:

 Excited State   1:      Singlet-A      1.7877 eV  693.55 nm  f=0.3598  <S**2>=0.000
     245 -> 248        0.17902
     246 -> 247        0.68451
     245 <- 248        0.10362
 This state for optimization and/or second-order correction.
 Total Energy, E(TD-HF/TD-DFT) =  -3007.07887494
 Copying the excited state density for this state as the 1-particle RhoCI density.

 Excited State   2:      Singlet-A      2.2468 eV  551.84 nm  f=0.1534  <S**2>=0.000
     245 -> 247        0.64894
     246 -> 248       -0.26749

 Excited State   3:      Singlet-A      3.4524 eV  359.13 nm  f=0.0050  <S**2>=0.000
     240 -> 247       -0.17178
     241 -> 247       -0.30979
     244 -> 247        0.57829

 Excited State   4:      Singlet-A      3.5456 eV  349.68 nm  f=0.1299  <S**2>=0.000
     239 -> 247       -0.24952
     239 -> 249       -0.14716
     240 -> 247        0.16784
     241 -> 247        0.31345
     244 -> 247        0.29874
     245 -> 247        0.11736
     246 -> 248        0.39683

 Excited State   5:      Singlet-A      3.5951 eV  344.87 nm  f=0.0542  <S**2>=0.000
     239 -> 247        0.52342
     239 -> 249        0.27339
     239 -> 250       -0.12916
     240 -> 247        0.20621
     241 -> 247        0.14781
     246 -> 248        0.21314

 The electronic state is 1-A.
 Alpha  occ. eigenvalues --  -46.87670 -19.26170 -19.24995 -19.20896 -19.20481
 Alpha  occ. eigenvalues --  -19.20396 -19.17710 -14.41631 -14.41578 -14.38921
 Alpha  occ. eigenvalues --  -14.38405 -10.40931 -10.38628 -10.36166 -10.34245
 Alpha  occ. eigenvalues --  -10.32513 -10.31452 -10.31111 -10.30609 -10.29832
 Alpha  occ. eigenvalues --  -10.29806 -10.29473 -10.29300 -10.28979 -10.28968
 Alpha  occ. eigenvalues --  -10.28848 -10.28627 -10.28461 -10.28216 -10.27782
 Alpha  occ. eigenvalues --  -10.27667 -10.27634 -10.27570 -10.27557 -10.27467
 Alpha  occ. eigenvalues --  -10.27130 -10.26810 -10.26795 -10.26601 -10.26471
 Alpha  occ. eigenvalues --  -10.26399 -10.26371 -10.26283 -10.25965 -10.25947
 Alpha  occ. eigenvalues --  -10.25917 -10.25844 -10.25839 -10.25735 -10.25564
 Alpha  occ. eigenvalues --  -10.25561 -10.25536 -10.25487 -10.25329 -10.25305
 Alpha  occ. eigenvalues --  -10.25016 -10.24949 -10.24834 -10.24820 -10.24803
 Alpha  occ. eigenvalues --  -10.24697 -10.24657 -10.24482 -10.24335 -10.24241
 Alpha  occ. eigenvalues --  -10.23981  -3.16393  -1.91292  -1.90849  -1.90708
 Alpha  occ. eigenvalues --   -1.18243  -1.16431  -1.11389  -1.10756  -1.07754
 Alpha  occ. eigenvalues --   -1.07431  -1.05921  -1.04264  -1.04131  -1.02641
 Alpha  occ. eigenvalues --   -0.92629  -0.90500  -0.89659  -0.88627  -0.88391
 Alpha  occ. eigenvalues --   -0.88322  -0.87659  -0.87085  -0.86984  -0.86727
 Alpha  occ. eigenvalues --   -0.85608  -0.85097  -0.84053  -0.83480  -0.82825
 Alpha  occ. eigenvalues --   -0.82226  -0.81436  -0.81112  -0.80675  -0.80334
 Alpha  occ. eigenvalues --   -0.79739  -0.78410  -0.77501  -0.76701  -0.76044
 Alpha  occ. eigenvalues --   -0.75902  -0.75585  -0.75127  -0.74462  -0.74202
 Alpha  occ. eigenvalues --   -0.73350  -0.72956  -0.71711  -0.70815  -0.69082
 Alpha  occ. eigenvalues --   -0.68653  -0.68092  -0.67348  -0.66839  -0.65802
 Alpha  occ. eigenvalues --   -0.65473  -0.65284  -0.64659  -0.64360  -0.64133
 Alpha  occ. eigenvalues --   -0.63603  -0.63341  -0.62320  -0.61609  -0.60414
 Alpha  occ. eigenvalues --   -0.59868  -0.59441  -0.59327  -0.58952  -0.58480
 Alpha  occ. eigenvalues --   -0.57600  -0.56550  -0.56331  -0.55971  -0.55657
 Alpha  occ. eigenvalues --   -0.55118  -0.54943  -0.54689  -0.54099  -0.53567
 Alpha  occ. eigenvalues --   -0.53379  -0.53316  -0.52979  -0.52880  -0.52341
 Alpha  occ. eigenvalues --   -0.52233  -0.52050  -0.51942  -0.51889  -0.51685
 Alpha  occ. eigenvalues --   -0.51525  -0.51141  -0.50979  -0.50896  -0.50374
 Alpha  occ. eigenvalues --   -0.50338  -0.50073  -0.49919  -0.49795  -0.49645
 Alpha  occ. eigenvalues --   -0.49418  -0.49179  -0.49145  -0.48712  -0.48506
 Alpha  occ. eigenvalues --   -0.48213  -0.48196  -0.47965  -0.47797  -0.47568
 Alpha  occ. eigenvalues --   -0.47499  -0.47364  -0.46884  -0.46852  -0.46555
 Alpha  occ. eigenvalues --   -0.46365  -0.46110  -0.46061  -0.45781  -0.45749
 Alpha  occ. eigenvalues --   -0.45555  -0.45400  -0.45237  -0.45071  -0.44923
 Alpha  occ. eigenvalues --   -0.44612  -0.44507  -0.44276  -0.44181  -0.44085
 Alpha  occ. eigenvalues --   -0.43896  -0.43706  -0.43669  -0.43448  -0.43351
 Alpha  occ. eigenvalues --   -0.43154  -0.42929  -0.42778  -0.42380  -0.42235
 Alpha  occ. eigenvalues --   -0.41896  -0.41610  -0.41477  -0.41297  -0.41103
 Alpha  occ. eigenvalues --   -0.40682  -0.40644  -0.40527  -0.40315  -0.40110
 Alpha  occ. eigenvalues --   -0.39894  -0.39557  -0.39484  -0.39179  -0.38790
 Alpha  occ. eigenvalues --   -0.38342  -0.38021  -0.37936  -0.37899  -0.37797
 Alpha  occ. eigenvalues --   -0.37643  -0.37071  -0.36780  -0.36392  -0.36186
 Alpha  occ. eigenvalues --   -0.35890  -0.35226  -0.35006  -0.34713  -0.34374
 Alpha  occ. eigenvalues --   -0.34046  -0.33678  -0.33191  -0.31372  -0.30856
 Alpha  occ. eigenvalues --   -0.30463  -0.30267  -0.29329  -0.29082  -0.23586
 Alpha  occ. eigenvalues --   -0.21138
 Alpha virt. eigenvalues --   -0.08312  -0.01195   0.00835   0.02721   0.03320
 Alpha virt. eigenvalues --    0.03508   0.05681   0.06172   0.06482   0.06589
 Alpha virt. eigenvalues --    0.06746   0.08458   0.08579   0.09071   0.09163

 Mulliken charges:
               1
     1  Mg   0.846004
     2  C   -0.063187
     3  C   -0.079940
     4  C   -0.035619
     5  C   -0.085203
     6  N   -0.258685
     7  C   -0.019239
     8  C   -0.027480
     9  C   -0.006656
    10  C   -0.023285
    11  C    0.056427
    12  C    0.016013
    13  C    0.049237
    14  C    0.196012
    15  O   -0.249126
    16  O   -0.338674
    17  N   -0.444937
    18  C    0.174140
    19  C   -0.132224
    20  C   -0.001062
    21  C    0.089384
    22  C    0.090952
    23  C   -0.015347
    24  O   -0.247255
    25  C    0.069374
    26  N   -0.232800
    27  C    0.052536
    28  C   -0.022102
    29  C   -0.071685
    30  C    0.052964
    31  C    0.047332
    32  C    0.045478
    33  C   -0.004153
    34  N   -0.297553
    35  C    0.102549
    36  C   -0.188448
    37  C   -0.042666
    38  C    0.169631
    39  C    0.122199
    40  C    0.076798
    41  O   -0.140114
    42  C   -0.068964
    43  C    0.187039
    44  O   -0.138126
    45  O   -0.336109
    46  C    0.165030
    47  C    0.303786
    48  C   -0.172786
    49  C   -0.198676
    50  C    0.066271
    51  C    0.110734
    52  C    0.000229
    53  C    0.057609
    54  C   -0.129993
    55  C    0.021018
    56  C    0.085178
    57  C    0.011610
    58  C    0.031027
    59  C   -0.160091
    60  C    0.069134
    61  C    0.068237
    62  C    0.016534
    63  C    0.030447
    64  C   -0.153187
    65  C    0.065945
    66  C    0.018027
    67  H   -0.046006
    68  H   -0.001903
    69  H   -0.033753
    70  H    0.039214
    71  H    0.014500
    72  H    0.027266
    73  H    0.014796
    74  H    0.043539
    75  H    0.009535
    76  H    0.023419
    77  H    0.021773
    78  H    0.057577
    79  H    0.023516
    80  H    0.011375
    81  H    0.016110
    82  H    0.035426
    83  H    0.040911
    84  H    0.026002
    85  H    0.007712
    86  H    0.006045
    87  H    0.019319
    88  H    0.017612
    89  H    0.010648
    90  H    0.015238
    91  H    0.009468
    92  H    0.021212
    93  H    0.023761
    94  H    0.005177
    95  H    0.037646
    96  H    0.047384
    97  H    0.026593
    98  H    0.027219
    99  H    0.022214
   100  H    0.054196
   101  H    0.032362
   102  H    0.035523
   103  H    0.028029
   104  H   -0.001313
   105  H    0.040943
   106  H    0.014940
   107  H    0.025340
   108  H    0.004830
   109  H   -0.021646
   110  H    0.003671
   111  H   -0.000682
   112  H    0.003586
   113  H   -0.003946
   114  H   -0.003051
   115  H   -0.005737
   116  H    0.010229
   117  H   -0.002738
   118  H   -0.001530
   119  H   -0.007849
   120  H    0.000190
   121  H   -0.003216
   122  H   -0.006749
   123  H    0.001316
   124  H   -0.006077
   125  H    0.006209
   126  H    0.013117
   127  H   -0.001582
   128  H   -0.012775
   129  H   -0.032751
   130  H    0.005992
   131  H   -0.003321
   132  H   -0.007869
   133  H    0.008372
   134  H    0.003921
   135  H    0.012555
   136  H   -0.005083
   137  H    0.011189
   138  H    0.005360
   139  H   -0.002322
   140  H    0.008312
 Sum of Mulliken charges =  -0.00000

 Dipole moment (field-independent basis, Debye):
    X=              3.0860    Y=              1.5795    Z=             -2.0248  Tot=              4.0148
 Quadrupole moment (field-independent basis, Debye-Ang):
   XX=           -391.2019   YY=           -411.9458   ZZ=           -406.6868
   XY=             24.4686   XZ=             12.6864   YZ=              1.3167

 Normal termination of Gaussian 16 at Wed Apr 27 02:45:35 2022.
