 Gaussian 16, Revision A.03,
 Gaussian 16:  ES64L-G16RevA.03 25-Dec-2016

 ---------------------------------
 #p PBE1PBE/Def2SVP td=(nstates=5)
 ---------------------------------

 ------------------------------------------------------
 step_1051_chromophore_19 TDDFT with PBE1PBE functional
 ------------------------------------------------------
 Symbolic Z-matrix:
 Charge =  0 Multiplicity = 1

                         Standard orientation:
 ---------------------------------------------------------------------
 Center     Atomic      Atomic             Coordinates (Angstroms)
 Number     Number       Type             X           Y           Z
 ---------------------------------------------------------------------
      1         12           0       -5.956692    0.472751   -0.150713
      2          6           0       -3.423174   -1.979758   -0.408405
      3          6           0       -3.597212    2.751496    0.474470
      4          6           0       -8.484234    2.520309    0.463580
      5          6           0       -8.260167   -2.249384   -0.418004
      6          7           0       -3.712043    0.357965   -0.119410
      7          6           0       -2.885408   -0.678750   -0.197282
      8          6           0       -1.502346   -0.273897    0.045312
      9          6           0       -1.524704    1.272959    0.330021
     10          6           0       -3.036721    1.503440    0.250359
     11          6           0       -0.836050    1.870019    1.701986
     12          6           0       -0.608632   -0.693853   -1.203493
     13          6           0        0.726425   -1.639912   -1.143477
     14          6           0        1.791203   -1.322648   -0.061001
     15          8           0        1.610888   -1.285833    1.161871
     16          8           0        3.054304   -1.042378   -0.590716
     17          7           0       -6.006475    2.395636    0.207448
     18          6           0       -4.919639    3.187763    0.400346
     19          6           0       -5.322316    4.500257    0.493276
     20          6           0       -6.731781    4.488990    0.545414
     21          6           0       -7.151857    3.149320    0.387050
     22          6           0       -4.247026    5.624312    0.320065
     23          6           0       -7.643706    5.668223    0.852606
     24          8           0       -8.883126    5.457860    0.827320
     25          6           0       -7.141159    7.049873    1.089743
     26          7           0       -8.064765    0.124942    0.280372
     27          6           0       -8.865099    1.182551    0.427416
     28          6           0      -10.343403    0.728853    0.652072
     29          6           0      -10.310984   -0.710328   -0.047378
     30          6           0       -8.763027   -0.981063    0.017289
     31          6           0      -10.873921    0.613061    2.157763
     32          6           0      -10.700244   -0.690391   -1.535568
     33          6           0      -11.615878   -1.874939   -2.105479
     34          7           0       -5.915565   -1.584436   -0.490518
     35          6           0       -6.919053   -2.481552   -0.675891
     36          6           0       -6.407623   -3.754766   -1.098710
     37          6           0       -5.027732   -3.585481   -0.914288
     38          6           0       -4.802515   -2.281329   -0.586099
     39          6           0       -7.294767   -4.929501   -1.657090
     40          6           0       -3.769225   -4.376669   -0.941336
     41          8           0       -3.514656   -5.543676   -1.136612
     42          6           0       -2.649478   -3.273691   -0.546323
     43          6           0       -2.062967   -3.731517    0.722083
     44          8           0       -2.647483   -3.752473    1.721899
     45          8           0       -0.768622   -4.123273    0.442140
     46          6           0       -0.152575   -4.831588    1.520870
     47          6           0        4.082528   -0.758607    0.406092
     48          6           0        5.510858   -0.802861   -0.154030
     49          6           0        6.746258   -0.447178    0.254513
     50          6           0        6.893448    0.225176    1.664264
     51          6           0        7.922466   -0.545042   -0.674500
     52          6           0        7.983144    0.524047   -1.748636
     53          6           0        8.860403    1.773685   -1.382559
     54          6           0        9.545111    2.435683   -2.589190
     55          6           0        8.592923    2.899969   -3.766539
     56          6           0       10.830183    1.690595   -3.087080
     57          6           0       12.070197    2.272335   -2.444388
     58          6           0       13.228258    1.220952   -2.209074
     59          6           0       13.702257    1.085400   -0.694834
     60          6           0       15.218048    0.838736   -0.752947
     61          6           0       12.975100    0.035375    0.136682
     62          6           0       12.615094    0.513588    1.553256
     63          6           0       12.925365   -0.586813    2.575072
     64          6           0       11.554587   -1.304625    3.003832
     65          6           0       10.870467   -0.575192    4.204619
     66          6           0       11.945110   -2.751228    3.391990
     67          1           0       -2.834303    3.519369    0.617236
     68          1           0       -9.292132    3.224948    0.671035
     69          1           0       -8.861546   -3.135316   -0.630534
     70          1           0       -1.057925   -0.823407    0.875688
     71          1           0       -1.235862    1.860061   -0.541467
     72          1           0       -1.553731    2.147174    2.474697
     73          1           0       -0.362467    2.821083    1.457556
     74          1           0       -0.154293    1.099237    2.061606
     75          1           0       -0.189829    0.230700   -1.600822
     76          1           0       -1.263150   -1.098397   -1.976631
     77          1           0        1.222756   -1.517120   -2.106000
     78          1           0        0.421591   -2.686312   -1.145960
     79          1           0       -3.251958    5.349965   -0.028531
     80          1           0       -4.075378    6.216957    1.218280
     81          1           0       -4.638587    6.336563   -0.405825
     82          1           0       -8.035360    7.577456    1.421080
     83          1           0       -6.632116    7.434968    0.205839
     84          1           0       -6.401520    7.068735    1.890544
     85          1           0      -11.078729    1.360770    0.154047
     86          1           0      -10.854443   -1.432317    0.563338
     87          1           0      -10.498293    1.320021    2.897413
     88          1           0      -10.817413   -0.365837    2.633353
     89          1           0      -11.927919    0.885777    2.091652
     90          1           0       -9.758013   -0.601936   -2.075666
     91          1           0      -11.213766    0.230078   -1.813770
     92          1           0      -11.300033   -2.294670   -3.061105
     93          1           0      -12.658734   -1.561985   -2.138929
     94          1           0      -11.577642   -2.722943   -1.422801
     95          1           0       -7.711072   -5.346352   -0.740017
     96          1           0       -6.679674   -5.610014   -2.246263
     97          1           0       -8.161500   -4.610415   -2.235333
     98          1           0       -1.910692   -3.269922   -1.347509
     99          1           0       -0.074762   -5.870948    1.201944
    100          1           0       -0.698318   -4.842398    2.465075
    101          1           0        0.888595   -4.514014    1.578772
    102          1           0        4.163660   -1.553819    1.147028
    103          1           0        4.032484    0.194878    0.930953
    104          1           0        5.401356   -1.121308   -1.190443
    105          1           0        7.161855   -0.664965    2.232543
    106          1           0        5.949507    0.668786    1.979838
    107          1           0        7.674854    0.985569    1.648364
    108          1           0        8.037679   -1.489767   -1.206793
    109          1           0        8.822124   -0.473985   -0.064429
    110          1           0        6.945101    0.827088   -1.884924
    111          1           0        8.401429    0.041876   -2.632956
    112          1           0        9.650731    1.573184   -0.659838
    113          1           0        8.024341    2.423494   -1.126757
    114          1           0        9.766797    3.436240   -2.219106
    115          1           0        7.536596    2.772445   -3.531347
    116          1           0        8.770654    2.532649   -4.777701
    117          1           0        8.665211    3.983627   -3.860863
    118          1           0       10.949228    1.724699   -4.170362
    119          1           0       10.660722    0.644865   -2.829173
    120          1           0       11.908133    2.767306   -1.486747
    121          1           0       12.490672    3.039478   -3.095103
    122          1           0       14.085459    1.612902   -2.755586
    123          1           0       12.954100    0.208911   -2.505038
    124          1           0       13.495658    2.064391   -0.261634
    125          1           0       15.724340    1.744378   -0.417563
    126          1           0       15.557379    0.553893   -1.748112
    127          1           0       15.451898    0.034047   -0.055809
    128          1           0       13.364404   -0.981916    0.194809
    129          1           0       12.061775   -0.220343   -0.399274
    130          1           0       11.587715    0.873284    1.493037
    131          1           0       13.219871    1.391816    1.775741
    132          1           0       13.369069   -0.042235    3.408912
    133          1           0       13.574656   -1.431095    2.346137
    134          1           0       10.961987   -1.367404    2.090620
    135          1           0       10.617031   -1.322474    4.956629
    136          1           0        9.918875   -0.151488    3.885586
    137          1           0       11.374949    0.327734    4.546355
    138          1           0       12.032278   -3.458429    2.567698
    139          1           0       11.238604   -3.244697    4.059125
    140          1           0       12.897953   -2.783185    3.919650
 ---------------------------------------------------------------------

 SCF Done:  E(RPBE1PBE) =  -3005.33150322     A.U. after   15 cycles

 Excitation energies and oscillator strengths:

 Excited State   1:      Singlet-A      1.9040 eV  651.19 nm  f=0.3472  <S**2>=0.000
     245 -> 248       -0.17617
     246 -> 247        0.68992
 This state for optimization and/or second-order correction.
 Total Energy, E(TD-HF/TD-DFT) =  -3005.26153412
 Copying the excited state density for this state as the 1-particle RhoCI density.

 Excited State   2:      Singlet-A      2.2487 eV  551.36 nm  f=0.1421  <S**2>=0.000
     245 -> 247        0.65766
     246 -> 248        0.24440

 Excited State   3:      Singlet-A      3.0519 eV  406.25 nm  f=0.0027  <S**2>=0.000
     243 -> 247        0.67785

 Excited State   4:      Singlet-A      3.1310 eV  395.99 nm  f=0.0002  <S**2>=0.000
     240 -> 247        0.21359
     241 -> 247       -0.24205
     242 -> 247        0.59049

 Excited State   5:      Singlet-A      3.1689 eV  391.26 nm  f=0.0001  <S**2>=0.000
     240 -> 247        0.47686
     240 -> 249       -0.12074
     241 -> 247       -0.32733
     242 -> 247       -0.31116
     243 -> 247       -0.12313

 The electronic state is 1-A.
 Alpha  occ. eigenvalues --  -46.91090 -19.26854 -19.25517 -19.21133 -19.20417
 Alpha  occ. eigenvalues --  -19.20382 -19.18221 -14.41126 -14.41071 -14.38414
 Alpha  occ. eigenvalues --  -14.38284 -10.37961 -10.35430 -10.33092 -10.31653
 Alpha  occ. eigenvalues --  -10.29945 -10.28936 -10.28573 -10.27810 -10.27727
 Alpha  occ. eigenvalues --  -10.27716 -10.27392 -10.26755 -10.26485 -10.26397
 Alpha  occ. eigenvalues --  -10.26270 -10.26267 -10.26127 -10.25972 -10.25666
 Alpha  occ. eigenvalues --  -10.25654 -10.25466 -10.25400 -10.24947 -10.24820
 Alpha  occ. eigenvalues --  -10.24739 -10.24559 -10.24522 -10.24287 -10.24196
 Alpha  occ. eigenvalues --  -10.24039 -10.23977 -10.23764 -10.23734 -10.23729
 Alpha  occ. eigenvalues --  -10.23657 -10.23466 -10.23345 -10.23303 -10.23186
 Alpha  occ. eigenvalues --  -10.23125 -10.23079 -10.23037 -10.23036 -10.22868
 Alpha  occ. eigenvalues --  -10.22578 -10.22494 -10.22415 -10.22374 -10.22341
 Alpha  occ. eigenvalues --  -10.22252 -10.22082 -10.21899 -10.21788 -10.21735
 Alpha  occ. eigenvalues --  -10.21367  -3.13389  -1.86230  -1.85763  -1.85630
 Alpha  occ. eigenvalues --   -1.12839  -1.11224  -1.05890  -1.05449  -1.02594
 Alpha  occ. eigenvalues --   -1.02392  -1.00376  -0.98869  -0.98781  -0.97625
 Alpha  occ. eigenvalues --   -0.86797  -0.84612  -0.83748  -0.82792  -0.82695
 Alpha  occ. eigenvalues --   -0.82504  -0.81975  -0.81207  -0.81182  -0.80998
 Alpha  occ. eigenvalues --   -0.80103  -0.79316  -0.78292  -0.77706  -0.77103
 Alpha  occ. eigenvalues --   -0.76430  -0.75707  -0.75357  -0.74887  -0.74687
 Alpha  occ. eigenvalues --   -0.73928  -0.72582  -0.71958  -0.70960  -0.70332
 Alpha  occ. eigenvalues --   -0.70047  -0.69661  -0.69423  -0.68596  -0.68371
 Alpha  occ. eigenvalues --   -0.67684  -0.67354  -0.66136  -0.65164  -0.63385
 Alpha  occ. eigenvalues --   -0.63048  -0.62337  -0.61573  -0.61317  -0.60037
 Alpha  occ. eigenvalues --   -0.59971  -0.59741  -0.59158  -0.58935  -0.58667
 Alpha  occ. eigenvalues --   -0.57744  -0.57505  -0.56736  -0.55882  -0.54831
 Alpha  occ. eigenvalues --   -0.54490  -0.53852  -0.53830  -0.53349  -0.53024
 Alpha  occ. eigenvalues --   -0.52156  -0.51038  -0.50749  -0.50427  -0.50212
 Alpha  occ. eigenvalues --   -0.49660  -0.49444  -0.49152  -0.48678  -0.48065
 Alpha  occ. eigenvalues --   -0.47806  -0.47772  -0.47421  -0.47376  -0.46873
 Alpha  occ. eigenvalues --   -0.46830  -0.46565  -0.46404  -0.46348  -0.46234
 Alpha  occ. eigenvalues --   -0.46062  -0.45663  -0.45533  -0.45405  -0.44886
 Alpha  occ. eigenvalues --   -0.44845  -0.44497  -0.44445  -0.44386  -0.44293
 Alpha  occ. eigenvalues --   -0.44057  -0.43883  -0.43739  -0.43285  -0.43216
 Alpha  occ. eigenvalues --   -0.42784  -0.42718  -0.42578  -0.42410  -0.42238
 Alpha  occ. eigenvalues --   -0.42197  -0.42046  -0.41427  -0.41415  -0.41237
 Alpha  occ. eigenvalues --   -0.41089  -0.40715  -0.40698  -0.40451  -0.40387
 Alpha  occ. eigenvalues --   -0.40346  -0.40172  -0.39972  -0.39934  -0.39517
 Alpha  occ. eigenvalues --   -0.39244  -0.39196  -0.39031  -0.38840  -0.38749
 Alpha  occ. eigenvalues --   -0.38601  -0.38531  -0.38408  -0.38267  -0.38099
 Alpha  occ. eigenvalues --   -0.38051  -0.37883  -0.37648  -0.37268  -0.36932
 Alpha  occ. eigenvalues --   -0.36642  -0.36474  -0.36216  -0.36180  -0.35993
 Alpha  occ. eigenvalues --   -0.35618  -0.35451  -0.35408  -0.35284  -0.34870
 Alpha  occ. eigenvalues --   -0.34659  -0.34506  -0.34438  -0.33992  -0.33585
 Alpha  occ. eigenvalues --   -0.33316  -0.32962  -0.32829  -0.32761  -0.32676
 Alpha  occ. eigenvalues --   -0.32440  -0.31889  -0.31795  -0.31253  -0.31193
 Alpha  occ. eigenvalues --   -0.30725  -0.29926  -0.29890  -0.29528  -0.29321
 Alpha  occ. eigenvalues --   -0.29227  -0.28804  -0.28670  -0.26474  -0.26106
 Alpha  occ. eigenvalues --   -0.25912  -0.25299  -0.24884  -0.24596  -0.20537
 Alpha  occ. eigenvalues --   -0.18682
 Alpha virt. eigenvalues --   -0.10818  -0.04807  -0.03385  -0.01765  -0.01190
 Alpha virt. eigenvalues --    0.00709   0.01538   0.01904   0.02029   0.02911
 Alpha virt. eigenvalues --    0.03251   0.04522   0.04669   0.05721   0.05891

 Mulliken charges:
               1
     1  Mg   0.998736
     2  C   -0.060840
     3  C   -0.072748
     4  C   -0.030022
     5  C   -0.067776
     6  N   -0.365209
     7  C    0.053193
     8  C   -0.103530
     9  C   -0.080032
    10  C    0.020745
    11  C   -0.005815
    12  C   -0.025780
    13  C   -0.026959
    14  C    0.258062
    15  O   -0.280711
    16  O   -0.371415
    17  N   -0.571298
    18  C    0.199170
    19  C   -0.148107
    20  C   -0.068281
    21  C    0.134184
    22  C    0.030778
    23  C    0.037560
    24  O   -0.280249
    25  C   -0.000979
    26  N   -0.336952
    27  C    0.080751
    28  C   -0.091644
    29  C   -0.150942
    30  C    0.086402
    31  C   -0.007438
    32  C   -0.006863
    33  C   -0.075648
    34  N   -0.432676
    35  C    0.109694
    36  C   -0.186748
    37  C   -0.097427
    38  C    0.212200
    39  C    0.063001
    40  C    0.171723
    41  O   -0.189210
    42  C   -0.180384
    43  C    0.285739
    44  O   -0.175565
    45  O   -0.371389
    46  C    0.110667
    47  C    0.263067
    48  C   -0.174402
    49  C   -0.249835
    50  C    0.000904
    51  C    0.045916
    52  C   -0.061399
    53  C   -0.008340
    54  C   -0.212356
    55  C   -0.035844
    56  C    0.029194
    57  C   -0.049640
    58  C   -0.025198
    59  C   -0.246607
    60  C    0.009188
    61  C    0.019718
    62  C   -0.050389
    63  C   -0.025606
    64  C   -0.247880
    65  C    0.006767
    66  C   -0.044707
    67  H   -0.012338
    68  H    0.030117
    69  H   -0.001818
    70  H    0.078662
    71  H    0.051696
    72  H    0.054458
    73  H    0.041649
    74  H    0.072120
    75  H    0.041543
    76  H    0.055907
    77  H    0.054174
    78  H    0.090792
    79  H    0.050103
    80  H    0.041320
    81  H    0.046532
    82  H    0.062832
    83  H    0.067392
    84  H    0.053538
    85  H    0.042731
    86  H    0.040957
    87  H    0.046699
    88  H    0.044770
    89  H    0.038907
    90  H    0.049254
    91  H    0.040839
    92  H    0.048468
    93  H    0.050782
    94  H    0.032316
    95  H    0.064505
    96  H    0.073733
    97  H    0.051439
    98  H    0.064749
    99  H    0.045026
   100  H    0.074450
   101  H    0.053906
   102  H    0.063548
   103  H    0.054238
   104  H    0.029523
   105  H    0.069425
   106  H    0.041695
   107  H    0.052467
   108  H    0.037071
   109  H    0.015435
   110  H    0.036655
   111  H    0.031378
   112  H    0.039162
   113  H    0.030816
   114  H    0.035964
   115  H    0.021885
   116  H    0.036582
   117  H    0.024821
   118  H    0.030546
   119  H    0.025097
   120  H    0.030918
   121  H    0.030270
   122  H    0.026844
   123  H    0.033499
   124  H    0.031489
   125  H    0.034124
   126  H    0.039584
   127  H    0.026919
   128  H    0.018323
   129  H    0.003311
   130  H    0.039457
   131  H    0.029564
   132  H    0.024955
   133  H    0.039614
   134  H    0.044412
   135  H    0.039049
   136  H    0.023321
   137  H    0.037298
   138  H    0.033824
   139  H    0.025958
   140  H    0.036231
 Sum of Mulliken charges =  -0.00000

 Dipole moment (field-independent basis, Debye):
    X=              3.0495    Y=              2.3243    Z=             -1.9120  Tot=              4.2846
 Quadrupole moment (field-independent basis, Debye-Ang):
   XX=           -385.7760   YY=           -408.5037   ZZ=           -404.1411
   XY=             21.1731   XZ=             11.7874   YZ=              1.4518

 Normal termination of Gaussian 16 at Wed Apr 27 03:01:26 2022.
