 Gaussian 16, Revision A.03,
 Gaussian 16:  ES64L-G16RevA.03 25-Dec-2016

 --------------------------------
 #p wB97XD/Def2SVP td=(nstates=5)
 --------------------------------

 -----------------------------------------------------
 step_1051_chromophore_19 TDDFT with wB97XD functional
 -----------------------------------------------------
 Symbolic Z-matrix:
 Charge =  0 Multiplicity = 1

                         Standard orientation:
 ---------------------------------------------------------------------
 Center     Atomic      Atomic             Coordinates (Angstroms)
 Number     Number       Type             X           Y           Z
 ---------------------------------------------------------------------
      1         12           0       -5.956692    0.472751   -0.150713
      2          6           0       -3.423174   -1.979758   -0.408405
      3          6           0       -3.597212    2.751496    0.474470
      4          6           0       -8.484234    2.520309    0.463580
      5          6           0       -8.260167   -2.249384   -0.418004
      6          7           0       -3.712043    0.357965   -0.119410
      7          6           0       -2.885408   -0.678750   -0.197282
      8          6           0       -1.502346   -0.273897    0.045312
      9          6           0       -1.524704    1.272959    0.330021
     10          6           0       -3.036721    1.503440    0.250359
     11          6           0       -0.836050    1.870019    1.701986
     12          6           0       -0.608632   -0.693853   -1.203493
     13          6           0        0.726425   -1.639912   -1.143477
     14          6           0        1.791203   -1.322648   -0.061001
     15          8           0        1.610888   -1.285833    1.161871
     16          8           0        3.054304   -1.042378   -0.590716
     17          7           0       -6.006475    2.395636    0.207448
     18          6           0       -4.919639    3.187763    0.400346
     19          6           0       -5.322316    4.500257    0.493276
     20          6           0       -6.731781    4.488990    0.545414
     21          6           0       -7.151857    3.149320    0.387050
     22          6           0       -4.247026    5.624312    0.320065
     23          6           0       -7.643706    5.668223    0.852606
     24          8           0       -8.883126    5.457860    0.827320
     25          6           0       -7.141159    7.049873    1.089743
     26          7           0       -8.064765    0.124942    0.280372
     27          6           0       -8.865099    1.182551    0.427416
     28          6           0      -10.343403    0.728853    0.652072
     29          6           0      -10.310984   -0.710328   -0.047378
     30          6           0       -8.763027   -0.981063    0.017289
     31          6           0      -10.873921    0.613061    2.157763
     32          6           0      -10.700244   -0.690391   -1.535568
     33          6           0      -11.615878   -1.874939   -2.105479
     34          7           0       -5.915565   -1.584436   -0.490518
     35          6           0       -6.919053   -2.481552   -0.675891
     36          6           0       -6.407623   -3.754766   -1.098710
     37          6           0       -5.027732   -3.585481   -0.914288
     38          6           0       -4.802515   -2.281329   -0.586099
     39          6           0       -7.294767   -4.929501   -1.657090
     40          6           0       -3.769225   -4.376669   -0.941336
     41          8           0       -3.514656   -5.543676   -1.136612
     42          6           0       -2.649478   -3.273691   -0.546323
     43          6           0       -2.062967   -3.731517    0.722083
     44          8           0       -2.647483   -3.752473    1.721899
     45          8           0       -0.768622   -4.123273    0.442140
     46          6           0       -0.152575   -4.831588    1.520870
     47          6           0        4.082528   -0.758607    0.406092
     48          6           0        5.510858   -0.802861   -0.154030
     49          6           0        6.746258   -0.447178    0.254513
     50          6           0        6.893448    0.225176    1.664264
     51          6           0        7.922466   -0.545042   -0.674500
     52          6           0        7.983144    0.524047   -1.748636
     53          6           0        8.860403    1.773685   -1.382559
     54          6           0        9.545111    2.435683   -2.589190
     55          6           0        8.592923    2.899969   -3.766539
     56          6           0       10.830183    1.690595   -3.087080
     57          6           0       12.070197    2.272335   -2.444388
     58          6           0       13.228258    1.220952   -2.209074
     59          6           0       13.702257    1.085400   -0.694834
     60          6           0       15.218048    0.838736   -0.752947
     61          6           0       12.975100    0.035375    0.136682
     62          6           0       12.615094    0.513588    1.553256
     63          6           0       12.925365   -0.586813    2.575072
     64          6           0       11.554587   -1.304625    3.003832
     65          6           0       10.870467   -0.575192    4.204619
     66          6           0       11.945110   -2.751228    3.391990
     67          1           0       -2.834303    3.519369    0.617236
     68          1           0       -9.292132    3.224948    0.671035
     69          1           0       -8.861546   -3.135316   -0.630534
     70          1           0       -1.057925   -0.823407    0.875688
     71          1           0       -1.235862    1.860061   -0.541467
     72          1           0       -1.553731    2.147174    2.474697
     73          1           0       -0.362467    2.821083    1.457556
     74          1           0       -0.154293    1.099237    2.061606
     75          1           0       -0.189829    0.230700   -1.600822
     76          1           0       -1.263150   -1.098397   -1.976631
     77          1           0        1.222756   -1.517120   -2.106000
     78          1           0        0.421591   -2.686312   -1.145960
     79          1           0       -3.251958    5.349965   -0.028531
     80          1           0       -4.075378    6.216957    1.218280
     81          1           0       -4.638587    6.336563   -0.405825
     82          1           0       -8.035360    7.577456    1.421080
     83          1           0       -6.632116    7.434968    0.205839
     84          1           0       -6.401520    7.068735    1.890544
     85          1           0      -11.078729    1.360770    0.154047
     86          1           0      -10.854443   -1.432317    0.563338
     87          1           0      -10.498293    1.320021    2.897413
     88          1           0      -10.817413   -0.365837    2.633353
     89          1           0      -11.927919    0.885777    2.091652
     90          1           0       -9.758013   -0.601936   -2.075666
     91          1           0      -11.213766    0.230078   -1.813770
     92          1           0      -11.300033   -2.294670   -3.061105
     93          1           0      -12.658734   -1.561985   -2.138929
     94          1           0      -11.577642   -2.722943   -1.422801
     95          1           0       -7.711072   -5.346352   -0.740017
     96          1           0       -6.679674   -5.610014   -2.246263
     97          1           0       -8.161500   -4.610415   -2.235333
     98          1           0       -1.910692   -3.269922   -1.347509
     99          1           0       -0.074762   -5.870948    1.201944
    100          1           0       -0.698318   -4.842398    2.465075
    101          1           0        0.888595   -4.514014    1.578772
    102          1           0        4.163660   -1.553819    1.147028
    103          1           0        4.032484    0.194878    0.930953
    104          1           0        5.401356   -1.121308   -1.190443
    105          1           0        7.161855   -0.664965    2.232543
    106          1           0        5.949507    0.668786    1.979838
    107          1           0        7.674854    0.985569    1.648364
    108          1           0        8.037679   -1.489767   -1.206793
    109          1           0        8.822124   -0.473985   -0.064429
    110          1           0        6.945101    0.827088   -1.884924
    111          1           0        8.401429    0.041876   -2.632956
    112          1           0        9.650731    1.573184   -0.659838
    113          1           0        8.024341    2.423494   -1.126757
    114          1           0        9.766797    3.436240   -2.219106
    115          1           0        7.536596    2.772445   -3.531347
    116          1           0        8.770654    2.532649   -4.777701
    117          1           0        8.665211    3.983627   -3.860863
    118          1           0       10.949228    1.724699   -4.170362
    119          1           0       10.660722    0.644865   -2.829173
    120          1           0       11.908133    2.767306   -1.486747
    121          1           0       12.490672    3.039478   -3.095103
    122          1           0       14.085459    1.612902   -2.755586
    123          1           0       12.954100    0.208911   -2.505038
    124          1           0       13.495658    2.064391   -0.261634
    125          1           0       15.724340    1.744378   -0.417563
    126          1           0       15.557379    0.553893   -1.748112
    127          1           0       15.451898    0.034047   -0.055809
    128          1           0       13.364404   -0.981916    0.194809
    129          1           0       12.061775   -0.220343   -0.399274
    130          1           0       11.587715    0.873284    1.493037
    131          1           0       13.219871    1.391816    1.775741
    132          1           0       13.369069   -0.042235    3.408912
    133          1           0       13.574656   -1.431095    2.346137
    134          1           0       10.961987   -1.367404    2.090620
    135          1           0       10.617031   -1.322474    4.956629
    136          1           0        9.918875   -0.151488    3.885586
    137          1           0       11.374949    0.327734    4.546355
    138          1           0       12.032278   -3.458429    2.567698
    139          1           0       11.238604   -3.244697    4.059125
    140          1           0       12.897953   -2.783185    3.919650
 ---------------------------------------------------------------------

 SCF Done:  E(RwB97XD) =  -3007.84344788     A.U. after   19 cycles

 Excitation energies and oscillator strengths:

 Excited State   1:      Singlet-A      1.7532 eV  707.20 nm  f=0.3590  <S**2>=0.000
     245 -> 248       -0.18207
     246 -> 247        0.68282
     245 <- 248       -0.11110
 This state for optimization and/or second-order correction.
 Total Energy, E(TD-HF/TD-DFT) =  -3007.77902025
 Copying the excited state density for this state as the 1-particle RhoCI density.

 Excited State   2:      Singlet-A      2.1950 eV  564.85 nm  f=0.1503  <S**2>=0.000
     245 -> 247        0.64705
     246 -> 248        0.26979

 Excited State   3:      Singlet-A      3.4697 eV  357.33 nm  f=0.0175  <S**2>=0.000
     239 -> 247        0.10261
     240 -> 247       -0.24765
     241 -> 247       -0.42810
     244 -> 247        0.44180
     246 -> 248        0.11167

 Excited State   4:      Singlet-A      3.5686 eV  347.43 nm  f=0.1483  <S**2>=0.000
     239 -> 247       -0.18644
     239 -> 249        0.11645
     240 -> 247        0.11629
     241 -> 247        0.20135
     244 -> 247        0.43205
     245 -> 247        0.12632
     246 -> 248       -0.41207

 Excited State   5:      Singlet-A      3.6002 eV  344.38 nm  f=0.0305  <S**2>=0.000
     239 -> 247        0.53235
     239 -> 249       -0.30013
     239 -> 250        0.12849
     240 -> 247        0.21502
     246 -> 248       -0.16664

 The electronic state is 1-A.
 Alpha  occ. eigenvalues --  -46.94009 -19.31425 -19.30239 -19.25821 -19.25617
 Alpha  occ. eigenvalues --  -19.25308 -19.22660 -14.46222 -14.46155 -14.43566
 Alpha  occ. eigenvalues --  -14.42969 -10.44762 -10.42454 -10.40285 -10.38129
 Alpha  occ. eigenvalues --  -10.36421 -10.35547 -10.35184 -10.34329 -10.33791
 Alpha  occ. eigenvalues --  -10.33785 -10.33600 -10.33253 -10.33122 -10.33058
 Alpha  occ. eigenvalues --  -10.32962 -10.32676 -10.32515 -10.32288 -10.31845
 Alpha  occ. eigenvalues --  -10.31831 -10.31712 -10.31571 -10.31541 -10.31454
 Alpha  occ. eigenvalues --  -10.31149 -10.30895 -10.30667 -10.30466 -10.30439
 Alpha  occ. eigenvalues --  -10.30398 -10.30245 -10.30207 -10.29995 -10.29991
 Alpha  occ. eigenvalues --  -10.29902 -10.29816 -10.29740 -10.29628 -10.29525
 Alpha  occ. eigenvalues --  -10.29517 -10.29417 -10.29386 -10.29310 -10.29240
 Alpha  occ. eigenvalues --  -10.28958 -10.28880 -10.28760 -10.28742 -10.28725
 Alpha  occ. eigenvalues --  -10.28604 -10.28510 -10.28322 -10.28161 -10.28156
 Alpha  occ. eigenvalues --  -10.27798  -3.20150  -1.93744  -1.93278  -1.93137
 Alpha  occ. eigenvalues --   -1.20403  -1.18615  -1.13716  -1.12971  -1.09958
 Alpha  occ. eigenvalues --   -1.09546  -1.08045  -1.06273  -1.06154  -1.04626
 Alpha  occ. eigenvalues --   -0.94660  -0.92293  -0.91419  -0.90474  -0.90294
 Alpha  occ. eigenvalues --   -0.90168  -0.89559  -0.88945  -0.88854  -0.88676
 Alpha  occ. eigenvalues --   -0.87490  -0.86968  -0.85930  -0.85406  -0.84696
 Alpha  occ. eigenvalues --   -0.84079  -0.83300  -0.82995  -0.82560  -0.82271
 Alpha  occ. eigenvalues --   -0.81609  -0.80370  -0.79383  -0.78619  -0.77994
 Alpha  occ. eigenvalues --   -0.77738  -0.77366  -0.77050  -0.76275  -0.76042
 Alpha  occ. eigenvalues --   -0.75296  -0.74945  -0.73676  -0.72764  -0.70999
 Alpha  occ. eigenvalues --   -0.70672  -0.69978  -0.69210  -0.68797  -0.67645
 Alpha  occ. eigenvalues --   -0.67424  -0.67238  -0.66648  -0.66360  -0.66125
 Alpha  occ. eigenvalues --   -0.65416  -0.65163  -0.64309  -0.63483  -0.62451
 Alpha  occ. eigenvalues --   -0.61819  -0.61369  -0.61313  -0.60932  -0.60448
 Alpha  occ. eigenvalues --   -0.59590  -0.58469  -0.58270  -0.57883  -0.57619
 Alpha  occ. eigenvalues --   -0.57047  -0.56869  -0.56666  -0.56067  -0.55478
 Alpha  occ. eigenvalues --   -0.55309  -0.55226  -0.54853  -0.54840  -0.54290
 Alpha  occ. eigenvalues --   -0.54139  -0.53951  -0.53819  -0.53765  -0.53599
 Alpha  occ. eigenvalues --   -0.53377  -0.53041  -0.52950  -0.52834  -0.52283
 Alpha  occ. eigenvalues --   -0.52229  -0.52004  -0.51790  -0.51764  -0.51561
 Alpha  occ. eigenvalues --   -0.51307  -0.51064  -0.51059  -0.50582  -0.50397
 Alpha  occ. eigenvalues --   -0.50182  -0.50076  -0.49870  -0.49688  -0.49463
 Alpha  occ. eigenvalues --   -0.49405  -0.49292  -0.48827  -0.48712  -0.48478
 Alpha  occ. eigenvalues --   -0.48262  -0.48047  -0.47986  -0.47655  -0.47611
 Alpha  occ. eigenvalues --   -0.47465  -0.47314  -0.47156  -0.47010  -0.46903
 Alpha  occ. eigenvalues --   -0.46450  -0.46438  -0.46230  -0.46050  -0.46027
 Alpha  occ. eigenvalues --   -0.45867  -0.45636  -0.45552  -0.45384  -0.45213
 Alpha  occ. eigenvalues --   -0.45087  -0.44779  -0.44698  -0.44330  -0.44083
 Alpha  occ. eigenvalues --   -0.43769  -0.43531  -0.43337  -0.43201  -0.43014
 Alpha  occ. eigenvalues --   -0.42595  -0.42501  -0.42408  -0.42276  -0.41966
 Alpha  occ. eigenvalues --   -0.41760  -0.41466  -0.41389  -0.41030  -0.40623
 Alpha  occ. eigenvalues --   -0.40259  -0.39912  -0.39852  -0.39835  -0.39703
 Alpha  occ. eigenvalues --   -0.39489  -0.38940  -0.38911  -0.38424  -0.38102
 Alpha  occ. eigenvalues --   -0.37737  -0.37191  -0.36880  -0.36632  -0.36210
 Alpha  occ. eigenvalues --   -0.36047  -0.35523  -0.35445  -0.33456  -0.33124
 Alpha  occ. eigenvalues --   -0.32674  -0.32108  -0.31362  -0.31163  -0.25522
 Alpha  occ. eigenvalues --   -0.22977
 Alpha virt. eigenvalues --   -0.06648   0.00739   0.02859   0.04841   0.05645
 Alpha virt. eigenvalues --    0.06515   0.08215   0.08587   0.08698   0.09235
 Alpha virt. eigenvalues --    0.09861   0.11024   0.11508   0.12444   0.12604

 Mulliken charges:
               1
     1  Mg   0.988300
     2  C   -0.074242
     3  C   -0.087354
     4  C   -0.041049
     5  C   -0.090469
     6  N   -0.329960
     7  C    0.029264
     8  C   -0.081435
     9  C   -0.055992
    10  C    0.004578
    11  C    0.007845
    12  C   -0.016378
    13  C   -0.008753
    14  C    0.247975
    15  O   -0.277469
    16  O   -0.370621
    17  N   -0.536816
    18  C    0.188148
    19  C   -0.145991
    20  C   -0.054220
    21  C    0.115948
    22  C    0.044120
    23  C    0.030390
    24  O   -0.277979
    25  C    0.009398
    26  N   -0.302814
    27  C    0.063947
    28  C   -0.067801
    29  C   -0.124166
    30  C    0.078527
    31  C    0.001099
    32  C    0.001861
    33  C   -0.058136
    34  N   -0.393106
    35  C    0.111699
    36  C   -0.186434
    37  C   -0.093034
    38  C    0.202113
    39  C    0.075274
    40  C    0.155464
    41  O   -0.177223
    42  C   -0.135943
    43  C    0.259797
    44  O   -0.170805
    45  O   -0.368108
    46  C    0.125235
    47  C    0.278941
    48  C   -0.187839
    49  C   -0.233068
    50  C    0.018036
    51  C    0.065645
    52  C   -0.044782
    53  C    0.015357
    54  C   -0.183907
    55  C   -0.025658
    56  C    0.044093
    57  C   -0.032292
    58  C   -0.008980
    59  C   -0.214504
    60  C    0.021172
    61  C    0.032094
    62  C   -0.030262
    63  C   -0.009190
    64  C   -0.217712
    65  C    0.017111
    66  C   -0.030285
    67  H   -0.022529
    68  H    0.026107
    69  H   -0.007360
    70  H    0.065238
    71  H    0.040637
    72  H    0.048436
    73  H    0.035985
    74  H    0.066951
    75  H    0.034165
    76  H    0.046850
    77  H    0.050012
    78  H    0.080854
    79  H    0.044830
    80  H    0.034064
    81  H    0.037691
    82  H    0.060469
    83  H    0.061967
    84  H    0.047665
    85  H    0.034263
    86  H    0.031822
    87  H    0.041886
    88  H    0.037999
    89  H    0.032471
    90  H    0.038702
    91  H    0.034630
    92  H    0.043210
    93  H    0.045901
    94  H    0.024261
    95  H    0.060528
    96  H    0.072234
    97  H    0.048046
    98  H    0.055282
    99  H    0.040500
   100  H    0.071268
   101  H    0.051454
   102  H    0.057425
   103  H    0.047517
   104  H    0.024892
   105  H    0.062613
   106  H    0.036028
   107  H    0.046057
   108  H    0.031700
   109  H    0.002688
   110  H    0.025238
   111  H    0.022689
   112  H    0.024802
   113  H    0.021194
   114  H    0.023616
   115  H    0.015178
   116  H    0.031244
   117  H    0.019467
   118  H    0.024117
   119  H    0.011278
   120  H    0.019042
   121  H    0.023540
   122  H    0.018131
   123  H    0.023985
   124  H    0.016596
   125  H    0.029078
   126  H    0.033340
   127  H    0.019918
   128  H    0.009059
   129  H   -0.010479
   130  H    0.028739
   131  H    0.020770
   132  H    0.016754
   133  H    0.029197
   134  H    0.030986
   135  H    0.033215
   136  H    0.017395
   137  H    0.031850
   138  H    0.027992
   139  H    0.019430
   140  H    0.028579
 Sum of Mulliken charges =  -0.00000

 Dipole moment (field-independent basis, Debye):
    X=              3.1299    Y=              1.4402    Z=             -2.0985  Tot=              4.0341
 Quadrupole moment (field-independent basis, Debye-Ang):
   XX=           -386.0293   YY=           -407.7969   ZZ=           -403.5784
   XY=             26.0150   XZ=             13.1338   YZ=              1.6926

 Normal termination of Gaussian 16 at Wed Apr 27 03:26:47 2022.
