 Gaussian 16, Revision A.03,
 Gaussian 16:  ES64L-G16RevA.03 25-Dec-2016

 --------------------
 #p ZINDO=(nstates=5)
 --------------------

 ------------------------------
 step_1051_chromophore_19 ZINDO
 ------------------------------
 Symbolic Z-matrix:
 Charge =  0 Multiplicity = 1

                         Standard orientation:
 ---------------------------------------------------------------------
 Center     Atomic      Atomic             Coordinates (Angstroms)
 Number     Number       Type             X           Y           Z
 ---------------------------------------------------------------------
      1         12           0       -5.956692    0.472751   -0.150713
      2          6           0       -3.423174   -1.979758   -0.408405
      3          6           0       -3.597212    2.751496    0.474470
      4          6           0       -8.484234    2.520309    0.463580
      5          6           0       -8.260167   -2.249384   -0.418004
      6          7           0       -3.712043    0.357965   -0.119410
      7          6           0       -2.885408   -0.678750   -0.197282
      8          6           0       -1.502346   -0.273897    0.045312
      9          6           0       -1.524704    1.272959    0.330021
     10          6           0       -3.036721    1.503440    0.250359
     11          6           0       -0.836050    1.870019    1.701986
     12          6           0       -0.608632   -0.693853   -1.203493
     13          6           0        0.726425   -1.639912   -1.143477
     14          6           0        1.791203   -1.322648   -0.061001
     15          8           0        1.610888   -1.285833    1.161871
     16          8           0        3.054304   -1.042378   -0.590716
     17          7           0       -6.006475    2.395636    0.207448
     18          6           0       -4.919639    3.187763    0.400346
     19          6           0       -5.322316    4.500257    0.493276
     20          6           0       -6.731781    4.488990    0.545414
     21          6           0       -7.151857    3.149320    0.387050
     22          6           0       -4.247026    5.624312    0.320065
     23          6           0       -7.643706    5.668223    0.852606
     24          8           0       -8.883126    5.457860    0.827320
     25          6           0       -7.141159    7.049873    1.089743
     26          7           0       -8.064765    0.124942    0.280372
     27          6           0       -8.865099    1.182551    0.427416
     28          6           0      -10.343403    0.728853    0.652072
     29          6           0      -10.310984   -0.710328   -0.047378
     30          6           0       -8.763027   -0.981063    0.017289
     31          6           0      -10.873921    0.613061    2.157763
     32          6           0      -10.700244   -0.690391   -1.535568
     33          6           0      -11.615878   -1.874939   -2.105479
     34          7           0       -5.915565   -1.584436   -0.490518
     35          6           0       -6.919053   -2.481552   -0.675891
     36          6           0       -6.407623   -3.754766   -1.098710
     37          6           0       -5.027732   -3.585481   -0.914288
     38          6           0       -4.802515   -2.281329   -0.586099
     39          6           0       -7.294767   -4.929501   -1.657090
     40          6           0       -3.769225   -4.376669   -0.941336
     41          8           0       -3.514656   -5.543676   -1.136612
     42          6           0       -2.649478   -3.273691   -0.546323
     43          6           0       -2.062967   -3.731517    0.722083
     44          8           0       -2.647483   -3.752473    1.721899
     45          8           0       -0.768622   -4.123273    0.442140
     46          6           0       -0.152575   -4.831588    1.520870
     47          6           0        4.082528   -0.758607    0.406092
     48          6           0        5.510858   -0.802861   -0.154030
     49          6           0        6.746258   -0.447178    0.254513
     50          6           0        6.893448    0.225176    1.664264
     51          6           0        7.922466   -0.545042   -0.674500
     52          6           0        7.983144    0.524047   -1.748636
     53          6           0        8.860403    1.773685   -1.382559
     54          6           0        9.545111    2.435683   -2.589190
     55          6           0        8.592923    2.899969   -3.766539
     56          6           0       10.830183    1.690595   -3.087080
     57          6           0       12.070197    2.272335   -2.444388
     58          6           0       13.228258    1.220952   -2.209074
     59          6           0       13.702257    1.085400   -0.694834
     60          6           0       15.218048    0.838736   -0.752947
     61          6           0       12.975100    0.035375    0.136682
     62          6           0       12.615094    0.513588    1.553256
     63          6           0       12.925365   -0.586813    2.575072
     64          6           0       11.554587   -1.304625    3.003832
     65          6           0       10.870467   -0.575192    4.204619
     66          6           0       11.945110   -2.751228    3.391990
     67          1           0       -2.834303    3.519369    0.617236
     68          1           0       -9.292132    3.224948    0.671035
     69          1           0       -8.861546   -3.135316   -0.630534
     70          1           0       -1.057925   -0.823407    0.875688
     71          1           0       -1.235862    1.860061   -0.541467
     72          1           0       -1.553731    2.147174    2.474697
     73          1           0       -0.362467    2.821083    1.457556
     74          1           0       -0.154293    1.099237    2.061606
     75          1           0       -0.189829    0.230700   -1.600822
     76          1           0       -1.263150   -1.098397   -1.976631
     77          1           0        1.222756   -1.517120   -2.106000
     78          1           0        0.421591   -2.686312   -1.145960
     79          1           0       -3.251958    5.349965   -0.028531
     80          1           0       -4.075378    6.216957    1.218280
     81          1           0       -4.638587    6.336563   -0.405825
     82          1           0       -8.035360    7.577456    1.421080
     83          1           0       -6.632116    7.434968    0.205839
     84          1           0       -6.401520    7.068735    1.890544
     85          1           0      -11.078729    1.360770    0.154047
     86          1           0      -10.854443   -1.432317    0.563338
     87          1           0      -10.498293    1.320021    2.897413
     88          1           0      -10.817413   -0.365837    2.633353
     89          1           0      -11.927919    0.885777    2.091652
     90          1           0       -9.758013   -0.601936   -2.075666
     91          1           0      -11.213766    0.230078   -1.813770
     92          1           0      -11.300033   -2.294670   -3.061105
     93          1           0      -12.658734   -1.561985   -2.138929
     94          1           0      -11.577642   -2.722943   -1.422801
     95          1           0       -7.711072   -5.346352   -0.740017
     96          1           0       -6.679674   -5.610014   -2.246263
     97          1           0       -8.161500   -4.610415   -2.235333
     98          1           0       -1.910692   -3.269922   -1.347509
     99          1           0       -0.074762   -5.870948    1.201944
    100          1           0       -0.698318   -4.842398    2.465075
    101          1           0        0.888595   -4.514014    1.578772
    102          1           0        4.163660   -1.553819    1.147028
    103          1           0        4.032484    0.194878    0.930953
    104          1           0        5.401356   -1.121308   -1.190443
    105          1           0        7.161855   -0.664965    2.232543
    106          1           0        5.949507    0.668786    1.979838
    107          1           0        7.674854    0.985569    1.648364
    108          1           0        8.037679   -1.489767   -1.206793
    109          1           0        8.822124   -0.473985   -0.064429
    110          1           0        6.945101    0.827088   -1.884924
    111          1           0        8.401429    0.041876   -2.632956
    112          1           0        9.650731    1.573184   -0.659838
    113          1           0        8.024341    2.423494   -1.126757
    114          1           0        9.766797    3.436240   -2.219106
    115          1           0        7.536596    2.772445   -3.531347
    116          1           0        8.770654    2.532649   -4.777701
    117          1           0        8.665211    3.983627   -3.860863
    118          1           0       10.949228    1.724699   -4.170362
    119          1           0       10.660722    0.644865   -2.829173
    120          1           0       11.908133    2.767306   -1.486747
    121          1           0       12.490672    3.039478   -3.095103
    122          1           0       14.085459    1.612902   -2.755586
    123          1           0       12.954100    0.208911   -2.505038
    124          1           0       13.495658    2.064391   -0.261634
    125          1           0       15.724340    1.744378   -0.417563
    126          1           0       15.557379    0.553893   -1.748112
    127          1           0       15.451898    0.034047   -0.055809
    128          1           0       13.364404   -0.981916    0.194809
    129          1           0       12.061775   -0.220343   -0.399274
    130          1           0       11.587715    0.873284    1.493037
    131          1           0       13.219871    1.391816    1.775741
    132          1           0       13.369069   -0.042235    3.408912
    133          1           0       13.574656   -1.431095    2.346137
    134          1           0       10.961987   -1.367404    2.090620
    135          1           0       10.617031   -1.322474    4.956629
    136          1           0        9.918875   -0.151488    3.885586
    137          1           0       11.374949    0.327734    4.546355
    138          1           0       12.032278   -3.458429    2.567698
    139          1           0       11.238604   -3.244697    4.059125
    140          1           0       12.897953   -2.783185    3.919650
 ---------------------------------------------------------------------

 SCF Done:  E(RZINDO/S) =  -474.260637191     A.U. after   19 cycles

 Excitation energies and oscillator strengths:

 Excited State   1:      Singlet-A      1.3723 eV  903.50 nm  f=0.5083  <S**2>=0.000
     175 ->178        -0.16138
     176 ->177         0.67240
 This state for optimization and/or second-order correction.
 Total Energy, E(CIS/TDA) =  -474.210207267
 Copying the excited state density for this state as the 1-particle RhoCI density.

 Excited State   2:      Singlet-A      1.9450 eV  637.44 nm  f=0.0887  <S**2>=0.000
     175 ->177         0.57196
     176 ->178         0.37820

 Excited State   3:      Singlet-A      2.9938 eV  414.14 nm  f=0.3012  <S**2>=0.000
     167 ->177        -0.10193
     167 ->179         0.13280
     168 ->177         0.27969
     168 ->179        -0.32852
     168 ->181         0.10532
     168 ->186         0.12376
     169 ->177        -0.13725
     169 ->179         0.10666
     172 ->177         0.11487
     175 ->177        -0.18765
     176 ->178         0.30906

 Excited State   4:      Singlet-A      3.0061 eV  412.44 nm  f=0.0013  <S**2>=0.000
     171 ->177         0.20695
     171 ->178        -0.14866
     171 ->179         0.20944
     171 ->181         0.50460
     171 ->186        -0.18685
     171 ->187        -0.17897
     171 ->189        -0.12549

 Excited State   5:      Singlet-A      3.0480 eV  406.77 nm  f=0.8143  <S**2>=0.000
     167 ->179        -0.10043
     168 ->177        -0.20489
     168 ->179         0.23446
     170 ->177         0.10125
     175 ->177        -0.29962
     176 ->178         0.45654

 The electronic state is 1-A.
 Alpha  occ. eigenvalues --   -1.88435  -1.82522  -1.81147  -1.76005  -1.72908
 Alpha  occ. eigenvalues --   -1.70993  -1.65051  -1.60823  -1.59680  -1.55852
 Alpha  occ. eigenvalues --   -1.54794  -1.51801  -1.50440  -1.47032  -1.45876
 Alpha  occ. eigenvalues --   -1.44370  -1.41558  -1.38511  -1.38191  -1.37643
 Alpha  occ. eigenvalues --   -1.35428  -1.33301  -1.32788  -1.29923  -1.28276
 Alpha  occ. eigenvalues --   -1.27660  -1.24202  -1.21418  -1.20294  -1.18218
 Alpha  occ. eigenvalues --   -1.17681  -1.16059  -1.15667  -1.14917  -1.13105
 Alpha  occ. eigenvalues --   -1.12333  -1.11235  -1.09179  -1.05469  -1.03944
 Alpha  occ. eigenvalues --   -1.02125  -1.01779  -0.99005  -0.98179  -0.97681
 Alpha  occ. eigenvalues --   -0.96551  -0.94949  -0.93762  -0.92816  -0.92688
 Alpha  occ. eigenvalues --   -0.90502  -0.89963  -0.89272  -0.87988  -0.85860
 Alpha  occ. eigenvalues --   -0.84977  -0.84547  -0.83444  -0.81976  -0.80613
 Alpha  occ. eigenvalues --   -0.79547  -0.79394  -0.77335  -0.76414  -0.76078
 Alpha  occ. eigenvalues --   -0.75471  -0.75193  -0.74722  -0.73771  -0.72734
 Alpha  occ. eigenvalues --   -0.72039  -0.71905  -0.71265  -0.70714  -0.70545
 Alpha  occ. eigenvalues --   -0.70141  -0.69602  -0.68219  -0.68080  -0.67881
 Alpha  occ. eigenvalues --   -0.67250  -0.66852  -0.66503  -0.66381  -0.65628
 Alpha  occ. eigenvalues --   -0.64776  -0.64435  -0.63880  -0.63739  -0.63504
 Alpha  occ. eigenvalues --   -0.63308  -0.62740  -0.62516  -0.61889  -0.61525
 Alpha  occ. eigenvalues --   -0.61367  -0.60919  -0.60178  -0.60003  -0.59341
 Alpha  occ. eigenvalues --   -0.59055  -0.58924  -0.58275  -0.58088  -0.57713
 Alpha  occ. eigenvalues --   -0.57583  -0.57404  -0.56962  -0.56926  -0.56702
 Alpha  occ. eigenvalues --   -0.56467  -0.56038  -0.55921  -0.55063  -0.54618
 Alpha  occ. eigenvalues --   -0.54584  -0.54511  -0.54123  -0.53227  -0.53002
 Alpha  occ. eigenvalues --   -0.52698  -0.52358  -0.52241  -0.51791  -0.51576
 Alpha  occ. eigenvalues --   -0.51559  -0.51374  -0.51337  -0.51031  -0.50688
 Alpha  occ. eigenvalues --   -0.50407  -0.50213  -0.50081  -0.49523  -0.49263
 Alpha  occ. eigenvalues --   -0.48895  -0.48812  -0.48042  -0.47978  -0.47847
 Alpha  occ. eigenvalues --   -0.47648  -0.47473  -0.47437  -0.46608  -0.46547
 Alpha  occ. eigenvalues --   -0.46513  -0.46040  -0.45910  -0.45719  -0.45393
 Alpha  occ. eigenvalues --   -0.45246  -0.44586  -0.44271  -0.43855  -0.43241
 Alpha  occ. eigenvalues --   -0.43038  -0.42795  -0.42468  -0.42465  -0.42274
 Alpha  occ. eigenvalues --   -0.42118  -0.41612  -0.41354  -0.39468  -0.38865
 Alpha  occ. eigenvalues --   -0.38346  -0.36861  -0.36036  -0.34706  -0.34059
 Alpha  occ. eigenvalues --   -0.33523  -0.31851  -0.31472  -0.31072  -0.26296
 Alpha  occ. eigenvalues --   -0.21858
 Alpha virt. eigenvalues --   -0.08029  -0.01438  -0.00343   0.00882   0.02086
 Alpha virt. eigenvalues --    0.03090   0.03376   0.03666   0.04907   0.05007
 Alpha virt. eigenvalues --    0.06549   0.06715   0.07036   0.07419   0.07738

 Mulliken charges:
               1
     1  Mg   0.423104
     2  C   -0.085623
     3  C   -0.073043
     4  C   -0.054196
     5  C   -0.085672
     6  N   -0.291137
     7  C    0.186912
     8  C    0.026616
     9  C   -0.012948
    10  C    0.080626
    11  C   -0.052457
    12  C   -0.033353
    13  C    0.003799
    14  C    0.465713
    15  O   -0.513917
    16  O   -0.260941
    17  N   -0.320075
    18  C    0.086475
    19  C   -0.037005
    20  C   -0.046898
    21  C    0.106850
    22  C   -0.050400
    23  C    0.316594
    24  O   -0.556123
    25  C   -0.028645
    26  N   -0.249711
    27  C    0.099948
    28  C   -0.001757
    29  C   -0.001041
    30  C    0.178478
    31  C   -0.056287
    32  C   -0.027783
    33  C   -0.060974
    34  N   -0.334906
    35  C    0.140394
    36  C    0.045501
    37  C   -0.033217
    38  C    0.164127
    39  C   -0.035910
    40  C    0.328984
    41  O   -0.494945
    42  C    0.041895
    43  C    0.502819
    44  O   -0.493246
    45  O   -0.275564
    46  C    0.071300
    47  C    0.107254
    48  C   -0.095860
    49  C   -0.018056
    50  C   -0.050721
    51  C   -0.012396
    52  C   -0.033736
    53  C   -0.038101
    54  C   -0.019193
    55  C   -0.065878
    56  C   -0.023687
    57  C   -0.036982
    58  C   -0.050568
    59  C   -0.014338
    60  C   -0.057971
    61  C   -0.035739
    62  C   -0.032920
    63  C   -0.040791
    64  C   -0.016215
    65  C   -0.058131
    66  C   -0.059584
    67  H    0.021333
    68  H    0.048685
    69  H    0.038735
    70  H    0.048247
    71  H    0.037060
    72  H    0.030406
    73  H    0.022099
    74  H    0.033395
    75  H    0.018771
    76  H    0.024845
    77  H    0.029270
    78  H    0.053519
    79  H    0.026750
    80  H    0.019038
    81  H    0.015377
    82  H    0.041173
    83  H    0.045072
    84  H    0.030835
    85  H    0.031455
    86  H    0.035691
    87  H    0.028173
    88  H    0.022883
    89  H    0.012549
    90  H    0.024420
    91  H    0.021636
    92  H    0.025187
    93  H    0.025218
    94  H    0.012426
    95  H    0.039515
    96  H    0.041514
    97  H    0.031439
    98  H    0.046530
    99  H    0.026996
   100  H    0.058602
   101  H    0.035608
   102  H    0.051879
   103  H    0.054644
   104  H    0.012513
   105  H    0.035709
   106  H    0.029425
   107  H    0.027603
   108  H    0.023108
   109  H    0.010035
   110  H    0.026904
   111  H    0.017856
   112  H    0.034107
   113  H    0.023385
   114  H    0.010945
   115  H    0.014816
   116  H    0.022968
   117  H    0.009432
   118  H    0.021479
   119  H    0.019900
   120  H    0.022294
   121  H    0.015529
   122  H    0.018711
   123  H    0.025390
   124  H    0.021255
   125  H    0.016942
   126  H    0.024329
   127  H    0.013994
   128  H    0.023753
   129  H    0.001838
   130  H    0.024762
   131  H    0.013299
   132  H    0.013583
   133  H    0.033427
   134  H    0.028371
   135  H    0.027826
   136  H    0.007341
   137  H    0.028681
   138  H    0.013950
   139  H    0.008872
   140  H    0.015945
 Sum of Mulliken charges =  -0.00000

 Dipole moment (field-independent basis, Debye):
    X=              4.0440    Y=             -1.1619    Z=             -4.2155  Tot=              5.9560
 N-N= 4.290915182005D+03 E-N= 0.000000000000D+00  KE=-9.256289410940D+03
 Leave Link  601 at Wed Apr 27 03:38:15 2022, MaxMem=  6710886400 cpu:               0.8 elap:               0.1
 (Enter /sw/apps/gaussian-16.0/g16/l9999.exe)
 1\1\GINC-BP1-COMPUTE161\SP\RZINDO CIS\STO-3G\C55H74Mg1N4O6\OF15641\27-
 Apr-2022\0\\#p ZINDO=(nstates=5)\\step_1051_chromophore_19 ZINDO\\0,1\
 Mg,0,25.711,50.525,26.587\C,0,23.643,51.278,29.354\C,0,28.097,49.561,2
 8.715\C,0,27.628,50.284,23.899\C,0,23.145,52.016,24.592\N,0,25.754,50.
 331,28.826\C,0,24.883,50.706,29.756\C,0,25.43,50.525,31.099\C,0,26.886
 ,49.956,30.924\C,0,26.955,49.957,29.394\C,0,28.16,50.712,31.644\C,0,24
 .458,49.582,31.936\C,0,23.765,49.962,33.37\C,0,24.669,50.574,34.472\O,

 Normal termination of Gaussian 16 at Wed Apr 27 03:38:15 2022.
