 Gaussian 16, Revision A.03,
 Gaussian 16:  ES64L-G16RevA.03 25-Dec-2016

 ------------------------------
 #p blyp/Def2SVP td=(nstates=5)
 ------------------------------

 ---------------------------------------------------
 step_1051_chromophore_22 TDDFT with blyp functional
 ---------------------------------------------------
 Symbolic Z-matrix:
 Charge =  0 Multiplicity = 1

                         Standard orientation:
 ---------------------------------------------------------------------
 Center     Atomic      Atomic             Coordinates (Angstroms)
 Number     Number       Type             X           Y           Z
 ---------------------------------------------------------------------
      1         12           0       -6.679013    0.655392   -0.151974
      2          6           0       -4.552652   -2.192793    0.377748
      3          6           0       -4.233612    2.484035    1.424647
      4          6           0       -8.490828    3.273557   -0.680213
      5          6           0       -9.341797   -1.508511   -0.591333
      6          7           0       -4.677552    0.202183    0.779625
      7          6           0       -4.005676   -1.016747    0.850042
      8          6           0       -2.618823   -0.862080    1.441901
      9          6           0       -2.795536    0.430703    2.295703
     10          6           0       -3.941605    1.165600    1.432683
     11          6           0       -3.239455    0.127675    3.749174
     12          6           0       -1.374478   -0.840435    0.430018
     13          6           0        0.018109   -1.203346    1.051648
     14          6           0        1.229156   -1.527629    0.120679
     15          8           0        1.167014   -1.462565   -1.133018
     16          8           0        2.250203   -2.123055    0.826860
     17          7           0       -6.392370    2.715526    0.259850
     18          6           0       -5.320515    3.309606    0.911575
     19          6           0       -5.502855    4.733580    0.920970
     20          6           0       -6.705045    4.972081    0.140887
     21          6           0       -7.294706    3.681337   -0.126587
     22          6           0       -4.633546    5.628395    1.832695
     23          6           0       -7.302635    6.276540   -0.227542
     24          8           0       -8.301224    6.340409   -0.882649
     25          6           0       -6.724195    7.601351    0.098229
     26          7           0       -8.735901    0.784776   -0.365153
     27          6           0       -9.190073    2.094465   -0.747405
     28          6           0      -10.600018    2.006841   -1.264184
     29          6           0      -10.990831    0.516264   -0.887321
     30          6           0       -9.680274   -0.161929   -0.580231
     31          6           0      -11.639802    3.039987   -0.826054
     32          6           0      -11.830660   -0.262839   -2.005131
     33          6           0      -13.199546   -0.813633   -1.569246
     34          7           0       -6.955434   -1.414487   -0.287889
     35          6           0       -8.082040   -2.147102   -0.485748
     36          6           0       -7.718341   -3.582238   -0.752905
     37          6           0       -6.387672   -3.630748   -0.437986
     38          6           0       -5.946598   -2.301227   -0.087185
     39          6           0       -8.651508   -4.669022   -1.102504
     40          6           0       -5.288306   -4.548948   -0.249435
     41          8           0       -5.254878   -5.753873   -0.428104
     42          6           0       -4.057816   -3.672750    0.285924
     43          6           0       -2.949760   -3.935559   -0.659744
     44          8           0       -2.935028   -3.645449   -1.797707
     45          8           0       -1.929461   -4.451122    0.030621
     46          6           0       -0.709701   -4.657359   -0.666558
     47          6           0        3.381715   -2.425763   -0.013100
     48          6           0        4.598418   -1.728749    0.501770
     49          6           0        5.880927   -2.191895    0.613469
     50          6           0        6.370098   -3.633754    0.294421
     51          6           0        6.955278   -1.291125    1.291663
     52          6           0        8.382728   -1.634427    1.119483
     53          6           0        9.324003   -0.399223    1.305228
     54          6           0       10.657434   -0.884408    1.967130
     55          6           0       10.454977   -0.840776    3.492986
     56          6           0       11.804831    0.058877    1.473811
     57          6           0       12.477197   -0.380606    0.150215
     58          6           0       12.571251    0.661326   -0.986103
     59          6           0       14.033194    0.913191   -1.484722
     60          6           0       14.113584    1.245528   -3.019511
     61          6           0       14.536223    2.058542   -0.614800
     62          6           0       16.024717    1.906412   -0.197373
     63          6           0       17.039188    1.719436   -1.310742
     64          6           0       18.513348    2.151330   -1.105602
     65          6           0       19.067780    3.134921   -2.191707
     66          6           0       19.457956    1.008475   -1.103240
     67          1           0       -3.358967    2.961594    1.869941
     68          1           0       -9.072616    4.122388   -1.044985
     69          1           0      -10.167031   -2.205108   -0.751255
     70          1           0       -2.604634   -1.739070    2.088375
     71          1           0       -1.797364    0.860292    2.388633
     72          1           0       -3.800279   -0.805231    3.689244
     73          1           0       -3.915684    0.934594    4.032070
     74          1           0       -2.440893    0.076817    4.490054
     75          1           0       -1.365864    0.159695   -0.004698
     76          1           0       -1.631298   -1.469289   -0.423005
     77          1           0       -0.159781   -2.106511    1.634729
     78          1           0        0.124235   -0.367156    1.743801
     79          1           0       -3.838613    4.990257    2.218344
     80          1           0       -5.159509    6.043861    2.691892
     81          1           0       -4.182023    6.388076    1.194301
     82          1           0       -5.780796    7.638030   -0.445638
     83          1           0       -6.541643    7.444870    1.162386
     84          1           0       -7.404888    8.398200   -0.200759
     85          1           0      -10.542350    2.172420   -2.340048
     86          1           0      -11.616656    0.543423    0.005323
     87          1           0      -11.240319    3.610485    0.012660
     88          1           0      -12.595909    2.611234   -0.525096
     89          1           0      -11.818095    3.733557   -1.648211
     90          1           0      -11.194060   -1.095090   -2.307336
     91          1           0      -11.973234    0.563214   -2.701733
     92          1           0      -13.941286   -0.451096   -2.279942
     93          1           0      -13.551961   -0.548763   -0.572226
     94          1           0      -13.336098   -1.882063   -1.733546
     95          1           0       -9.598220   -4.346362   -1.536504
     96          1           0       -8.753878   -5.172923   -0.141466
     97          1           0       -8.108753   -5.188347   -1.893112
     98          1           0       -3.689893   -4.028874    1.248485
     99          1           0       -0.851915   -5.565321   -1.253884
    100          1           0        0.038902   -4.859924    0.099325
    101          1           0       -0.316016   -3.852466   -1.287048
    102          1           0        3.340554   -2.130613   -1.060832
    103          1           0        3.626456   -3.486078    0.054413
    104          1           0        4.350331   -0.788389    0.994867
    105          1           0        5.531081   -4.242891   -0.040297
    106          1           0        6.814939   -3.984540    1.225167
    107          1           0        7.092103   -3.674317   -0.520486
    108          1           0        6.738199   -1.303058    2.360444
    109          1           0        6.716594   -0.257932    1.038805
    110          1           0        8.543919   -1.990449    0.102317
    111          1           0        8.722153   -2.434095    1.778466
    112          1           0        8.804737    0.377225    1.866616
    113          1           0        9.648413    0.031075    0.357825
    114          1           0       11.052443   -1.888409    1.811727
    115          1           0        9.586145   -1.448756    3.741403
    116          1           0       10.486545    0.209204    3.785758
    117          1           0       11.361859   -1.311846    3.871047
    118          1           0       12.490923    0.095264    2.320389
    119          1           0       11.407266    1.071400    1.402719
    120          1           0       11.866948   -1.217469   -0.189325
    121          1           0       13.449394   -0.757795    0.468902
    122          1           0       12.058464    1.577924   -0.693592
    123          1           0       11.997877    0.234249   -1.809122
    124          1           0       14.665324    0.045981   -1.295739
    125          1           0       14.453009    0.393714   -3.609949
    126          1           0       14.810776    2.035890   -3.299784
    127          1           0       13.092210    1.365882   -3.378856
    128          1           0       13.978691    2.128333    0.318532
    129          1           0       14.397435    3.038335   -1.073412
    130          1           0       16.010187    1.237955    0.663275
    131          1           0       16.355238    2.831484    0.274425
    132          1           0       16.607877    2.229341   -2.171206
    133          1           0       16.883604    0.671121   -1.566930
    134          1           0       18.619049    2.571723   -0.105747
    135          1           0       18.889187    4.115154   -1.751691
    136          1           0       18.529206    3.077979   -3.137731
    137          1           0       20.138145    3.192096   -2.391587
    138          1           0       20.294404    1.246204   -0.446294
    139          1           0       19.929414    0.830477   -2.070802
    140          1           0       19.002996    0.097158   -0.715060
 ---------------------------------------------------------------------

 SCF Done:  E(RB-LYP) =  -3007.36266466     A.U. after   20 cycles

 Excitation energies and oscillator strengths:

 Excited State   1:      Singlet-A      1.5321 eV  809.25 nm  f=0.0004  <S**2>=0.000
     244 -> 247        0.69135
     245 -> 247        0.14157
 This state for optimization and/or second-order correction.
 Total Energy, E(TD-HF/TD-DFT) =  -3007.30636168
 Copying the excited state density for this state as the 1-particle RhoCI density.

 Excited State   2:      Singlet-A      1.7868 eV  693.88 nm  f=0.3077  <S**2>=0.000
     245 -> 248        0.17030
     246 -> 247        0.69663
     246 <- 247       -0.16104

 Excited State   3:      Singlet-A      1.9287 eV  642.84 nm  f=0.0567  <S**2>=0.000
     243 -> 247        0.38458
     244 -> 247       -0.11397
     245 -> 247        0.55034
     246 -> 248       -0.15221

 Excited State   4:      Singlet-A      2.0475 eV  605.53 nm  f=0.0351  <S**2>=0.000
     243 -> 247        0.59105
     245 -> 247       -0.33969
     246 -> 248        0.13727

 Excited State   5:      Singlet-A      2.1233 eV  583.92 nm  f=0.0000  <S**2>=0.000
     242 -> 247        0.70706

 The electronic state is 1-A.
 Alpha  occ. eigenvalues --  -46.26991 -18.84108 -18.81928 -18.77984 -18.76162
 Alpha  occ. eigenvalues --  -18.75977 -18.74199 -14.02955 -14.02680 -14.01050
 Alpha  occ. eigenvalues --  -14.00577 -10.05898 -10.02805  -9.99850  -9.98290
 Alpha  occ. eigenvalues --   -9.97911  -9.97044  -9.96642  -9.96509  -9.96378
 Alpha  occ. eigenvalues --   -9.96296  -9.96014  -9.95660  -9.95311  -9.95193
 Alpha  occ. eigenvalues --   -9.94890  -9.94569  -9.94262  -9.94077  -9.94026
 Alpha  occ. eigenvalues --   -9.93939  -9.93884  -9.93703  -9.93615  -9.93548
 Alpha  occ. eigenvalues --   -9.93532  -9.93288  -9.92929  -9.92914  -9.92907
 Alpha  occ. eigenvalues --   -9.92698  -9.92636  -9.92508  -9.92419  -9.92109
 Alpha  occ. eigenvalues --   -9.92053  -9.91990  -9.91906  -9.91903  -9.91876
 Alpha  occ. eigenvalues --   -9.91749  -9.91679  -9.91672  -9.91571  -9.91441
 Alpha  occ. eigenvalues --   -9.91379  -9.91224  -9.91129  -9.91030  -9.90990
 Alpha  occ. eigenvalues --   -9.90990  -9.90915  -9.90914  -9.90814  -9.90727
 Alpha  occ. eigenvalues --   -9.90047  -2.91577  -1.72001  -1.71454  -1.71293
 Alpha  occ. eigenvalues --   -0.99865  -0.99016  -0.92395  -0.91925  -0.91514
 Alpha  occ. eigenvalues --   -0.89991  -0.86323  -0.84977  -0.84804  -0.84025
 Alpha  occ. eigenvalues --   -0.74531  -0.73747  -0.73116  -0.72387  -0.72135
 Alpha  occ. eigenvalues --   -0.72029  -0.71653  -0.71163  -0.71102  -0.70218
 Alpha  occ. eigenvalues --   -0.69545  -0.69449  -0.68328  -0.67919  -0.67297
 Alpha  occ. eigenvalues --   -0.66948  -0.65878  -0.65528  -0.65238  -0.64646
 Alpha  occ. eigenvalues --   -0.64312  -0.62771  -0.62434  -0.61886  -0.60853
 Alpha  occ. eigenvalues --   -0.60604  -0.60186  -0.60102  -0.59840  -0.59200
 Alpha  occ. eigenvalues --   -0.58495  -0.57743  -0.56404  -0.55657  -0.54459
 Alpha  occ. eigenvalues --   -0.54057  -0.53685  -0.52778  -0.52343  -0.51466
 Alpha  occ. eigenvalues --   -0.51132  -0.50897  -0.50548  -0.50325  -0.50119
 Alpha  occ. eigenvalues --   -0.49996  -0.49278  -0.48788  -0.48670  -0.46772
 Alpha  occ. eigenvalues --   -0.46394  -0.46149  -0.45702  -0.45095  -0.44370
 Alpha  occ. eigenvalues --   -0.44239  -0.43668  -0.43159  -0.42905  -0.42747
 Alpha  occ. eigenvalues --   -0.42004  -0.41835  -0.41703  -0.41272  -0.41187
 Alpha  occ. eigenvalues --   -0.40921  -0.40780  -0.40302  -0.40241  -0.40050
 Alpha  occ. eigenvalues --   -0.39923  -0.39884  -0.39786  -0.39642  -0.39227
 Alpha  occ. eigenvalues --   -0.39148  -0.38948  -0.38819  -0.38518  -0.38203
 Alpha  occ. eigenvalues --   -0.38048  -0.37817  -0.37772  -0.37580  -0.37403
 Alpha  occ. eigenvalues --   -0.37328  -0.37120  -0.36908  -0.36871  -0.36686
 Alpha  occ. eigenvalues --   -0.36633  -0.36182  -0.35862  -0.35734  -0.35588
 Alpha  occ. eigenvalues --   -0.35414  -0.35385  -0.35141  -0.34930  -0.34841
 Alpha  occ. eigenvalues --   -0.34718  -0.34589  -0.34253  -0.34061  -0.33830
 Alpha  occ. eigenvalues --   -0.33681  -0.33564  -0.33444  -0.33259  -0.33229
 Alpha  occ. eigenvalues --   -0.33143  -0.32667  -0.32462  -0.32253  -0.32154
 Alpha  occ. eigenvalues --   -0.32015  -0.31983  -0.31917  -0.31737  -0.31575
 Alpha  occ. eigenvalues --   -0.31404  -0.31171  -0.30979  -0.30876  -0.30594
 Alpha  occ. eigenvalues --   -0.30419  -0.30243  -0.30082  -0.29916  -0.29796
 Alpha  occ. eigenvalues --   -0.29762  -0.29556  -0.29465  -0.29385  -0.28776
 Alpha  occ. eigenvalues --   -0.28463  -0.28343  -0.28192  -0.28094  -0.27893
 Alpha  occ. eigenvalues --   -0.27740  -0.27724  -0.27232  -0.26760  -0.26568
 Alpha  occ. eigenvalues --   -0.26420  -0.26186  -0.25990  -0.25708  -0.25585
 Alpha  occ. eigenvalues --   -0.25200  -0.24958  -0.24599  -0.23760  -0.23432
 Alpha  occ. eigenvalues --   -0.23367  -0.22902  -0.22683  -0.21511  -0.20936
 Alpha  occ. eigenvalues --   -0.20017  -0.19653  -0.19123  -0.17430  -0.17259
 Alpha  occ. eigenvalues --   -0.15950
 Alpha virt. eigenvalues --   -0.11850  -0.06565  -0.05863  -0.04834  -0.04244
 Alpha virt. eigenvalues --   -0.02258  -0.01915  -0.01783  -0.01120   0.00861
 Alpha virt. eigenvalues --    0.01249   0.01829   0.02357   0.02542   0.02898

 Mulliken charges:
               1
     1  Mg   0.693490
     2  C    0.062119
     3  C   -0.023837
     4  C   -0.033865
     5  C   -0.085040
     6  N   -0.215265
     7  C   -0.094793
     8  C    0.017434
     9  C   -0.017896
    10  C   -0.003578
    11  C    0.140951
    12  C    0.113452
    13  C    0.091003
    14  C    0.144266
    15  O   -0.211463
    16  O   -0.253731
    17  N   -0.296928
    18  C    0.137971
    19  C   -0.153066
    20  C    0.080315
    21  C    0.099582
    22  C    0.165323
    23  C   -0.157825
    24  O   -0.152062
    25  C    0.160085
    26  N   -0.282828
    27  C    0.042569
    28  C    0.002452
    29  C    0.051431
    30  C    0.041285
    31  C    0.127246
    32  C    0.091396
    33  C    0.059794
    34  N   -0.239273
    35  C    0.094427
    36  C   -0.195695
    37  C    0.118564
    38  C    0.038266
    39  C    0.179183
    40  C   -0.046392
    41  O   -0.122476
    42  C    0.040641
    43  C    0.059764
    44  O   -0.136605
    45  O   -0.239251
    46  C    0.201106
    47  C    0.339441
    48  C   -0.123902
    49  C   -0.159859
    50  C    0.156505
    51  C    0.086404
    52  C    0.095942
    53  C    0.128906
    54  C   -0.133140
    55  C    0.116916
    56  C    0.067073
    57  C    0.091891
    58  C    0.123356
    59  C   -0.076183
    60  C    0.113801
    61  C    0.099104
    62  C    0.027420
    63  C    0.124675
    64  C   -0.034254
    65  C    0.087569
    66  C    0.099383
    67  H   -0.062779
    68  H   -0.050814
    69  H   -0.066640
    70  H   -0.044945
    71  H   -0.044394
    72  H   -0.005086
    73  H   -0.012658
    74  H   -0.000740
    75  H   -0.020598
    76  H   -0.000348
    77  H    0.007201
    78  H    0.006129
    79  H   -0.024386
    80  H    0.023474
    81  H    0.000752
    82  H    0.006725
    83  H   -0.007097
    84  H    0.001233
    85  H   -0.011386
    86  H   -0.020164
    87  H   -0.000417
    88  H   -0.008532
    89  H   -0.006493
    90  H   -0.008118
    91  H   -0.016183
    92  H   -0.020174
    93  H   -0.002579
    94  H   -0.014883
    95  H   -0.011534
    96  H    0.027570
    97  H    0.020386
    98  H   -0.013836
    99  H    0.007184
   100  H    0.002348
   101  H    0.032735
   102  H    0.023792
   103  H   -0.016642
   104  H   -0.045956
   105  H   -0.024133
   106  H    0.005335
   107  H    0.004330
   108  H   -0.018813
   109  H   -0.021330
   110  H   -0.033547
   111  H   -0.025401
   112  H   -0.026797
   113  H   -0.031962
   114  H   -0.033491
   115  H   -0.012302
   116  H   -0.012866
   117  H   -0.024960
   118  H   -0.053894
   119  H   -0.039177
   120  H   -0.027949
   121  H   -0.021436
   122  H   -0.023455
   123  H   -0.048980
   124  H   -0.025861
   125  H   -0.028539
   126  H   -0.001704
   127  H   -0.022755
   128  H   -0.036034
   129  H   -0.037001
   130  H   -0.033841
   131  H   -0.052451
   132  H   -0.047358
   133  H   -0.035597
   134  H   -0.034348
   135  H   -0.025686
   136  H   -0.006596
   137  H   -0.014210
   138  H   -0.029508
   139  H   -0.017724
   140  H   -0.025403
 Sum of Mulliken charges =  -0.00000

 Dipole moment (field-independent basis, Debye):
    X=              2.2492    Y=              1.0699    Z=              3.5199  Tot=              4.3120
 Quadrupole moment (field-independent basis, Debye-Ang):
   XX=           -359.3962   YY=           -429.3219   ZZ=           -407.8673
   XY=             -0.9176   XZ=             -0.6094   YZ=              2.0422

 Normal termination of Gaussian 16 at Wed Apr 27 03:57:11 2022.
