 Gaussian 16, Revision A.03,
 Gaussian 16:  ES64L-G16RevA.03 25-Dec-2016

 -----------------------------------
 #p cam-b3lyp/Def2SVP td=(nstates=5)
 -----------------------------------

 --------------------------------------------------------
 step_1051_chromophore_22 TDDFT with cam-b3lyp functional
 --------------------------------------------------------
 Symbolic Z-matrix:
 Charge =  0 Multiplicity = 1

                         Standard orientation:
 ---------------------------------------------------------------------
 Center     Atomic      Atomic             Coordinates (Angstroms)
 Number     Number       Type             X           Y           Z
 ---------------------------------------------------------------------
      1         12           0       -6.679013    0.655392   -0.151974
      2          6           0       -4.552652   -2.192793    0.377748
      3          6           0       -4.233612    2.484035    1.424647
      4          6           0       -8.490828    3.273557   -0.680213
      5          6           0       -9.341797   -1.508511   -0.591333
      6          7           0       -4.677552    0.202183    0.779625
      7          6           0       -4.005676   -1.016747    0.850042
      8          6           0       -2.618823   -0.862080    1.441901
      9          6           0       -2.795536    0.430703    2.295703
     10          6           0       -3.941605    1.165600    1.432683
     11          6           0       -3.239455    0.127675    3.749174
     12          6           0       -1.374478   -0.840435    0.430018
     13          6           0        0.018109   -1.203346    1.051648
     14          6           0        1.229156   -1.527629    0.120679
     15          8           0        1.167014   -1.462565   -1.133018
     16          8           0        2.250203   -2.123055    0.826860
     17          7           0       -6.392370    2.715526    0.259850
     18          6           0       -5.320515    3.309606    0.911575
     19          6           0       -5.502855    4.733580    0.920970
     20          6           0       -6.705045    4.972081    0.140887
     21          6           0       -7.294706    3.681337   -0.126587
     22          6           0       -4.633546    5.628395    1.832695
     23          6           0       -7.302635    6.276540   -0.227542
     24          8           0       -8.301224    6.340409   -0.882649
     25          6           0       -6.724195    7.601351    0.098229
     26          7           0       -8.735901    0.784776   -0.365153
     27          6           0       -9.190073    2.094465   -0.747405
     28          6           0      -10.600018    2.006841   -1.264184
     29          6           0      -10.990831    0.516264   -0.887321
     30          6           0       -9.680274   -0.161929   -0.580231
     31          6           0      -11.639802    3.039987   -0.826054
     32          6           0      -11.830660   -0.262839   -2.005131
     33          6           0      -13.199546   -0.813633   -1.569246
     34          7           0       -6.955434   -1.414487   -0.287889
     35          6           0       -8.082040   -2.147102   -0.485748
     36          6           0       -7.718341   -3.582238   -0.752905
     37          6           0       -6.387672   -3.630748   -0.437986
     38          6           0       -5.946598   -2.301227   -0.087185
     39          6           0       -8.651508   -4.669022   -1.102504
     40          6           0       -5.288306   -4.548948   -0.249435
     41          8           0       -5.254878   -5.753873   -0.428104
     42          6           0       -4.057816   -3.672750    0.285924
     43          6           0       -2.949760   -3.935559   -0.659744
     44          8           0       -2.935028   -3.645449   -1.797707
     45          8           0       -1.929461   -4.451122    0.030621
     46          6           0       -0.709701   -4.657359   -0.666558
     47          6           0        3.381715   -2.425763   -0.013100
     48          6           0        4.598418   -1.728749    0.501770
     49          6           0        5.880927   -2.191895    0.613469
     50          6           0        6.370098   -3.633754    0.294421
     51          6           0        6.955278   -1.291125    1.291663
     52          6           0        8.382728   -1.634427    1.119483
     53          6           0        9.324003   -0.399223    1.305228
     54          6           0       10.657434   -0.884408    1.967130
     55          6           0       10.454977   -0.840776    3.492986
     56          6           0       11.804831    0.058877    1.473811
     57          6           0       12.477197   -0.380606    0.150215
     58          6           0       12.571251    0.661326   -0.986103
     59          6           0       14.033194    0.913191   -1.484722
     60          6           0       14.113584    1.245528   -3.019511
     61          6           0       14.536223    2.058542   -0.614800
     62          6           0       16.024717    1.906412   -0.197373
     63          6           0       17.039188    1.719436   -1.310742
     64          6           0       18.513348    2.151330   -1.105602
     65          6           0       19.067780    3.134921   -2.191707
     66          6           0       19.457956    1.008475   -1.103240
     67          1           0       -3.358967    2.961594    1.869941
     68          1           0       -9.072616    4.122388   -1.044985
     69          1           0      -10.167031   -2.205108   -0.751255
     70          1           0       -2.604634   -1.739070    2.088375
     71          1           0       -1.797364    0.860292    2.388633
     72          1           0       -3.800279   -0.805231    3.689244
     73          1           0       -3.915684    0.934594    4.032070
     74          1           0       -2.440893    0.076817    4.490054
     75          1           0       -1.365864    0.159695   -0.004698
     76          1           0       -1.631298   -1.469289   -0.423005
     77          1           0       -0.159781   -2.106511    1.634729
     78          1           0        0.124235   -0.367156    1.743801
     79          1           0       -3.838613    4.990257    2.218344
     80          1           0       -5.159509    6.043861    2.691892
     81          1           0       -4.182023    6.388076    1.194301
     82          1           0       -5.780796    7.638030   -0.445638
     83          1           0       -6.541643    7.444870    1.162386
     84          1           0       -7.404888    8.398200   -0.200759
     85          1           0      -10.542350    2.172420   -2.340048
     86          1           0      -11.616656    0.543423    0.005323
     87          1           0      -11.240319    3.610485    0.012660
     88          1           0      -12.595909    2.611234   -0.525096
     89          1           0      -11.818095    3.733557   -1.648211
     90          1           0      -11.194060   -1.095090   -2.307336
     91          1           0      -11.973234    0.563214   -2.701733
     92          1           0      -13.941286   -0.451096   -2.279942
     93          1           0      -13.551961   -0.548763   -0.572226
     94          1           0      -13.336098   -1.882063   -1.733546
     95          1           0       -9.598220   -4.346362   -1.536504
     96          1           0       -8.753878   -5.172923   -0.141466
     97          1           0       -8.108753   -5.188347   -1.893112
     98          1           0       -3.689893   -4.028874    1.248485
     99          1           0       -0.851915   -5.565321   -1.253884
    100          1           0        0.038902   -4.859924    0.099325
    101          1           0       -0.316016   -3.852466   -1.287048
    102          1           0        3.340554   -2.130613   -1.060832
    103          1           0        3.626456   -3.486078    0.054413
    104          1           0        4.350331   -0.788389    0.994867
    105          1           0        5.531081   -4.242891   -0.040297
    106          1           0        6.814939   -3.984540    1.225167
    107          1           0        7.092103   -3.674317   -0.520486
    108          1           0        6.738199   -1.303058    2.360444
    109          1           0        6.716594   -0.257932    1.038805
    110          1           0        8.543919   -1.990449    0.102317
    111          1           0        8.722153   -2.434095    1.778466
    112          1           0        8.804737    0.377225    1.866616
    113          1           0        9.648413    0.031075    0.357825
    114          1           0       11.052443   -1.888409    1.811727
    115          1           0        9.586145   -1.448756    3.741403
    116          1           0       10.486545    0.209204    3.785758
    117          1           0       11.361859   -1.311846    3.871047
    118          1           0       12.490923    0.095264    2.320389
    119          1           0       11.407266    1.071400    1.402719
    120          1           0       11.866948   -1.217469   -0.189325
    121          1           0       13.449394   -0.757795    0.468902
    122          1           0       12.058464    1.577924   -0.693592
    123          1           0       11.997877    0.234249   -1.809122
    124          1           0       14.665324    0.045981   -1.295739
    125          1           0       14.453009    0.393714   -3.609949
    126          1           0       14.810776    2.035890   -3.299784
    127          1           0       13.092210    1.365882   -3.378856
    128          1           0       13.978691    2.128333    0.318532
    129          1           0       14.397435    3.038335   -1.073412
    130          1           0       16.010187    1.237955    0.663275
    131          1           0       16.355238    2.831484    0.274425
    132          1           0       16.607877    2.229341   -2.171206
    133          1           0       16.883604    0.671121   -1.566930
    134          1           0       18.619049    2.571723   -0.105747
    135          1           0       18.889187    4.115154   -1.751691
    136          1           0       18.529206    3.077979   -3.137731
    137          1           0       20.138145    3.192096   -2.391587
    138          1           0       20.294404    1.246204   -0.446294
    139          1           0       19.929414    0.830477   -2.070802
    140          1           0       19.002996    0.097158   -0.715060
 ---------------------------------------------------------------------

 SCF Done:  E(RCAM-B3LYP) =  -3007.15965056     A.U. after   19 cycles

 Excitation energies and oscillator strengths:

 Excited State   1:      Singlet-A      1.6803 eV  737.89 nm  f=0.3861  <S**2>=0.000
     245 -> 248        0.15796
     246 -> 247        0.69059
     245 <- 248        0.10280
 This state for optimization and/or second-order correction.
 Total Energy, E(TD-HF/TD-DFT) =  -3007.09790210
 Copying the excited state density for this state as the 1-particle RhoCI density.

 Excited State   2:      Singlet-A      2.1762 eV  569.73 nm  f=0.1444  <S**2>=0.000
     245 -> 247        0.65582
     246 -> 248       -0.24967

 Excited State   3:      Singlet-A      3.2241 eV  384.55 nm  f=0.0039  <S**2>=0.000
     241 -> 247       -0.19807
     244 -> 247        0.65640

 Excited State   4:      Singlet-A      3.4327 eV  361.18 nm  f=0.0083  <S**2>=0.000
     239 -> 247        0.13428
     240 -> 247        0.13225
     240 -> 249       -0.10782
     241 -> 247        0.53561
     242 -> 247        0.20525
     244 -> 247        0.16841
     246 -> 248        0.21010

 Excited State   5:      Singlet-A      3.4803 eV  356.24 nm  f=0.0019  <S**2>=0.000
     240 -> 247       -0.10466
     241 -> 247       -0.17234
     242 -> 247        0.56241
     242 -> 248        0.15345
     242 -> 249        0.14711
     242 -> 250       -0.16092
     242 -> 251        0.11377
     242 -> 252       -0.10173

 The electronic state is 1-A.
 Alpha  occ. eigenvalues --  -46.88532 -19.27050 -19.25010 -19.21011 -19.19830
 Alpha  occ. eigenvalues --  -19.19250 -19.16983 -14.41716 -14.41679 -14.39794
 Alpha  occ. eigenvalues --  -14.38790 -10.41402 -10.38214 -10.35616 -10.32942
 Alpha  occ. eigenvalues --  -10.31907 -10.31476 -10.31276 -10.31072 -10.30905
 Alpha  occ. eigenvalues --  -10.30533 -10.30470 -10.30305 -10.29420 -10.29215
 Alpha  occ. eigenvalues --  -10.29018 -10.29006 -10.28672 -10.28584 -10.28287
 Alpha  occ. eigenvalues --  -10.28227 -10.27924 -10.27920 -10.27816 -10.27594
 Alpha  occ. eigenvalues --  -10.27514 -10.27307 -10.26851 -10.26820 -10.26813
 Alpha  occ. eigenvalues --  -10.26630 -10.26432 -10.26244 -10.26140 -10.25845
 Alpha  occ. eigenvalues --  -10.25771 -10.25742 -10.25722 -10.25644 -10.25623
 Alpha  occ. eigenvalues --  -10.25616 -10.25607 -10.25571 -10.25415 -10.25265
 Alpha  occ. eigenvalues --  -10.25110 -10.25068 -10.24936 -10.24651 -10.24631
 Alpha  occ. eigenvalues --  -10.24609 -10.24571 -10.24562 -10.24467 -10.24363
 Alpha  occ. eigenvalues --  -10.23581  -3.17018  -1.91920  -1.91470  -1.91322
 Alpha  occ. eigenvalues --   -1.18684  -1.17462  -1.10677  -1.10496  -1.09839
 Alpha  occ. eigenvalues --   -1.07903  -1.04393  -1.02482  -1.02467  -1.01276
 Alpha  occ. eigenvalues --   -0.91892  -0.90642  -0.89936  -0.89149  -0.88798
 Alpha  occ. eigenvalues --   -0.88758  -0.88430  -0.88026  -0.87750  -0.86678
 Alpha  occ. eigenvalues --   -0.85880  -0.85727  -0.84626  -0.84214  -0.83436
 Alpha  occ. eigenvalues --   -0.83053  -0.81924  -0.81402  -0.81093  -0.80530
 Alpha  occ. eigenvalues --   -0.80121  -0.78517  -0.78029  -0.77416  -0.76383
 Alpha  occ. eigenvalues --   -0.76043  -0.75539  -0.75323  -0.75153  -0.74443
 Alpha  occ. eigenvalues --   -0.73595  -0.72886  -0.71200  -0.70467  -0.69172
 Alpha  occ. eigenvalues --   -0.68887  -0.68251  -0.67123  -0.66637  -0.65621
 Alpha  occ. eigenvalues --   -0.65235  -0.64994  -0.64605  -0.64244  -0.64088
 Alpha  occ. eigenvalues --   -0.64034  -0.63269  -0.62687  -0.62548  -0.60367
 Alpha  occ. eigenvalues --   -0.60138  -0.59624  -0.59203  -0.58581  -0.58113
 Alpha  occ. eigenvalues --   -0.57546  -0.57238  -0.56668  -0.56201  -0.56084
 Alpha  occ. eigenvalues --   -0.55284  -0.54911  -0.54699  -0.54349  -0.54137
 Alpha  occ. eigenvalues --   -0.53924  -0.53729  -0.53092  -0.52855  -0.52799
 Alpha  occ. eigenvalues --   -0.52644  -0.52532  -0.52415  -0.52369  -0.51955
 Alpha  occ. eigenvalues --   -0.51654  -0.51416  -0.51253  -0.51027  -0.50674
 Alpha  occ. eigenvalues --   -0.50444  -0.50201  -0.50028  -0.49976  -0.49826
 Alpha  occ. eigenvalues --   -0.49610  -0.49523  -0.49379  -0.49240  -0.49071
 Alpha  occ. eigenvalues --   -0.48831  -0.48618  -0.48158  -0.47814  -0.47585
 Alpha  occ. eigenvalues --   -0.47501  -0.47306  -0.47228  -0.47147  -0.46879
 Alpha  occ. eigenvalues --   -0.46811  -0.46573  -0.46219  -0.45876  -0.45627
 Alpha  occ. eigenvalues --   -0.45479  -0.45336  -0.45204  -0.45101  -0.44967
 Alpha  occ. eigenvalues --   -0.44838  -0.44481  -0.44231  -0.44052  -0.43996
 Alpha  occ. eigenvalues --   -0.43712  -0.43597  -0.43456  -0.43279  -0.43109
 Alpha  occ. eigenvalues --   -0.43016  -0.42753  -0.42325  -0.42294  -0.42121
 Alpha  occ. eigenvalues --   -0.41866  -0.41664  -0.41416  -0.41297  -0.41052
 Alpha  occ. eigenvalues --   -0.40986  -0.40863  -0.40786  -0.40573  -0.39852
 Alpha  occ. eigenvalues --   -0.39469  -0.39419  -0.39155  -0.39150  -0.38847
 Alpha  occ. eigenvalues --   -0.38601  -0.38507  -0.38074  -0.37656  -0.37612
 Alpha  occ. eigenvalues --   -0.37372  -0.37149  -0.36962  -0.36836  -0.36468
 Alpha  occ. eigenvalues --   -0.36295  -0.35568  -0.35174  -0.35071  -0.34413
 Alpha  occ. eigenvalues --   -0.34378  -0.34173  -0.32628  -0.31834  -0.31391
 Alpha  occ. eigenvalues --   -0.30678  -0.29378  -0.29312  -0.28895  -0.24155
 Alpha  occ. eigenvalues --   -0.21343
 Alpha virt. eigenvalues --   -0.09092  -0.01247   0.00548   0.02629   0.02999
 Alpha virt. eigenvalues --    0.03051   0.05308   0.05580   0.06516   0.07003
 Alpha virt. eigenvalues --    0.08109   0.08466   0.08674   0.08803   0.09291

 Mulliken charges:
               1
     1  Mg   0.825347
     2  C    0.026060
     3  C   -0.042485
     4  C   -0.054799
     5  C   -0.098587
     6  N   -0.284534
     7  C   -0.044798
     8  C   -0.033518
     9  C   -0.067624
    10  C    0.008654
    11  C    0.086367
    12  C    0.065831
    13  C    0.028170
    14  C    0.221222
    15  O   -0.253466
    16  O   -0.316074
    17  N   -0.380326
    18  C    0.141133
    19  C   -0.158121
    20  C    0.006857
    21  C    0.117638
    22  C    0.114020
    23  C   -0.078571
    24  O   -0.197347
    25  C    0.083835
    26  N   -0.355227
    27  C    0.062371
    28  C   -0.052491
    29  C   -0.003550
    30  C    0.070226
    31  C    0.066593
    32  C    0.033929
    33  C   -0.002927
    34  N   -0.326500
    35  C    0.106250
    36  C   -0.185528
    37  C    0.036596
    38  C    0.080606
    39  C    0.126976
    40  C    0.052430
    41  O   -0.157940
    42  C   -0.029166
    43  C    0.149142
    44  O   -0.171888
    45  O   -0.301632
    46  C    0.158869
    47  C    0.293953
    48  C   -0.140870
    49  C   -0.176489
    50  C    0.092225
    51  C    0.032557
    52  C    0.036384
    53  C    0.076376
    54  C   -0.189527
    55  C    0.062388
    56  C    0.015649
    57  C    0.036964
    58  C    0.064864
    59  C   -0.135457
    60  C    0.054761
    61  C    0.048753
    62  C   -0.018413
    63  C    0.066713
    64  C   -0.097086
    65  C    0.026612
    66  C    0.039856
    67  H   -0.030925
    68  H   -0.009614
    69  H   -0.030738
    70  H   -0.009306
    71  H   -0.010862
    72  H    0.015955
    73  H    0.014385
    74  H    0.023640
    75  H    0.012301
    76  H    0.026229
    77  H    0.037071
    78  H    0.034991
    79  H    0.001216
    80  H    0.045940
    81  H    0.023686
    82  H    0.032586
    83  H    0.016793
    84  H    0.034362
    85  H    0.021859
    86  H    0.014846
    87  H    0.026064
    88  H    0.014737
    89  H    0.018559
    90  H    0.019360
    91  H    0.013530
    92  H    0.005360
    93  H    0.020501
    94  H    0.009322
    95  H    0.015663
    96  H    0.055226
    97  H    0.048443
    98  H    0.031843
    99  H    0.032341
   100  H    0.025254
   101  H    0.054844
   102  H    0.058849
   103  H    0.010179
   104  H   -0.012076
   105  H    0.000684
   106  H    0.028915
   107  H    0.028728
   108  H    0.009683
   109  H    0.008395
   110  H   -0.005110
   111  H    0.001127
   112  H    0.002265
   113  H   -0.004164
   114  H   -0.002243
   115  H    0.010701
   116  H    0.010468
   117  H   -0.000367
   118  H   -0.022835
   119  H   -0.011972
   120  H    0.000820
   121  H    0.005994
   122  H    0.004349
   123  H   -0.017680
   124  H    0.005033
   125  H   -0.002692
   126  H    0.020252
   127  H    0.002720
   128  H   -0.007193
   129  H   -0.007502
   130  H   -0.007695
   131  H   -0.022839
   132  H   -0.020539
   133  H   -0.008623
   134  H   -0.002003
   135  H   -0.001321
   136  H    0.016808
   137  H    0.011282
   138  H   -0.004012
   139  H    0.006414
   140  H   -0.000498
 Sum of Mulliken charges =  -0.00000

 Dipole moment (field-independent basis, Debye):
    X=              2.1367    Y=              0.4087    Z=              3.6240  Tot=              4.2268
 Quadrupole moment (field-independent basis, Debye-Ang):
   XX=           -354.2142   YY=           -427.1285   ZZ=           -408.1206
   XY=              4.7299   XZ=              0.5606   YZ=              2.7303

 Normal termination of Gaussian 16 at Wed Apr 27 03:03:55 2022.
