 Gaussian 16, Revision A.03,
 Gaussian 16:  ES64L-G16RevA.03 25-Dec-2016

 ---------------------------------
 #p PBE1PBE/Def2SVP td=(nstates=5)
 ---------------------------------

 ------------------------------------------------------
 step_1051_chromophore_22 TDDFT with PBE1PBE functional
 ------------------------------------------------------
 Symbolic Z-matrix:
 Charge =  0 Multiplicity = 1

                         Standard orientation:
 ---------------------------------------------------------------------
 Center     Atomic      Atomic             Coordinates (Angstroms)
 Number     Number       Type             X           Y           Z
 ---------------------------------------------------------------------
      1         12           0       -6.679013    0.655392   -0.151974
      2          6           0       -4.552652   -2.192793    0.377748
      3          6           0       -4.233612    2.484035    1.424647
      4          6           0       -8.490828    3.273557   -0.680213
      5          6           0       -9.341797   -1.508511   -0.591333
      6          7           0       -4.677552    0.202183    0.779625
      7          6           0       -4.005676   -1.016747    0.850042
      8          6           0       -2.618823   -0.862080    1.441901
      9          6           0       -2.795536    0.430703    2.295703
     10          6           0       -3.941605    1.165600    1.432683
     11          6           0       -3.239455    0.127675    3.749174
     12          6           0       -1.374478   -0.840435    0.430018
     13          6           0        0.018109   -1.203346    1.051648
     14          6           0        1.229156   -1.527629    0.120679
     15          8           0        1.167014   -1.462565   -1.133018
     16          8           0        2.250203   -2.123055    0.826860
     17          7           0       -6.392370    2.715526    0.259850
     18          6           0       -5.320515    3.309606    0.911575
     19          6           0       -5.502855    4.733580    0.920970
     20          6           0       -6.705045    4.972081    0.140887
     21          6           0       -7.294706    3.681337   -0.126587
     22          6           0       -4.633546    5.628395    1.832695
     23          6           0       -7.302635    6.276540   -0.227542
     24          8           0       -8.301224    6.340409   -0.882649
     25          6           0       -6.724195    7.601351    0.098229
     26          7           0       -8.735901    0.784776   -0.365153
     27          6           0       -9.190073    2.094465   -0.747405
     28          6           0      -10.600018    2.006841   -1.264184
     29          6           0      -10.990831    0.516264   -0.887321
     30          6           0       -9.680274   -0.161929   -0.580231
     31          6           0      -11.639802    3.039987   -0.826054
     32          6           0      -11.830660   -0.262839   -2.005131
     33          6           0      -13.199546   -0.813633   -1.569246
     34          7           0       -6.955434   -1.414487   -0.287889
     35          6           0       -8.082040   -2.147102   -0.485748
     36          6           0       -7.718341   -3.582238   -0.752905
     37          6           0       -6.387672   -3.630748   -0.437986
     38          6           0       -5.946598   -2.301227   -0.087185
     39          6           0       -8.651508   -4.669022   -1.102504
     40          6           0       -5.288306   -4.548948   -0.249435
     41          8           0       -5.254878   -5.753873   -0.428104
     42          6           0       -4.057816   -3.672750    0.285924
     43          6           0       -2.949760   -3.935559   -0.659744
     44          8           0       -2.935028   -3.645449   -1.797707
     45          8           0       -1.929461   -4.451122    0.030621
     46          6           0       -0.709701   -4.657359   -0.666558
     47          6           0        3.381715   -2.425763   -0.013100
     48          6           0        4.598418   -1.728749    0.501770
     49          6           0        5.880927   -2.191895    0.613469
     50          6           0        6.370098   -3.633754    0.294421
     51          6           0        6.955278   -1.291125    1.291663
     52          6           0        8.382728   -1.634427    1.119483
     53          6           0        9.324003   -0.399223    1.305228
     54          6           0       10.657434   -0.884408    1.967130
     55          6           0       10.454977   -0.840776    3.492986
     56          6           0       11.804831    0.058877    1.473811
     57          6           0       12.477197   -0.380606    0.150215
     58          6           0       12.571251    0.661326   -0.986103
     59          6           0       14.033194    0.913191   -1.484722
     60          6           0       14.113584    1.245528   -3.019511
     61          6           0       14.536223    2.058542   -0.614800
     62          6           0       16.024717    1.906412   -0.197373
     63          6           0       17.039188    1.719436   -1.310742
     64          6           0       18.513348    2.151330   -1.105602
     65          6           0       19.067780    3.134921   -2.191707
     66          6           0       19.457956    1.008475   -1.103240
     67          1           0       -3.358967    2.961594    1.869941
     68          1           0       -9.072616    4.122388   -1.044985
     69          1           0      -10.167031   -2.205108   -0.751255
     70          1           0       -2.604634   -1.739070    2.088375
     71          1           0       -1.797364    0.860292    2.388633
     72          1           0       -3.800279   -0.805231    3.689244
     73          1           0       -3.915684    0.934594    4.032070
     74          1           0       -2.440893    0.076817    4.490054
     75          1           0       -1.365864    0.159695   -0.004698
     76          1           0       -1.631298   -1.469289   -0.423005
     77          1           0       -0.159781   -2.106511    1.634729
     78          1           0        0.124235   -0.367156    1.743801
     79          1           0       -3.838613    4.990257    2.218344
     80          1           0       -5.159509    6.043861    2.691892
     81          1           0       -4.182023    6.388076    1.194301
     82          1           0       -5.780796    7.638030   -0.445638
     83          1           0       -6.541643    7.444870    1.162386
     84          1           0       -7.404888    8.398200   -0.200759
     85          1           0      -10.542350    2.172420   -2.340048
     86          1           0      -11.616656    0.543423    0.005323
     87          1           0      -11.240319    3.610485    0.012660
     88          1           0      -12.595909    2.611234   -0.525096
     89          1           0      -11.818095    3.733557   -1.648211
     90          1           0      -11.194060   -1.095090   -2.307336
     91          1           0      -11.973234    0.563214   -2.701733
     92          1           0      -13.941286   -0.451096   -2.279942
     93          1           0      -13.551961   -0.548763   -0.572226
     94          1           0      -13.336098   -1.882063   -1.733546
     95          1           0       -9.598220   -4.346362   -1.536504
     96          1           0       -8.753878   -5.172923   -0.141466
     97          1           0       -8.108753   -5.188347   -1.893112
     98          1           0       -3.689893   -4.028874    1.248485
     99          1           0       -0.851915   -5.565321   -1.253884
    100          1           0        0.038902   -4.859924    0.099325
    101          1           0       -0.316016   -3.852466   -1.287048
    102          1           0        3.340554   -2.130613   -1.060832
    103          1           0        3.626456   -3.486078    0.054413
    104          1           0        4.350331   -0.788389    0.994867
    105          1           0        5.531081   -4.242891   -0.040297
    106          1           0        6.814939   -3.984540    1.225167
    107          1           0        7.092103   -3.674317   -0.520486
    108          1           0        6.738199   -1.303058    2.360444
    109          1           0        6.716594   -0.257932    1.038805
    110          1           0        8.543919   -1.990449    0.102317
    111          1           0        8.722153   -2.434095    1.778466
    112          1           0        8.804737    0.377225    1.866616
    113          1           0        9.648413    0.031075    0.357825
    114          1           0       11.052443   -1.888409    1.811727
    115          1           0        9.586145   -1.448756    3.741403
    116          1           0       10.486545    0.209204    3.785758
    117          1           0       11.361859   -1.311846    3.871047
    118          1           0       12.490923    0.095264    2.320389
    119          1           0       11.407266    1.071400    1.402719
    120          1           0       11.866948   -1.217469   -0.189325
    121          1           0       13.449394   -0.757795    0.468902
    122          1           0       12.058464    1.577924   -0.693592
    123          1           0       11.997877    0.234249   -1.809122
    124          1           0       14.665324    0.045981   -1.295739
    125          1           0       14.453009    0.393714   -3.609949
    126          1           0       14.810776    2.035890   -3.299784
    127          1           0       13.092210    1.365882   -3.378856
    128          1           0       13.978691    2.128333    0.318532
    129          1           0       14.397435    3.038335   -1.073412
    130          1           0       16.010187    1.237955    0.663275
    131          1           0       16.355238    2.831484    0.274425
    132          1           0       16.607877    2.229341   -2.171206
    133          1           0       16.883604    0.671121   -1.566930
    134          1           0       18.619049    2.571723   -0.105747
    135          1           0       18.889187    4.115154   -1.751691
    136          1           0       18.529206    3.077979   -3.137731
    137          1           0       20.138145    3.192096   -2.391587
    138          1           0       20.294404    1.246204   -0.446294
    139          1           0       19.929414    0.830477   -2.070802
    140          1           0       19.002996    0.097158   -0.715060
 ---------------------------------------------------------------------

 SCF Done:  E(RPBE1PBE) =  -3005.34778864     A.U. after   15 cycles

 Excitation energies and oscillator strengths:

 Excited State   1:      Singlet-A      1.8202 eV  681.17 nm  f=0.3717  <S**2>=0.000
     245 -> 248       -0.15481
     246 -> 247        0.69809
     246 <- 247       -0.11763
 This state for optimization and/or second-order correction.
 Total Energy, E(TD-HF/TD-DFT) =  -3005.28089909
 Copying the excited state density for this state as the 1-particle RhoCI density.

 Excited State   2:      Singlet-A      2.1785 eV  569.13 nm  f=0.1327  <S**2>=0.000
     245 -> 247        0.66385
     246 -> 248        0.22483

 Excited State   3:      Singlet-A      2.7116 eV  457.24 nm  f=0.0007  <S**2>=0.000
     244 -> 247        0.69085

 Excited State   4:      Singlet-A      2.8710 eV  431.85 nm  f=0.0078  <S**2>=0.000
     241 -> 247       -0.12539
     242 -> 247        0.68752

 Excited State   5:      Singlet-A      3.0306 eV  409.11 nm  f=0.0015  <S**2>=0.000
     240 -> 247        0.36565
     240 -> 249       -0.12263
     241 -> 247        0.55470
     241 -> 249       -0.11108
     242 -> 247        0.10019

 The electronic state is 1-A.
 Alpha  occ. eigenvalues --  -46.91931 -19.27748 -19.25551 -19.21316 -19.19794
 Alpha  occ. eigenvalues --  -19.19310 -19.17434 -14.41328 -14.41188 -14.39274
 Alpha  occ. eigenvalues --  -14.38646 -10.38443 -10.35078 -10.32544 -10.30283
 Alpha  occ. eigenvalues --  -10.29330 -10.29007 -10.28739 -10.28483 -10.28434
 Alpha  occ. eigenvalues --  -10.28271 -10.28202 -10.27693 -10.27531 -10.27045
 Alpha  occ. eigenvalues --  -10.26488 -10.26473 -10.26457 -10.26456 -10.26054
 Alpha  occ. eigenvalues --  -10.26013 -10.25782 -10.25712 -10.25503 -10.25394
 Alpha  occ. eigenvalues --  -10.25160 -10.24742 -10.24529 -10.24399 -10.24309
 Alpha  occ. eigenvalues --  -10.24274 -10.24038 -10.23975 -10.23641 -10.23554
 Alpha  occ. eigenvalues --  -10.23381 -10.23366 -10.23316 -10.23286 -10.23164
 Alpha  occ. eigenvalues --  -10.23142 -10.23112 -10.23008 -10.23003 -10.22795
 Alpha  occ. eigenvalues --  -10.22663 -10.22654 -10.22383 -10.22224 -10.22096
 Alpha  occ. eigenvalues --  -10.22062 -10.22020 -10.22014 -10.21980 -10.21881
 Alpha  occ. eigenvalues --  -10.20930  -3.14001  -1.86842  -1.86372  -1.86227
 Alpha  occ. eigenvalues --   -1.13374  -1.12296  -1.05482  -1.05199  -1.04547
 Alpha  occ. eigenvalues --   -1.02741  -0.98815  -0.97175  -0.97030  -0.96115
 Alpha  occ. eigenvalues --   -0.86066  -0.84737  -0.84024  -0.83325  -0.83175
 Alpha  occ. eigenvalues --   -0.82916  -0.82612  -0.82174  -0.81873  -0.81048
 Alpha  occ. eigenvalues --   -0.80230  -0.80077  -0.78858  -0.78427  -0.77731
 Alpha  occ. eigenvalues --   -0.77245  -0.76164  -0.75779  -0.75315  -0.74865
 Alpha  occ. eigenvalues --   -0.74293  -0.72842  -0.72325  -0.71751  -0.70618
 Alpha  occ. eigenvalues --   -0.70208  -0.69746  -0.69645  -0.69235  -0.68633
 Alpha  occ. eigenvalues --   -0.67933  -0.67227  -0.65692  -0.64755  -0.63474
 Alpha  occ. eigenvalues --   -0.63256  -0.62490  -0.61653  -0.60938  -0.60108
 Alpha  occ. eigenvalues --   -0.59641  -0.59328  -0.59112  -0.58722  -0.58569
 Alpha  occ. eigenvalues --   -0.58206  -0.57439  -0.57156  -0.56704  -0.54726
 Alpha  occ. eigenvalues --   -0.54550  -0.54218  -0.53790  -0.53137  -0.52501
 Alpha  occ. eigenvalues --   -0.52104  -0.51694  -0.51028  -0.50765  -0.50648
 Alpha  occ. eigenvalues --   -0.49735  -0.49395  -0.49062  -0.49012  -0.48628
 Alpha  occ. eigenvalues --   -0.48515  -0.48103  -0.47711  -0.47443  -0.47238
 Alpha  occ. eigenvalues --   -0.47095  -0.46935  -0.46890  -0.46880  -0.46558
 Alpha  occ. eigenvalues --   -0.46237  -0.45959  -0.45750  -0.45636  -0.45242
 Alpha  occ. eigenvalues --   -0.45013  -0.44713  -0.44671  -0.44503  -0.44362
 Alpha  occ. eigenvalues --   -0.44221  -0.44084  -0.43967  -0.43867  -0.43792
 Alpha  occ. eigenvalues --   -0.43427  -0.43234  -0.42825  -0.42459  -0.42203
 Alpha  occ. eigenvalues --   -0.42036  -0.42031  -0.41849  -0.41804  -0.41578
 Alpha  occ. eigenvalues --   -0.41432  -0.41236  -0.40920  -0.40569  -0.40379
 Alpha  occ. eigenvalues --   -0.40194  -0.40007  -0.39973  -0.39836  -0.39647
 Alpha  occ. eigenvalues --   -0.39463  -0.39112  -0.39089  -0.38816  -0.38699
 Alpha  occ. eigenvalues --   -0.38489  -0.38324  -0.38200  -0.38093  -0.37857
 Alpha  occ. eigenvalues --   -0.37794  -0.37562  -0.37306  -0.37090  -0.36874
 Alpha  occ. eigenvalues --   -0.36661  -0.36542  -0.36210  -0.36182  -0.35978
 Alpha  occ. eigenvalues --   -0.35814  -0.35627  -0.35614  -0.35340  -0.34803
 Alpha  occ. eigenvalues --   -0.34418  -0.34338  -0.34074  -0.33907  -0.33575
 Alpha  occ. eigenvalues --   -0.33568  -0.33352  -0.32879  -0.32686  -0.32437
 Alpha  occ. eigenvalues --   -0.32200  -0.32021  -0.31993  -0.31787  -0.31504
 Alpha  occ. eigenvalues --   -0.31213  -0.30361  -0.30056  -0.29913  -0.29559
 Alpha  occ. eigenvalues --   -0.29177  -0.29133  -0.28239  -0.27306  -0.26233
 Alpha  occ. eigenvalues --   -0.25997  -0.24855  -0.24593  -0.24272  -0.21030
 Alpha  occ. eigenvalues --   -0.18937
 Alpha virt. eigenvalues --   -0.11530  -0.04856  -0.03621  -0.01725  -0.01577
 Alpha virt. eigenvalues --    0.00108   0.00881   0.01127   0.01976   0.03838
 Alpha virt. eigenvalues --    0.03921   0.04755   0.05220   0.05482   0.05733

 Mulliken charges:
               1
     1  Mg   0.974301
     2  C    0.023242
     3  C   -0.057871
     4  C   -0.063933
     5  C   -0.101076
     6  N   -0.379625
     7  C    0.015925
     8  C   -0.094119
     9  C   -0.150811
    10  C    0.048351
    11  C    0.031883
    12  C    0.015432
    13  C   -0.049113
    14  C    0.281613
    15  O   -0.284457
    16  O   -0.345000
    17  N   -0.489400
    18  C    0.175275
    19  C   -0.175250
    20  C   -0.055883
    21  C    0.159082
    22  C    0.053474
    23  C   -0.017756
    24  O   -0.233148
    25  C    0.007113
    26  N   -0.457569
    27  C    0.097102
    28  C   -0.131187
    29  C   -0.078226
    30  C    0.118590
    31  C    0.008760
    32  C   -0.031666
    33  C   -0.071289
    34  N   -0.446385
    35  C    0.125670
    36  C   -0.205462
    37  C   -0.015139
    38  C    0.128373
    39  C    0.072126
    40  C    0.146012
    41  O   -0.206667
    42  C   -0.135456
    43  C    0.250566
    44  O   -0.210424
    45  O   -0.338780
    46  C    0.103335
    47  C    0.244103
    48  C   -0.154915
    49  C   -0.209789
    50  C    0.023236
    51  C   -0.025864
    52  C   -0.032098
    53  C    0.022252
    54  C   -0.279175
    55  C    0.001186
    56  C   -0.035178
    57  C   -0.022066
    58  C    0.003643
    59  C   -0.222045
    60  C   -0.004364
    61  C   -0.004316
    62  C   -0.083442
    63  C    0.012379
    64  C   -0.193637
    65  C   -0.035014
    66  C   -0.020627
    67  H    0.003256
    68  H    0.023186
    69  H    0.003170
    70  H    0.029902
    71  H    0.026231
    72  H    0.044791
    73  H    0.042846
    74  H    0.051277
    75  H    0.044733
    76  H    0.062375
    77  H    0.068935
    78  H    0.066124
    79  H    0.031731
    80  H    0.073402
    81  H    0.053293
    82  H    0.060503
    83  H    0.045613
    84  H    0.062036
    85  H    0.059334
    86  H    0.052634
    87  H    0.054000
    88  H    0.043145
    89  H    0.045524
    90  H    0.052362
    91  H    0.046670
    92  H    0.032985
    93  H    0.046203
    94  H    0.036906
    95  H    0.040579
    96  H    0.081476
    97  H    0.074614
    98  H    0.068494
    99  H    0.055424
   100  H    0.046819
   101  H    0.077084
   102  H    0.086825
   103  H    0.038926
   104  H    0.018240
   105  H    0.028634
   106  H    0.057470
   107  H    0.056141
   108  H    0.043721
   109  H    0.040151
   110  H    0.029823
   111  H    0.032961
   112  H    0.033303
   113  H    0.031553
   114  H    0.034599
   115  H    0.039350
   116  H    0.038536
   117  H    0.028801
   118  H    0.010297
   119  H    0.020167
   120  H    0.034068
   121  H    0.037777
   122  H    0.035480
   123  H    0.016087
   124  H    0.042170
   125  H    0.025565
   126  H    0.045713
   127  H    0.030315
   128  H    0.027848
   129  H    0.025387
   130  H    0.025154
   131  H    0.012117
   132  H    0.015996
   133  H    0.023933
   134  H    0.034509
   135  H    0.027391
   136  H    0.043436
   137  H    0.038370
   138  H    0.024772
   139  H    0.034312
   140  H    0.027638
 Sum of Mulliken charges =  -0.00000

 Dipole moment (field-independent basis, Debye):
    X=              2.1845    Y=              1.0755    Z=              3.7555  Tot=              4.4758
 Quadrupole moment (field-independent basis, Debye-Ang):
   XX=           -349.2971   YY=           -423.5173   ZZ=           -405.2433
   XY=              0.4027   XZ=              1.1326   YZ=              2.9620

 Normal termination of Gaussian 16 at Wed Apr 27 03:20:14 2022.
