 Gaussian 16, Revision A.03,
 Gaussian 16:  ES64L-G16RevA.03 25-Dec-2016

 --------------------------------
 #p wB97XD/Def2SVP td=(nstates=5)
 --------------------------------

 -----------------------------------------------------
 step_1051_chromophore_22 TDDFT with wB97XD functional
 -----------------------------------------------------
 Symbolic Z-matrix:
 Charge =  0 Multiplicity = 1

                         Standard orientation:
 ---------------------------------------------------------------------
 Center     Atomic      Atomic             Coordinates (Angstroms)
 Number     Number       Type             X           Y           Z
 ---------------------------------------------------------------------
      1         12           0       -6.679013    0.655392   -0.151974
      2          6           0       -4.552652   -2.192793    0.377748
      3          6           0       -4.233612    2.484035    1.424647
      4          6           0       -8.490828    3.273557   -0.680213
      5          6           0       -9.341797   -1.508511   -0.591333
      6          7           0       -4.677552    0.202183    0.779625
      7          6           0       -4.005676   -1.016747    0.850042
      8          6           0       -2.618823   -0.862080    1.441901
      9          6           0       -2.795536    0.430703    2.295703
     10          6           0       -3.941605    1.165600    1.432683
     11          6           0       -3.239455    0.127675    3.749174
     12          6           0       -1.374478   -0.840435    0.430018
     13          6           0        0.018109   -1.203346    1.051648
     14          6           0        1.229156   -1.527629    0.120679
     15          8           0        1.167014   -1.462565   -1.133018
     16          8           0        2.250203   -2.123055    0.826860
     17          7           0       -6.392370    2.715526    0.259850
     18          6           0       -5.320515    3.309606    0.911575
     19          6           0       -5.502855    4.733580    0.920970
     20          6           0       -6.705045    4.972081    0.140887
     21          6           0       -7.294706    3.681337   -0.126587
     22          6           0       -4.633546    5.628395    1.832695
     23          6           0       -7.302635    6.276540   -0.227542
     24          8           0       -8.301224    6.340409   -0.882649
     25          6           0       -6.724195    7.601351    0.098229
     26          7           0       -8.735901    0.784776   -0.365153
     27          6           0       -9.190073    2.094465   -0.747405
     28          6           0      -10.600018    2.006841   -1.264184
     29          6           0      -10.990831    0.516264   -0.887321
     30          6           0       -9.680274   -0.161929   -0.580231
     31          6           0      -11.639802    3.039987   -0.826054
     32          6           0      -11.830660   -0.262839   -2.005131
     33          6           0      -13.199546   -0.813633   -1.569246
     34          7           0       -6.955434   -1.414487   -0.287889
     35          6           0       -8.082040   -2.147102   -0.485748
     36          6           0       -7.718341   -3.582238   -0.752905
     37          6           0       -6.387672   -3.630748   -0.437986
     38          6           0       -5.946598   -2.301227   -0.087185
     39          6           0       -8.651508   -4.669022   -1.102504
     40          6           0       -5.288306   -4.548948   -0.249435
     41          8           0       -5.254878   -5.753873   -0.428104
     42          6           0       -4.057816   -3.672750    0.285924
     43          6           0       -2.949760   -3.935559   -0.659744
     44          8           0       -2.935028   -3.645449   -1.797707
     45          8           0       -1.929461   -4.451122    0.030621
     46          6           0       -0.709701   -4.657359   -0.666558
     47          6           0        3.381715   -2.425763   -0.013100
     48          6           0        4.598418   -1.728749    0.501770
     49          6           0        5.880927   -2.191895    0.613469
     50          6           0        6.370098   -3.633754    0.294421
     51          6           0        6.955278   -1.291125    1.291663
     52          6           0        8.382728   -1.634427    1.119483
     53          6           0        9.324003   -0.399223    1.305228
     54          6           0       10.657434   -0.884408    1.967130
     55          6           0       10.454977   -0.840776    3.492986
     56          6           0       11.804831    0.058877    1.473811
     57          6           0       12.477197   -0.380606    0.150215
     58          6           0       12.571251    0.661326   -0.986103
     59          6           0       14.033194    0.913191   -1.484722
     60          6           0       14.113584    1.245528   -3.019511
     61          6           0       14.536223    2.058542   -0.614800
     62          6           0       16.024717    1.906412   -0.197373
     63          6           0       17.039188    1.719436   -1.310742
     64          6           0       18.513348    2.151330   -1.105602
     65          6           0       19.067780    3.134921   -2.191707
     66          6           0       19.457956    1.008475   -1.103240
     67          1           0       -3.358967    2.961594    1.869941
     68          1           0       -9.072616    4.122388   -1.044985
     69          1           0      -10.167031   -2.205108   -0.751255
     70          1           0       -2.604634   -1.739070    2.088375
     71          1           0       -1.797364    0.860292    2.388633
     72          1           0       -3.800279   -0.805231    3.689244
     73          1           0       -3.915684    0.934594    4.032070
     74          1           0       -2.440893    0.076817    4.490054
     75          1           0       -1.365864    0.159695   -0.004698
     76          1           0       -1.631298   -1.469289   -0.423005
     77          1           0       -0.159781   -2.106511    1.634729
     78          1           0        0.124235   -0.367156    1.743801
     79          1           0       -3.838613    4.990257    2.218344
     80          1           0       -5.159509    6.043861    2.691892
     81          1           0       -4.182023    6.388076    1.194301
     82          1           0       -5.780796    7.638030   -0.445638
     83          1           0       -6.541643    7.444870    1.162386
     84          1           0       -7.404888    8.398200   -0.200759
     85          1           0      -10.542350    2.172420   -2.340048
     86          1           0      -11.616656    0.543423    0.005323
     87          1           0      -11.240319    3.610485    0.012660
     88          1           0      -12.595909    2.611234   -0.525096
     89          1           0      -11.818095    3.733557   -1.648211
     90          1           0      -11.194060   -1.095090   -2.307336
     91          1           0      -11.973234    0.563214   -2.701733
     92          1           0      -13.941286   -0.451096   -2.279942
     93          1           0      -13.551961   -0.548763   -0.572226
     94          1           0      -13.336098   -1.882063   -1.733546
     95          1           0       -9.598220   -4.346362   -1.536504
     96          1           0       -8.753878   -5.172923   -0.141466
     97          1           0       -8.108753   -5.188347   -1.893112
     98          1           0       -3.689893   -4.028874    1.248485
     99          1           0       -0.851915   -5.565321   -1.253884
    100          1           0        0.038902   -4.859924    0.099325
    101          1           0       -0.316016   -3.852466   -1.287048
    102          1           0        3.340554   -2.130613   -1.060832
    103          1           0        3.626456   -3.486078    0.054413
    104          1           0        4.350331   -0.788389    0.994867
    105          1           0        5.531081   -4.242891   -0.040297
    106          1           0        6.814939   -3.984540    1.225167
    107          1           0        7.092103   -3.674317   -0.520486
    108          1           0        6.738199   -1.303058    2.360444
    109          1           0        6.716594   -0.257932    1.038805
    110          1           0        8.543919   -1.990449    0.102317
    111          1           0        8.722153   -2.434095    1.778466
    112          1           0        8.804737    0.377225    1.866616
    113          1           0        9.648413    0.031075    0.357825
    114          1           0       11.052443   -1.888409    1.811727
    115          1           0        9.586145   -1.448756    3.741403
    116          1           0       10.486545    0.209204    3.785758
    117          1           0       11.361859   -1.311846    3.871047
    118          1           0       12.490923    0.095264    2.320389
    119          1           0       11.407266    1.071400    1.402719
    120          1           0       11.866948   -1.217469   -0.189325
    121          1           0       13.449394   -0.757795    0.468902
    122          1           0       12.058464    1.577924   -0.693592
    123          1           0       11.997877    0.234249   -1.809122
    124          1           0       14.665324    0.045981   -1.295739
    125          1           0       14.453009    0.393714   -3.609949
    126          1           0       14.810776    2.035890   -3.299784
    127          1           0       13.092210    1.365882   -3.378856
    128          1           0       13.978691    2.128333    0.318532
    129          1           0       14.397435    3.038335   -1.073412
    130          1           0       16.010187    1.237955    0.663275
    131          1           0       16.355238    2.831484    0.274425
    132          1           0       16.607877    2.229341   -2.171206
    133          1           0       16.883604    0.671121   -1.566930
    134          1           0       18.619049    2.571723   -0.105747
    135          1           0       18.889187    4.115154   -1.751691
    136          1           0       18.529206    3.077979   -3.137731
    137          1           0       20.138145    3.192096   -2.391587
    138          1           0       20.294404    1.246204   -0.446294
    139          1           0       19.929414    0.830477   -2.070802
    140          1           0       19.002996    0.097158   -0.715060
 ---------------------------------------------------------------------

 SCF Done:  E(RwB97XD) =  -3007.85682147     A.U. after   19 cycles

 Excitation energies and oscillator strengths:

 Excited State   1:      Singlet-A      1.6352 eV  758.21 nm  f=0.3860  <S**2>=0.000
     245 -> 248       -0.16211
     246 -> 247        0.68816
     245 <- 248       -0.11073
 This state for optimization and/or second-order correction.
 Total Energy, E(TD-HF/TD-DFT) =  -3007.79672834
 Copying the excited state density for this state as the 1-particle RhoCI density.

 Excited State   2:      Singlet-A      2.1248 eV  583.51 nm  f=0.1403  <S**2>=0.000
     245 -> 247        0.65345
     246 -> 248        0.25338

 Excited State   3:      Singlet-A      3.2734 eV  378.76 nm  f=0.0032  <S**2>=0.000
     241 -> 247       -0.28579
     243 -> 247       -0.23401
     244 -> 247        0.57980

 Excited State   4:      Singlet-A      3.4454 eV  359.86 nm  f=0.0170  <S**2>=0.000
     239 -> 247        0.13324
     240 -> 247        0.10453
     240 -> 249       -0.12214
     241 -> 247        0.52451
     244 -> 247        0.24990
     246 -> 248       -0.26238

 Excited State   5:      Singlet-A      3.5362 eV  350.61 nm  f=0.0017  <S**2>=0.000
     240 -> 247       -0.19930
     240 -> 249        0.12169
     243 -> 247        0.50423
     243 -> 248       -0.15432
     243 -> 249        0.15546
     243 -> 250       -0.22300
     244 -> 247        0.16436
     244 -> 250       -0.12177

 The electronic state is 1-A.
 Alpha  occ. eigenvalues --  -46.94875 -19.32323 -19.30259 -19.25986 -19.24970
 Alpha  occ. eigenvalues --  -19.24200 -19.21901 -14.46364 -14.46286 -14.44439
 Alpha  occ. eigenvalues --  -14.43347 -10.45263 -10.42062 -10.39719 -10.36778
 Alpha  occ. eigenvalues --  -10.35813 -10.35575 -10.35339 -10.35051 -10.34830
 Alpha  occ. eigenvalues --  -10.34521 -10.34453 -10.34451 -10.33459 -10.33358
 Alpha  occ. eigenvalues --  -10.32945 -10.32935 -10.32845 -10.32632 -10.32390
 Alpha  occ. eigenvalues --  -10.32319 -10.31993 -10.31963 -10.31863 -10.31602
 Alpha  occ. eigenvalues --  -10.31543 -10.31406 -10.30793 -10.30771 -10.30712
 Alpha  occ. eigenvalues --  -10.30500 -10.30427 -10.30235 -10.29976 -10.29917
 Alpha  occ. eigenvalues --  -10.29835 -10.29689 -10.29661 -10.29638 -10.29623
 Alpha  occ. eigenvalues --  -10.29543 -10.29470 -10.29421 -10.29372 -10.29204
 Alpha  occ. eigenvalues --  -10.29033 -10.29010 -10.28719 -10.28572 -10.28496
 Alpha  occ. eigenvalues --  -10.28480 -10.28454 -10.28393 -10.28379 -10.28255
 Alpha  occ. eigenvalues --  -10.27372  -3.20810  -1.94398  -1.93930  -1.93782
 Alpha  occ. eigenvalues --   -1.20893  -1.19693  -1.12994  -1.12614  -1.12067
 Alpha  occ. eigenvalues --   -1.10119  -1.06499  -1.04484  -1.04470  -1.03260
 Alpha  occ. eigenvalues --   -0.93912  -0.92423  -0.91700  -0.90990  -0.90729
 Alpha  occ. eigenvalues --   -0.90579  -0.90380  -0.89962  -0.89531  -0.88607
 Alpha  occ. eigenvalues --   -0.87752  -0.87595  -0.86518  -0.86142  -0.85318
 Alpha  occ. eigenvalues --   -0.84895  -0.83892  -0.83305  -0.82954  -0.82452
 Alpha  occ. eigenvalues --   -0.81970  -0.80478  -0.79934  -0.79337  -0.78343
 Alpha  occ. eigenvalues --   -0.77913  -0.77339  -0.77260  -0.76929  -0.76287
 Alpha  occ. eigenvalues --   -0.75547  -0.74880  -0.73168  -0.72392  -0.71164
 Alpha  occ. eigenvalues --   -0.70891  -0.70120  -0.69076  -0.68536  -0.67574
 Alpha  occ. eigenvalues --   -0.67156  -0.66892  -0.66582  -0.66222  -0.66080
 Alpha  occ. eigenvalues --   -0.65864  -0.65104  -0.64687  -0.64359  -0.62282
 Alpha  occ. eigenvalues --   -0.62103  -0.61578  -0.61165  -0.60596  -0.60110
 Alpha  occ. eigenvalues --   -0.59499  -0.59217  -0.58603  -0.58219  -0.58085
 Alpha  occ. eigenvalues --   -0.57261  -0.56837  -0.56566  -0.56313  -0.56054
 Alpha  occ. eigenvalues --   -0.55900  -0.55572  -0.55056  -0.54827  -0.54719
 Alpha  occ. eigenvalues --   -0.54575  -0.54473  -0.54276  -0.54261  -0.53878
 Alpha  occ. eigenvalues --   -0.53551  -0.53294  -0.53115  -0.52935  -0.52614
 Alpha  occ. eigenvalues --   -0.52356  -0.52158  -0.51940  -0.51867  -0.51770
 Alpha  occ. eigenvalues --   -0.51497  -0.51409  -0.51294  -0.51164  -0.50966
 Alpha  occ. eigenvalues --   -0.50726  -0.50509  -0.50060  -0.49731  -0.49539
 Alpha  occ. eigenvalues --   -0.49450  -0.49224  -0.49110  -0.49053  -0.48785
 Alpha  occ. eigenvalues --   -0.48740  -0.48500  -0.48167  -0.47779  -0.47535
 Alpha  occ. eigenvalues --   -0.47455  -0.47196  -0.47078  -0.47010  -0.46876
 Alpha  occ. eigenvalues --   -0.46687  -0.46473  -0.46187  -0.46032  -0.45955
 Alpha  occ. eigenvalues --   -0.45652  -0.45466  -0.45320  -0.45151  -0.45000
 Alpha  occ. eigenvalues --   -0.44926  -0.44668  -0.44257  -0.44204  -0.44081
 Alpha  occ. eigenvalues --   -0.43785  -0.43581  -0.43289  -0.43227  -0.43006
 Alpha  occ. eigenvalues --   -0.42893  -0.42725  -0.42657  -0.42434  -0.41760
 Alpha  occ. eigenvalues --   -0.41383  -0.41340  -0.41088  -0.40994  -0.40691
 Alpha  occ. eigenvalues --   -0.40447  -0.40437  -0.39932  -0.39581  -0.39482
 Alpha  occ. eigenvalues --   -0.39236  -0.39117  -0.38984  -0.38854  -0.38449
 Alpha  occ. eigenvalues --   -0.38125  -0.37387  -0.37083  -0.36927  -0.36414
 Alpha  occ. eigenvalues --   -0.36380  -0.36022  -0.34905  -0.34007  -0.33511
 Alpha  occ. eigenvalues --   -0.32912  -0.31360  -0.31243  -0.30966  -0.26102
 Alpha  occ. eigenvalues --   -0.23161
 Alpha virt. eigenvalues --   -0.07428   0.00688   0.02551   0.04898   0.05253
 Alpha virt. eigenvalues --    0.06064   0.07605   0.07831   0.08631   0.10025
 Alpha virt. eigenvalues --    0.10556   0.11565   0.11977   0.12223   0.12405

 Mulliken charges:
               1
     1  Mg   0.963901
     2  C    0.009274
     3  C   -0.062913
     4  C   -0.068394
     5  C   -0.113698
     6  N   -0.351773
     7  C   -0.006886
     8  C   -0.069756
     9  C   -0.120445
    10  C    0.031108
    11  C    0.041129
    12  C    0.028366
    13  C   -0.028582
    14  C    0.270613
    15  O   -0.281515
    16  O   -0.344730
    17  N   -0.458920
    18  C    0.160083
    19  C   -0.173217
    20  C   -0.044796
    21  C    0.142333
    22  C    0.067680
    23  C   -0.025042
    24  O   -0.230764
    25  C    0.021363
    26  N   -0.426958
    27  C    0.081079
    28  C   -0.102381
    29  C   -0.054444
    30  C    0.104625
    31  C    0.017375
    32  C   -0.012311
    33  C   -0.057073
    34  N   -0.412309
    35  C    0.122244
    36  C   -0.195962
    37  C   -0.011523
    38  C    0.118034
    39  C    0.082724
    40  C    0.128829
    41  O   -0.194490
    42  C   -0.092245
    43  C    0.219320
    44  O   -0.202724
    45  O   -0.333963
    46  C    0.117104
    47  C    0.261569
    48  C   -0.161747
    49  C   -0.201869
    50  C    0.040074
    51  C   -0.008839
    52  C   -0.012511
    53  C    0.037292
    54  C   -0.246237
    55  C    0.013622
    56  C   -0.020235
    57  C   -0.008464
    58  C    0.023156
    59  C   -0.192110
    60  C    0.005980
    61  C    0.009449
    62  C   -0.063461
    63  C    0.030999
    64  C   -0.163330
    65  C   -0.023390
    66  C   -0.008885
    67  H   -0.005824
    68  H    0.016405
    69  H   -0.005248
    70  H    0.014630
    71  H    0.015780
    72  H    0.035888
    73  H    0.036544
    74  H    0.046705
    75  H    0.038555
    76  H    0.048923
    77  H    0.062137
    78  H    0.059350
    79  H    0.024446
    80  H    0.067698
    81  H    0.045721
    82  H    0.054686
    83  H    0.036866
    84  H    0.060394
    85  H    0.047786
    86  H    0.040577
    87  H    0.047911
    88  H    0.036409
    89  H    0.041153
    90  H    0.041832
    91  H    0.038244
    92  H    0.027444
    93  H    0.040901
    94  H    0.031234
    95  H    0.037690
    96  H    0.078540
    97  H    0.071807
    98  H    0.062825
    99  H    0.052379
   100  H    0.044240
   101  H    0.071993
   102  H    0.082339
   103  H    0.031564
   104  H    0.015119
   105  H    0.022780
   106  H    0.050799
   107  H    0.050484
   108  H    0.034577
   109  H    0.032057
   110  H    0.019005
   111  H    0.022042
   112  H    0.024797
   113  H    0.020170
   114  H    0.022442
   115  H    0.032661
   116  H    0.031700
   117  H    0.022150
   118  H    0.001953
   119  H    0.008475
   120  H    0.024152
   121  H    0.029614
   122  H    0.025380
   123  H    0.007718
   124  H    0.027919
   125  H    0.020313
   126  H    0.040209
   127  H    0.024502
   128  H    0.016758
   129  H    0.017040
   130  H    0.016592
   131  H    0.002073
   132  H   -0.001315
   133  H    0.012348
   134  H    0.024637
   135  H    0.020837
   136  H    0.037932
   137  H    0.033088
   138  H    0.018783
   139  H    0.027631
   140  H    0.021626
 Sum of Mulliken charges =  -0.00000

 Dipole moment (field-independent basis, Debye):
    X=              2.1239    Y=              0.2399    Z=              3.6470  Tot=              4.2271
 Quadrupole moment (field-independent basis, Debye-Ang):
   XX=           -347.8719   YY=           -423.0532   ZZ=           -405.1554
   XY=              5.9733   XZ=              1.5711   YZ=              3.0282

 Normal termination of Gaussian 16 at Wed Apr 27 03:45:45 2022.
