 Gaussian 16, Revision A.03,
 Gaussian 16:  ES64L-G16RevA.03 25-Dec-2016

 --------------------
 #p ZINDO=(nstates=5)
 --------------------

 ------------------------------
 step_1051_chromophore_22 ZINDO
 ------------------------------
 Symbolic Z-matrix:
 Charge =  0 Multiplicity = 1

                         Standard orientation:
 ---------------------------------------------------------------------
 Center     Atomic      Atomic             Coordinates (Angstroms)
 Number     Number       Type             X           Y           Z
 ---------------------------------------------------------------------
      1         12           0       -6.679013    0.655392   -0.151974
      2          6           0       -4.552652   -2.192793    0.377748
      3          6           0       -4.233612    2.484035    1.424647
      4          6           0       -8.490828    3.273557   -0.680213
      5          6           0       -9.341797   -1.508511   -0.591333
      6          7           0       -4.677552    0.202183    0.779625
      7          6           0       -4.005676   -1.016747    0.850042
      8          6           0       -2.618823   -0.862080    1.441901
      9          6           0       -2.795536    0.430703    2.295703
     10          6           0       -3.941605    1.165600    1.432683
     11          6           0       -3.239455    0.127675    3.749174
     12          6           0       -1.374478   -0.840435    0.430018
     13          6           0        0.018109   -1.203346    1.051648
     14          6           0        1.229156   -1.527629    0.120679
     15          8           0        1.167014   -1.462565   -1.133018
     16          8           0        2.250203   -2.123055    0.826860
     17          7           0       -6.392370    2.715526    0.259850
     18          6           0       -5.320515    3.309606    0.911575
     19          6           0       -5.502855    4.733580    0.920970
     20          6           0       -6.705045    4.972081    0.140887
     21          6           0       -7.294706    3.681337   -0.126587
     22          6           0       -4.633546    5.628395    1.832695
     23          6           0       -7.302635    6.276540   -0.227542
     24          8           0       -8.301224    6.340409   -0.882649
     25          6           0       -6.724195    7.601351    0.098229
     26          7           0       -8.735901    0.784776   -0.365153
     27          6           0       -9.190073    2.094465   -0.747405
     28          6           0      -10.600018    2.006841   -1.264184
     29          6           0      -10.990831    0.516264   -0.887321
     30          6           0       -9.680274   -0.161929   -0.580231
     31          6           0      -11.639802    3.039987   -0.826054
     32          6           0      -11.830660   -0.262839   -2.005131
     33          6           0      -13.199546   -0.813633   -1.569246
     34          7           0       -6.955434   -1.414487   -0.287889
     35          6           0       -8.082040   -2.147102   -0.485748
     36          6           0       -7.718341   -3.582238   -0.752905
     37          6           0       -6.387672   -3.630748   -0.437986
     38          6           0       -5.946598   -2.301227   -0.087185
     39          6           0       -8.651508   -4.669022   -1.102504
     40          6           0       -5.288306   -4.548948   -0.249435
     41          8           0       -5.254878   -5.753873   -0.428104
     42          6           0       -4.057816   -3.672750    0.285924
     43          6           0       -2.949760   -3.935559   -0.659744
     44          8           0       -2.935028   -3.645449   -1.797707
     45          8           0       -1.929461   -4.451122    0.030621
     46          6           0       -0.709701   -4.657359   -0.666558
     47          6           0        3.381715   -2.425763   -0.013100
     48          6           0        4.598418   -1.728749    0.501770
     49          6           0        5.880927   -2.191895    0.613469
     50          6           0        6.370098   -3.633754    0.294421
     51          6           0        6.955278   -1.291125    1.291663
     52          6           0        8.382728   -1.634427    1.119483
     53          6           0        9.324003   -0.399223    1.305228
     54          6           0       10.657434   -0.884408    1.967130
     55          6           0       10.454977   -0.840776    3.492986
     56          6           0       11.804831    0.058877    1.473811
     57          6           0       12.477197   -0.380606    0.150215
     58          6           0       12.571251    0.661326   -0.986103
     59          6           0       14.033194    0.913191   -1.484722
     60          6           0       14.113584    1.245528   -3.019511
     61          6           0       14.536223    2.058542   -0.614800
     62          6           0       16.024717    1.906412   -0.197373
     63          6           0       17.039188    1.719436   -1.310742
     64          6           0       18.513348    2.151330   -1.105602
     65          6           0       19.067780    3.134921   -2.191707
     66          6           0       19.457956    1.008475   -1.103240
     67          1           0       -3.358967    2.961594    1.869941
     68          1           0       -9.072616    4.122388   -1.044985
     69          1           0      -10.167031   -2.205108   -0.751255
     70          1           0       -2.604634   -1.739070    2.088375
     71          1           0       -1.797364    0.860292    2.388633
     72          1           0       -3.800279   -0.805231    3.689244
     73          1           0       -3.915684    0.934594    4.032070
     74          1           0       -2.440893    0.076817    4.490054
     75          1           0       -1.365864    0.159695   -0.004698
     76          1           0       -1.631298   -1.469289   -0.423005
     77          1           0       -0.159781   -2.106511    1.634729
     78          1           0        0.124235   -0.367156    1.743801
     79          1           0       -3.838613    4.990257    2.218344
     80          1           0       -5.159509    6.043861    2.691892
     81          1           0       -4.182023    6.388076    1.194301
     82          1           0       -5.780796    7.638030   -0.445638
     83          1           0       -6.541643    7.444870    1.162386
     84          1           0       -7.404888    8.398200   -0.200759
     85          1           0      -10.542350    2.172420   -2.340048
     86          1           0      -11.616656    0.543423    0.005323
     87          1           0      -11.240319    3.610485    0.012660
     88          1           0      -12.595909    2.611234   -0.525096
     89          1           0      -11.818095    3.733557   -1.648211
     90          1           0      -11.194060   -1.095090   -2.307336
     91          1           0      -11.973234    0.563214   -2.701733
     92          1           0      -13.941286   -0.451096   -2.279942
     93          1           0      -13.551961   -0.548763   -0.572226
     94          1           0      -13.336098   -1.882063   -1.733546
     95          1           0       -9.598220   -4.346362   -1.536504
     96          1           0       -8.753878   -5.172923   -0.141466
     97          1           0       -8.108753   -5.188347   -1.893112
     98          1           0       -3.689893   -4.028874    1.248485
     99          1           0       -0.851915   -5.565321   -1.253884
    100          1           0        0.038902   -4.859924    0.099325
    101          1           0       -0.316016   -3.852466   -1.287048
    102          1           0        3.340554   -2.130613   -1.060832
    103          1           0        3.626456   -3.486078    0.054413
    104          1           0        4.350331   -0.788389    0.994867
    105          1           0        5.531081   -4.242891   -0.040297
    106          1           0        6.814939   -3.984540    1.225167
    107          1           0        7.092103   -3.674317   -0.520486
    108          1           0        6.738199   -1.303058    2.360444
    109          1           0        6.716594   -0.257932    1.038805
    110          1           0        8.543919   -1.990449    0.102317
    111          1           0        8.722153   -2.434095    1.778466
    112          1           0        8.804737    0.377225    1.866616
    113          1           0        9.648413    0.031075    0.357825
    114          1           0       11.052443   -1.888409    1.811727
    115          1           0        9.586145   -1.448756    3.741403
    116          1           0       10.486545    0.209204    3.785758
    117          1           0       11.361859   -1.311846    3.871047
    118          1           0       12.490923    0.095264    2.320389
    119          1           0       11.407266    1.071400    1.402719
    120          1           0       11.866948   -1.217469   -0.189325
    121          1           0       13.449394   -0.757795    0.468902
    122          1           0       12.058464    1.577924   -0.693592
    123          1           0       11.997877    0.234249   -1.809122
    124          1           0       14.665324    0.045981   -1.295739
    125          1           0       14.453009    0.393714   -3.609949
    126          1           0       14.810776    2.035890   -3.299784
    127          1           0       13.092210    1.365882   -3.378856
    128          1           0       13.978691    2.128333    0.318532
    129          1           0       14.397435    3.038335   -1.073412
    130          1           0       16.010187    1.237955    0.663275
    131          1           0       16.355238    2.831484    0.274425
    132          1           0       16.607877    2.229341   -2.171206
    133          1           0       16.883604    0.671121   -1.566930
    134          1           0       18.619049    2.571723   -0.105747
    135          1           0       18.889187    4.115154   -1.751691
    136          1           0       18.529206    3.077979   -3.137731
    137          1           0       20.138145    3.192096   -2.391587
    138          1           0       20.294404    1.246204   -0.446294
    139          1           0       19.929414    0.830477   -2.070802
    140          1           0       19.002996    0.097158   -0.715060
 ---------------------------------------------------------------------

 SCF Done:  E(RZINDO/S) =  -474.374770284     A.U. after   19 cycles

 Excitation energies and oscillator strengths:

 Excited State   1:      Singlet-A      1.2807 eV  968.07 nm  f=0.5719  <S**2>=0.000
     175 ->178         0.15027
     176 ->177         0.67392
 This state for optimization and/or second-order correction.
 Total Energy, E(CIS/TDA) =  -474.327704338
 Copying the excited state density for this state as the 1-particle RhoCI density.

 Excited State   2:      Singlet-A      1.9443 eV  637.69 nm  f=0.0737  <S**2>=0.000
     175 ->177         0.57145
     176 ->178        -0.36857

 Excited State   3:      Singlet-A      2.8997 eV  427.58 nm  f=0.0155  <S**2>=0.000
     172 ->177         0.25451
     172 ->178        -0.13458
     172 ->179         0.19666
     172 ->181        -0.36401
     172 ->182        -0.15479
     172 ->183        -0.13932
     172 ->186        -0.17630
     172 ->188        -0.14642
     172 ->189         0.18764
     172 ->190         0.16667

 Excited State   4:      Singlet-A      2.9754 eV  416.70 nm  f=0.1617  <S**2>=0.000
     167 ->179         0.12565
     168 ->177         0.32016
     168 ->178        -0.13451
     168 ->179        -0.39063
     168 ->181        -0.10140
     168 ->186         0.14630
     175 ->177         0.14302
     176 ->178         0.24974

 Excited State   5:      Singlet-A      3.0372 eV  408.22 nm  f=0.7867  <S**2>=0.000
     168 ->177        -0.15647
     168 ->179         0.20811
     175 ->177         0.31561
     176 ->178         0.49354

 The electronic state is 1-A.
 Alpha  occ. eigenvalues --   -1.84155  -1.79709  -1.78326  -1.76612  -1.73111
 Alpha  occ. eigenvalues --   -1.70132  -1.65940  -1.62014  -1.61140  -1.59336
 Alpha  occ. eigenvalues --   -1.54815  -1.51283  -1.49590  -1.48039  -1.46379
 Alpha  occ. eigenvalues --   -1.44934  -1.42217  -1.41645  -1.38747  -1.36730
 Alpha  occ. eigenvalues --   -1.36554  -1.33846  -1.33326  -1.31237  -1.27736
 Alpha  occ. eigenvalues --   -1.27509  -1.25788  -1.21073  -1.20501  -1.19194
 Alpha  occ. eigenvalues --   -1.17361  -1.15837  -1.15642  -1.14512  -1.14345
 Alpha  occ. eigenvalues --   -1.12872  -1.10534  -1.10177  -1.04989  -1.04266
 Alpha  occ. eigenvalues --   -1.03268  -1.00939  -0.98199  -0.97322  -0.96522
 Alpha  occ. eigenvalues --   -0.95475  -0.94384  -0.93646  -0.91939  -0.91188
 Alpha  occ. eigenvalues --   -0.90834  -0.89069  -0.88528  -0.88370  -0.86840
 Alpha  occ. eigenvalues --   -0.85782  -0.84146  -0.83572  -0.82019  -0.80645
 Alpha  occ. eigenvalues --   -0.79732  -0.79555  -0.77524  -0.76903  -0.76555
 Alpha  occ. eigenvalues --   -0.76274  -0.75702  -0.74027  -0.73655  -0.72947
 Alpha  occ. eigenvalues --   -0.72712  -0.72205  -0.71485  -0.71376  -0.70776
 Alpha  occ. eigenvalues --   -0.69951  -0.69604  -0.68719  -0.68062  -0.67902
 Alpha  occ. eigenvalues --   -0.67608  -0.67129  -0.66991  -0.66764  -0.65750
 Alpha  occ. eigenvalues --   -0.65376  -0.65303  -0.64797  -0.64220  -0.64035
 Alpha  occ. eigenvalues --   -0.63290  -0.62758  -0.62579  -0.62250  -0.62074
 Alpha  occ. eigenvalues --   -0.61390  -0.60976  -0.60622  -0.60451  -0.59685
 Alpha  occ. eigenvalues --   -0.59274  -0.58957  -0.58864  -0.58389  -0.58094
 Alpha  occ. eigenvalues --   -0.57977  -0.57195  -0.56901  -0.56111  -0.55999
 Alpha  occ. eigenvalues --   -0.55598  -0.55495  -0.55099  -0.55055  -0.54289
 Alpha  occ. eigenvalues --   -0.53967  -0.53858  -0.53620  -0.53119  -0.53053
 Alpha  occ. eigenvalues --   -0.52339  -0.52125  -0.51751  -0.51519  -0.51410
 Alpha  occ. eigenvalues --   -0.51220  -0.50858  -0.50194  -0.50073  -0.49965
 Alpha  occ. eigenvalues --   -0.49823  -0.49547  -0.49403  -0.49229  -0.49150
 Alpha  occ. eigenvalues --   -0.48634  -0.48384  -0.48050  -0.47323  -0.47203
 Alpha  occ. eigenvalues --   -0.47063  -0.46918  -0.46626  -0.46514  -0.46340
 Alpha  occ. eigenvalues --   -0.46169  -0.45853  -0.45688  -0.45620  -0.45487
 Alpha  occ. eigenvalues --   -0.44999  -0.44882  -0.44595  -0.44306  -0.44063
 Alpha  occ. eigenvalues --   -0.43141  -0.42890  -0.42814  -0.42732  -0.42184
 Alpha  occ. eigenvalues --   -0.42046  -0.41806  -0.41122  -0.39459  -0.38989
 Alpha  occ. eigenvalues --   -0.38045  -0.37128  -0.36264  -0.34750  -0.33730
 Alpha  occ. eigenvalues --   -0.32898  -0.32376  -0.31708  -0.30745  -0.26871
 Alpha  occ. eigenvalues --   -0.21771
 Alpha virt. eigenvalues --   -0.08560  -0.01430  -0.00576   0.00351   0.01989
 Alpha virt. eigenvalues --    0.02494   0.03246   0.03402   0.04358   0.05008
 Alpha virt. eigenvalues --    0.06315   0.07038   0.07144   0.07801   0.08090

 Mulliken charges:
               1
     1  Mg   0.429868
     2  C   -0.075679
     3  C   -0.064306
     4  C   -0.026647
     5  C   -0.069727
     6  N   -0.317315
     7  C    0.175264
     8  C   -0.003907
     9  C   -0.002334
    10  C    0.099237
    11  C   -0.052940
    12  C   -0.023039
    13  C    0.004222
    14  C    0.464337
    15  O   -0.513438
    16  O   -0.248140
    17  N   -0.330574
    18  C    0.072683
    19  C   -0.035403
    20  C   -0.056089
    21  C    0.122382
    22  C   -0.043713
    23  C    0.321445
    24  O   -0.547289
    25  C   -0.032225
    26  N   -0.286388
    27  C    0.087893
    28  C    0.007298
    29  C    0.000028
    30  C    0.178913
    31  C   -0.050659
    32  C   -0.041662
    33  C   -0.061545
    34  N   -0.316492
    35  C    0.131675
    36  C    0.078020
    37  C   -0.040251
    38  C    0.143094
    39  C   -0.034267
    40  C    0.338475
    41  O   -0.504610
    42  C    0.049826
    43  C    0.501018
    44  O   -0.506082
    45  O   -0.268228
    46  C    0.075889
    47  C    0.105230
    48  C   -0.085970
    49  C   -0.031125
    50  C   -0.043930
    51  C   -0.018714
    52  C   -0.029258
    53  C   -0.036150
    54  C   -0.027275
    55  C   -0.064726
    56  C   -0.043862
    57  C   -0.036656
    58  C   -0.030143
    59  C   -0.006401
    60  C   -0.064255
    61  C   -0.030085
    62  C   -0.041209
    63  C   -0.029095
    64  C    0.000882
    65  C   -0.058801
    66  C   -0.050267
    67  H    0.011124
    68  H    0.034232
    69  H    0.016518
    70  H    0.018231
    71  H    0.023906
    72  H    0.020949
    73  H    0.021781
    74  H    0.023818
    75  H    0.028800
    76  H    0.034882
    77  H    0.037969
    78  H    0.046414
    79  H    0.020175
    80  H    0.033189
    81  H    0.025395
    82  H    0.037611
    83  H    0.034722
    84  H    0.047482
    85  H    0.033953
    86  H    0.039494
    87  H    0.025946
    88  H    0.018092
    89  H    0.022353
    90  H    0.032806
    91  H    0.032450
    92  H    0.012166
    93  H    0.027010
    94  H    0.018306
    95  H    0.029107
    96  H    0.052139
    97  H    0.046335
    98  H    0.048360
    99  H    0.040851
   100  H    0.020120
   101  H    0.057136
   102  H    0.068469
   103  H    0.039018
   104  H    0.028433
   105  H    0.020015
   106  H    0.032652
   107  H    0.031137
   108  H    0.019369
   109  H    0.022485
   110  H    0.015250
   111  H    0.023731
   112  H    0.028095
   113  H    0.017908
   114  H    0.028379
   115  H    0.026555
   116  H    0.026322
   117  H    0.008457
   118  H    0.009868
   119  H    0.015082
   120  H    0.017709
   121  H    0.020780
   122  H    0.026847
   123  H    0.007850
   124  H    0.027089
   125  H    0.009481
   126  H    0.028802
   127  H    0.021408
   128  H    0.011657
   129  H    0.017522
   130  H    0.020913
   131  H   -0.000169
   132  H    0.016984
   133  H    0.015981
   134  H    0.023601
   135  H    0.004223
   136  H    0.024577
   137  H    0.025075
   138  H    0.008218
   139  H    0.017981
   140  H    0.011614
 Sum of Mulliken charges =  -0.00000

 Dipole moment (field-independent basis, Debye):
    X=              1.2452    Y=             -2.6001    Z=              6.5422  Tot=              7.1492
 N-N= 4.106149754477D+03 E-N= 0.000000000000D+00  KE=-8.887003905629D+03
 Leave Link  601 at Wed Apr 27 03:57:18 2022, MaxMem=  6710886400 cpu:               1.0 elap:               0.1
 (Enter /sw/apps/gaussian-16.0/g16/l9999.exe)
 1\1\GINC-BP1-COMPUTE154\SP\RZINDO CIS\STO-3G\C55H74Mg1N4O6\OF15641\27-
 Apr-2022\0\\#p ZINDO=(nstates=5)\\step_1051_chromophore_22 ZINDO\\0,1\
 Mg,0,8.993,47.666,25.135\C,0,6.736,47.756,27.93\C,0,11.446,48.523,27.3
 84\C,0,11.095,47.508,22.691\C,0,6.271,47.976,23.023\N,0,9.073,48.09,27
 .347\C,0,8.041,48.036,28.282\C,0,8.547,48.261,29.693\C,0,9.843,49.085,
 29.423\C,0,10.229,48.506,27.969\C,0,9.585,50.613,29.412\C,0,8.746,46.9
 73,30.628\C,0,8.753,47.244,32.172\C,0,8.616,46.055,33.175\O,0,8.551,44

 Normal termination of Gaussian 16 at Wed Apr 27 03:57:18 2022.
