 Gaussian 16, Revision A.03,
 Gaussian 16:  ES64L-G16RevA.03 25-Dec-2016

 ------------------------------
 #p blyp/Def2SVP td=(nstates=5)
 ------------------------------

 --------------------------------------------------
 step_1351_chromophore_8 TDDFT with blyp functional
 --------------------------------------------------
 Symbolic Z-matrix:
 Charge =  0 Multiplicity = 1

                         Standard orientation:
 ---------------------------------------------------------------------
 Center     Atomic      Atomic             Coordinates (Angstroms)
 Number     Number       Type             X           Y           Z
 ---------------------------------------------------------------------
      1         12           0       -4.260274   -1.269381    0.073043
      2          6           0       -3.779837    2.086552    1.291206
      3          6           0       -4.052982    0.010399   -2.927673
      4          6           0       -3.857047   -4.435997   -0.973500
      5          6           0       -3.540701   -2.405591    3.451027
      6          7           0       -4.062558    0.858194   -0.690905
      7          6           0       -3.944100    2.057236   -0.146228
      8          6           0       -3.617350    3.203058   -1.148599
      9          6           0       -4.043429    2.494024   -2.461213
     10          6           0       -4.040877    1.001269   -1.987722
     11          6           0       -5.466714    2.778910   -2.904490
     12          6           0       -2.107447    3.711433   -1.159393
     13          6           0       -1.989649    5.190305   -1.420493
     14          6           0       -0.577018    5.651106   -1.861136
     15          8           0       -0.392749    6.244374   -2.913637
     16          8           0        0.352733    5.340192   -0.913660
     17          7           0       -3.948446   -2.137987   -1.744452
     18          6           0       -4.026352   -1.387368   -2.871084
     19          6           0       -3.897610   -2.360501   -3.985072
     20          6           0       -3.887250   -3.688675   -3.494315
     21          6           0       -3.900983   -3.488194   -2.008451
     22          6           0       -3.844289   -1.815994   -5.391352
     23          6           0       -3.864384   -4.896963   -4.349772
     24          8           0       -4.012818   -4.910787   -5.561918
     25          6           0       -3.614782   -6.213754   -3.659458
     26          7           0       -3.669834   -3.157461    1.114162
     27          6           0       -3.728700   -4.287900    0.461285
     28          6           0       -3.700081   -5.524256    1.442422
     29          6           0       -3.485244   -4.884014    2.756450
     30          6           0       -3.461390   -3.374570    2.389416
     31          6           0       -4.974974   -6.418695    1.291622
     32          6           0       -2.137107   -5.218125    3.286213
     33          6           0       -2.148103   -6.587010    4.053527
     34          7           0       -3.875912   -0.363568    1.983058
     35          6           0       -3.716025   -1.029254    3.258103
     36          6           0       -3.740286    0.030931    4.247742
     37          6           0       -3.776478    1.267766    3.532054
     38          6           0       -3.865296    0.975888    2.133412
     39          6           0       -3.726925   -0.154870    5.785225
     40          6           0       -3.739320    2.761938    3.666166
     41          8           0       -3.615349    3.496473    4.618761
     42          6           0       -3.523474    3.305142    2.194572
     43          6           0       -4.534716    4.379326    2.010312
     44          8           0       -5.759114    4.267246    2.086905
     45          8           0       -3.840607    5.539384    1.770693
     46          6           0       -4.627394    6.763042    1.516630
     47          6           0        1.720591    5.421752   -1.433456
     48          6           0        2.349373    4.145370   -0.969671
     49          6           0        3.669726    3.896419   -0.789885
     50          6           0        4.554563    5.121272   -0.947857
     51          6           0        4.316281    2.593650   -0.223993
     52          6           0        5.031247    1.786096   -1.344144
     53          6           0        4.403234    0.391156   -1.674599
     54          6           0        5.245573   -0.844482   -1.414930
     55          6           0        5.020123   -1.925494   -2.405002
     56          6           0        4.934813   -1.371260   -0.003357
     57          6           0        6.162855   -1.217643    0.974799
     58          6           0        7.269615   -2.310992    0.787779
     59          6           0        8.594864   -1.640426    0.314172
     60          6           0        9.076009   -1.987820   -1.149884
     61          6           0        9.795583   -1.859409    1.252791
     62          6           0       10.853470   -0.737050    1.060559
     63          6           0       12.253541   -1.362784    0.921268
     64          6           0       13.470393   -0.336814    0.897656
     65          6           0       14.659865   -0.839874    1.861553
     66          6           0       13.778782    0.165122   -0.586657
     67          1           0       -4.127671    0.374444   -3.954709
     68          1           0       -3.876959   -5.496197   -1.236257
     69          1           0       -3.491842   -2.756737    4.483669
     70          1           0       -4.259345    4.077765   -1.046282
     71          1           0       -3.381396    2.851655   -3.250425
     72          1           0       -6.095275    3.132392   -2.087425
     73          1           0       -5.880348    1.831419   -3.251551
     74          1           0       -5.536413    3.571259   -3.648932
     75          1           0       -1.536345    3.184384   -1.923902
     76          1           0       -1.824810    3.567393   -0.116568
     77          1           0       -2.388857    5.766727   -0.585847
     78          1           0       -2.656520    5.416842   -2.252108
     79          1           0       -2.827196   -1.443203   -5.510137
     80          1           0       -4.457873   -0.957373   -5.661765
     81          1           0       -3.981027   -2.411652   -6.293847
     82          1           0       -4.514579   -6.354325   -3.059719
     83          1           0       -2.750774   -5.965163   -3.044291
     84          1           0       -3.494205   -6.941978   -4.461994
     85          1           0       -2.883691   -6.166854    1.112990
     86          1           0       -4.395235   -5.061626    3.329881
     87          1           0       -5.638746   -6.373174    2.155744
     88          1           0       -4.698466   -7.467820    1.184886
     89          1           0       -5.651054   -6.164680    0.474225
     90          1           0       -1.851775   -4.414583    3.966240
     91          1           0       -1.406556   -5.176953    2.479117
     92          1           0       -1.474228   -7.223955    3.481322
     93          1           0       -3.126481   -7.035820    4.226637
     94          1           0       -1.838063   -6.588954    5.098305
     95          1           0       -4.738876   -0.067507    6.178953
     96          1           0       -3.165954    0.630302    6.292718
     97          1           0       -3.361275   -1.147444    6.048442
     98          1           0       -2.506296    3.678532    2.076584
     99          1           0       -4.826213    7.325039    2.429956
    100          1           0       -5.559731    6.642122    0.963401
    101          1           0       -4.073391    7.430155    0.856492
    102          1           0        2.101819    6.308180   -0.925224
    103          1           0        1.861516    5.543061   -2.506809
    104          1           0        1.779608    3.300832   -0.581292
    105          1           0        5.163179    4.878038   -1.819369
    106          1           0        5.246341    5.191542   -0.107339
    107          1           0        4.077430    6.072414   -1.184354
    108          1           0        3.569121    1.978721    0.276794
    109          1           0        5.076227    2.835016    0.518217
    110          1           0        6.049146    1.530862   -1.050801
    111          1           0        5.031414    2.296818   -2.307396
    112          1           0        4.135116    0.319128   -2.728476
    113          1           0        3.474440    0.310885   -1.109603
    114          1           0        6.295024   -0.564168   -1.501496
    115          1           0        5.938028   -2.506923   -2.493610
    116          1           0        4.700519   -1.727284   -3.428128
    117          1           0        4.159422   -2.540236   -2.140937
    118          1           0        4.643007   -2.420171   -0.044694
    119          1           0        4.009887   -0.938723    0.378875
    120          1           0        5.787649   -1.369916    1.987138
    121          1           0        6.564440   -0.205670    0.935526
    122          1           0        7.034034   -3.097779    0.069752
    123          1           0        7.450194   -2.898674    1.687947
    124          1           0        8.433823   -0.596416    0.044467
    125          1           0        8.416558   -2.590044   -1.774482
    126          1           0       10.002437   -2.562388   -1.132784
    127          1           0        9.188551   -1.021648   -1.642614
    128          1           0       10.039361   -2.921742    1.241114
    129          1           0        9.434720   -1.649709    2.260040
    130          1           0       10.672901   -0.042120    1.881975
    131          1           0       10.709085   -0.065902    0.213052
    132          1           0       12.105021   -1.914502   -0.006751
    133          1           0       12.400071   -2.075197    1.734282
    134          1           0       13.115119    0.573482    1.378468
    135          1           0       14.402626   -0.619352    2.897348
    136          1           0       15.555475   -0.267097    1.620319
    137          1           0       14.796582   -1.912417    1.725785
    138          1           0       13.550164   -0.754558   -1.125063
    139          1           0       14.835115    0.309010   -0.809945
    140          1           0       13.302953    1.073176   -0.957917
 ---------------------------------------------------------------------

 SCF Done:  E(RB-LYP) =  -3007.33730569     A.U. after   20 cycles

 Excitation energies and oscillator strengths:

 Excited State   1:      Singlet-A      1.8859 eV  657.43 nm  f=0.2621  <S**2>=0.000
     245 -> 248       -0.23285
     246 -> 247        0.67178
     246 <- 247       -0.12303
 This state for optimization and/or second-order correction.
 Total Energy, E(TD-HF/TD-DFT) =  -3007.26800091
 Copying the excited state density for this state as the 1-particle RhoCI density.

 Excited State   2:      Singlet-A      1.9524 eV  635.05 nm  f=0.0012  <S**2>=0.000
     244 -> 247        0.70366

 Excited State   3:      Singlet-A      2.0387 eV  608.17 nm  f=0.0367  <S**2>=0.000
     243 -> 247        0.37536
     245 -> 247        0.54168
     246 -> 248        0.22379

 Excited State   4:      Singlet-A      2.1103 eV  587.51 nm  f=0.0115  <S**2>=0.000
     243 -> 247        0.59518
     245 -> 247       -0.32050
     246 -> 248       -0.19293

 Excited State   5:      Singlet-A      2.3487 eV  527.88 nm  f=0.0004  <S**2>=0.000
     242 -> 247        0.70056

 The electronic state is 1-A.
 Alpha  occ. eigenvalues --  -46.29042 -18.82906 -18.82786 -18.77141 -18.76685
 Alpha  occ. eigenvalues --  -18.76100 -18.75365 -14.03939 -14.03635 -14.01928
 Alpha  occ. eigenvalues --  -14.00968 -10.04354 -10.03898 -10.00015  -9.99502
 Alpha  occ. eigenvalues --   -9.98402  -9.97944  -9.97098  -9.97083  -9.96974
 Alpha  occ. eigenvalues --   -9.96463  -9.96418  -9.96059  -9.96012  -9.94644
 Alpha  occ. eigenvalues --   -9.94541  -9.94516  -9.94166  -9.94028  -9.94012
 Alpha  occ. eigenvalues --   -9.93984  -9.93733  -9.93605  -9.93532  -9.93370
 Alpha  occ. eigenvalues --   -9.93292  -9.93191  -9.93175  -9.93079  -9.93019
 Alpha  occ. eigenvalues --   -9.92968  -9.92816  -9.92668  -9.92625  -9.92596
 Alpha  occ. eigenvalues --   -9.92303  -9.92224  -9.91975  -9.91919  -9.91836
 Alpha  occ. eigenvalues --   -9.91676  -9.91658  -9.91587  -9.91502  -9.91454
 Alpha  occ. eigenvalues --   -9.91423  -9.91367  -9.91243  -9.91229  -9.91225
 Alpha  occ. eigenvalues --   -9.91144  -9.91102  -9.91045  -9.90669  -9.90600
 Alpha  occ. eigenvalues --   -9.90415  -2.93507  -1.73900  -1.73450  -1.73179
 Alpha  occ. eigenvalues --   -0.98551  -0.97396  -0.92139  -0.91507  -0.90590
 Alpha  occ. eigenvalues --   -0.89481  -0.89148  -0.88885  -0.85854  -0.84229
 Alpha  occ. eigenvalues --   -0.74909  -0.74210  -0.73824  -0.73546  -0.72784
 Alpha  occ. eigenvalues --   -0.72216  -0.72126  -0.71159  -0.70035  -0.69930
 Alpha  occ. eigenvalues --   -0.69788  -0.69159  -0.68182  -0.67597  -0.67452
 Alpha  occ. eigenvalues --   -0.66500  -0.66255  -0.65443  -0.65140  -0.64446
 Alpha  occ. eigenvalues --   -0.64012  -0.62413  -0.62143  -0.61934  -0.60902
 Alpha  occ. eigenvalues --   -0.60479  -0.60274  -0.60157  -0.59640  -0.58735
 Alpha  occ. eigenvalues --   -0.58238  -0.57650  -0.57257  -0.55638  -0.55604
 Alpha  occ. eigenvalues --   -0.53904  -0.53409  -0.53163  -0.52554  -0.52327
 Alpha  occ. eigenvalues --   -0.51983  -0.51444  -0.51206  -0.50743  -0.50451
 Alpha  occ. eigenvalues --   -0.50151  -0.49584  -0.48701  -0.48644  -0.47302
 Alpha  occ. eigenvalues --   -0.46937  -0.46324  -0.46031  -0.45786  -0.44437
 Alpha  occ. eigenvalues --   -0.44307  -0.43989  -0.43600  -0.43097  -0.42502
 Alpha  occ. eigenvalues --   -0.41876  -0.41738  -0.41579  -0.41469  -0.41299
 Alpha  occ. eigenvalues --   -0.41229  -0.40880  -0.40614  -0.40334  -0.40115
 Alpha  occ. eigenvalues --   -0.39966  -0.39889  -0.39811  -0.39542  -0.39461
 Alpha  occ. eigenvalues --   -0.39302  -0.38813  -0.38739  -0.38292  -0.38082
 Alpha  occ. eigenvalues --   -0.37709  -0.37570  -0.37369  -0.37247  -0.37117
 Alpha  occ. eigenvalues --   -0.36982  -0.36925  -0.36854  -0.36737  -0.36318
 Alpha  occ. eigenvalues --   -0.36233  -0.36139  -0.35774  -0.35711  -0.35549
 Alpha  occ. eigenvalues --   -0.35384  -0.35061  -0.34931  -0.34853  -0.34649
 Alpha  occ. eigenvalues --   -0.34554  -0.34382  -0.34172  -0.34149  -0.34079
 Alpha  occ. eigenvalues --   -0.33940  -0.33688  -0.33564  -0.33417  -0.33237
 Alpha  occ. eigenvalues --   -0.33224  -0.33133  -0.32938  -0.32723  -0.32615
 Alpha  occ. eigenvalues --   -0.32537  -0.32445  -0.32237  -0.32087  -0.32048
 Alpha  occ. eigenvalues --   -0.31474  -0.31319  -0.31208  -0.31092  -0.30927
 Alpha  occ. eigenvalues --   -0.30832  -0.30637  -0.30431  -0.30381  -0.30033
 Alpha  occ. eigenvalues --   -0.29946  -0.29780  -0.29639  -0.29565  -0.28945
 Alpha  occ. eigenvalues --   -0.28728  -0.28642  -0.27956  -0.27890  -0.27847
 Alpha  occ. eigenvalues --   -0.27660  -0.27441  -0.27149  -0.26918  -0.26553
 Alpha  occ. eigenvalues --   -0.26328  -0.26166  -0.25925  -0.25717  -0.25545
 Alpha  occ. eigenvalues --   -0.25453  -0.24981  -0.24566  -0.24194  -0.23504
 Alpha  occ. eigenvalues --   -0.23387  -0.22537  -0.22027  -0.21907  -0.21197
 Alpha  occ. eigenvalues --   -0.20105  -0.19976  -0.18895  -0.18450  -0.17498
 Alpha  occ. eigenvalues --   -0.16134
 Alpha virt. eigenvalues --   -0.11349  -0.07709  -0.06346  -0.04589  -0.04464
 Alpha virt. eigenvalues --   -0.03015  -0.02575  -0.01528  -0.01388  -0.00188
 Alpha virt. eigenvalues --    0.01148   0.01641   0.01902   0.02318   0.03065

 Mulliken charges:
               1
     1  Mg   0.696768
     2  C   -0.044629
     3  C   -0.033187
     4  C   -0.056195
     5  C   -0.069259
     6  N   -0.122009
     7  C   -0.062372
     8  C    0.023215
     9  C   -0.036997
    10  C    0.014291
    11  C    0.136959
    12  C    0.146438
    13  C    0.106588
    14  C    0.066998
    15  O   -0.180444
    16  O   -0.263937
    17  N   -0.329084
    18  C    0.110852
    19  C   -0.079150
    20  C    0.036331
    21  C    0.146261
    22  C    0.146188
    23  C   -0.128294
    24  O   -0.148043
    25  C    0.141799
    26  N   -0.105241
    27  C   -0.071951
    28  C    0.008576
    29  C    0.080030
    30  C   -0.051927
    31  C    0.110297
    32  C    0.103430
    33  C    0.074723
    34  N   -0.287728
    35  C    0.141213
    36  C   -0.172525
    37  C    0.044983
    38  C    0.095938
    39  C    0.161798
    40  C   -0.014129
    41  O   -0.117932
    42  C    0.053056
    43  C    0.119151
    44  O   -0.186800
    45  O   -0.270478
    46  C    0.209247
    47  C    0.331681
    48  C   -0.104131
    49  C   -0.179377
    50  C    0.133028
    51  C    0.160672
    52  C    0.084094
    53  C    0.090559
    54  C   -0.064075
    55  C    0.098339
    56  C    0.118535
    57  C    0.074894
    58  C    0.152157
    59  C   -0.132627
    60  C    0.074053
    61  C    0.129173
    62  C    0.057759
    63  C    0.073807
    64  C   -0.064638
    65  C    0.083112
    66  C    0.082994
    67  H   -0.067530
    68  H   -0.075378
    69  H   -0.048131
    70  H   -0.032071
    71  H   -0.023864
    72  H   -0.009087
    73  H   -0.010130
    74  H   -0.007424
    75  H   -0.009524
    76  H   -0.012997
    77  H    0.006624
    78  H   -0.026062
    79  H   -0.011714
    80  H   -0.005285
    81  H   -0.001743
    82  H    0.019803
    83  H    0.011145
    84  H   -0.001825
    85  H   -0.026127
    86  H   -0.027269
    87  H   -0.021308
    88  H   -0.007237
    89  H   -0.007545
    90  H   -0.031126
    91  H   -0.017897
    92  H   -0.001431
    93  H   -0.012628
    94  H   -0.012399
    95  H    0.006678
    96  H    0.010163
    97  H   -0.015819
    98  H    0.017226
    99  H    0.025129
   100  H    0.014667
   101  H    0.006174
   102  H    0.010925
   103  H    0.024902
   104  H   -0.042727
   105  H   -0.016412
   106  H   -0.005508
   107  H   -0.009555
   108  H   -0.019840
   109  H   -0.028340
   110  H   -0.033122
   111  H   -0.011904
   112  H   -0.049562
   113  H   -0.043032
   114  H   -0.034160
   115  H   -0.011636
   116  H   -0.033208
   117  H   -0.027439
   118  H   -0.042424
   119  H   -0.044029
   120  H   -0.040995
   121  H   -0.019282
   122  H   -0.040959
   123  H   -0.042613
   124  H   -0.032441
   125  H   -0.021919
   126  H   -0.018845
   127  H   -0.012511
   128  H   -0.020646
   129  H   -0.042598
   130  H   -0.039700
   131  H   -0.034236
   132  H   -0.022864
   133  H   -0.030724
   134  H   -0.035840
   135  H   -0.004928
   136  H   -0.013998
   137  H   -0.002449
   138  H   -0.017929
   139  H   -0.028760
   140  H    0.004422
 Sum of Mulliken charges =  -0.00000

 Dipole moment (field-independent basis, Debye):
    X=              1.5903    Y=             -2.7069    Z=              1.3654  Tot=              3.4236
 Quadrupole moment (field-independent basis, Debye-Ang):
   XX=           -400.7855   YY=           -396.3758   ZZ=           -439.2789
   XY=             14.7611   XZ=              1.2016   YZ=            -35.9429

 Normal termination of Gaussian 16 at Wed May  4 05:30:19 2022.
