 Gaussian 16, Revision A.03,
 Gaussian 16:  ES64L-G16RevA.03 25-Dec-2016

 -----------------------------------
 #p cam-b3lyp/Def2SVP td=(nstates=5)
 -----------------------------------

 -------------------------------------------------------
 step_1351_chromophore_8 TDDFT with cam-b3lyp functional
 -------------------------------------------------------
 Symbolic Z-matrix:
 Charge =  0 Multiplicity = 1

                         Standard orientation:
 ---------------------------------------------------------------------
 Center     Atomic      Atomic             Coordinates (Angstroms)
 Number     Number       Type             X           Y           Z
 ---------------------------------------------------------------------
      1         12           0       -4.260274   -1.269381    0.073043
      2          6           0       -3.779837    2.086552    1.291206
      3          6           0       -4.052982    0.010399   -2.927673
      4          6           0       -3.857047   -4.435997   -0.973500
      5          6           0       -3.540701   -2.405591    3.451027
      6          7           0       -4.062558    0.858194   -0.690905
      7          6           0       -3.944100    2.057236   -0.146228
      8          6           0       -3.617350    3.203058   -1.148599
      9          6           0       -4.043429    2.494024   -2.461213
     10          6           0       -4.040877    1.001269   -1.987722
     11          6           0       -5.466714    2.778910   -2.904490
     12          6           0       -2.107447    3.711433   -1.159393
     13          6           0       -1.989649    5.190305   -1.420493
     14          6           0       -0.577018    5.651106   -1.861136
     15          8           0       -0.392749    6.244374   -2.913637
     16          8           0        0.352733    5.340192   -0.913660
     17          7           0       -3.948446   -2.137987   -1.744452
     18          6           0       -4.026352   -1.387368   -2.871084
     19          6           0       -3.897610   -2.360501   -3.985072
     20          6           0       -3.887250   -3.688675   -3.494315
     21          6           0       -3.900983   -3.488194   -2.008451
     22          6           0       -3.844289   -1.815994   -5.391352
     23          6           0       -3.864384   -4.896963   -4.349772
     24          8           0       -4.012818   -4.910787   -5.561918
     25          6           0       -3.614782   -6.213754   -3.659458
     26          7           0       -3.669834   -3.157461    1.114162
     27          6           0       -3.728700   -4.287900    0.461285
     28          6           0       -3.700081   -5.524256    1.442422
     29          6           0       -3.485244   -4.884014    2.756450
     30          6           0       -3.461390   -3.374570    2.389416
     31          6           0       -4.974974   -6.418695    1.291622
     32          6           0       -2.137107   -5.218125    3.286213
     33          6           0       -2.148103   -6.587010    4.053527
     34          7           0       -3.875912   -0.363568    1.983058
     35          6           0       -3.716025   -1.029254    3.258103
     36          6           0       -3.740286    0.030931    4.247742
     37          6           0       -3.776478    1.267766    3.532054
     38          6           0       -3.865296    0.975888    2.133412
     39          6           0       -3.726925   -0.154870    5.785225
     40          6           0       -3.739320    2.761938    3.666166
     41          8           0       -3.615349    3.496473    4.618761
     42          6           0       -3.523474    3.305142    2.194572
     43          6           0       -4.534716    4.379326    2.010312
     44          8           0       -5.759114    4.267246    2.086905
     45          8           0       -3.840607    5.539384    1.770693
     46          6           0       -4.627394    6.763042    1.516630
     47          6           0        1.720591    5.421752   -1.433456
     48          6           0        2.349373    4.145370   -0.969671
     49          6           0        3.669726    3.896419   -0.789885
     50          6           0        4.554563    5.121272   -0.947857
     51          6           0        4.316281    2.593650   -0.223993
     52          6           0        5.031247    1.786096   -1.344144
     53          6           0        4.403234    0.391156   -1.674599
     54          6           0        5.245573   -0.844482   -1.414930
     55          6           0        5.020123   -1.925494   -2.405002
     56          6           0        4.934813   -1.371260   -0.003357
     57          6           0        6.162855   -1.217643    0.974799
     58          6           0        7.269615   -2.310992    0.787779
     59          6           0        8.594864   -1.640426    0.314172
     60          6           0        9.076009   -1.987820   -1.149884
     61          6           0        9.795583   -1.859409    1.252791
     62          6           0       10.853470   -0.737050    1.060559
     63          6           0       12.253541   -1.362784    0.921268
     64          6           0       13.470393   -0.336814    0.897656
     65          6           0       14.659865   -0.839874    1.861553
     66          6           0       13.778782    0.165122   -0.586657
     67          1           0       -4.127671    0.374444   -3.954709
     68          1           0       -3.876959   -5.496197   -1.236257
     69          1           0       -3.491842   -2.756737    4.483669
     70          1           0       -4.259345    4.077765   -1.046282
     71          1           0       -3.381396    2.851655   -3.250425
     72          1           0       -6.095275    3.132392   -2.087425
     73          1           0       -5.880348    1.831419   -3.251551
     74          1           0       -5.536413    3.571259   -3.648932
     75          1           0       -1.536345    3.184384   -1.923902
     76          1           0       -1.824810    3.567393   -0.116568
     77          1           0       -2.388857    5.766727   -0.585847
     78          1           0       -2.656520    5.416842   -2.252108
     79          1           0       -2.827196   -1.443203   -5.510137
     80          1           0       -4.457873   -0.957373   -5.661765
     81          1           0       -3.981027   -2.411652   -6.293847
     82          1           0       -4.514579   -6.354325   -3.059719
     83          1           0       -2.750774   -5.965163   -3.044291
     84          1           0       -3.494205   -6.941978   -4.461994
     85          1           0       -2.883691   -6.166854    1.112990
     86          1           0       -4.395235   -5.061626    3.329881
     87          1           0       -5.638746   -6.373174    2.155744
     88          1           0       -4.698466   -7.467820    1.184886
     89          1           0       -5.651054   -6.164680    0.474225
     90          1           0       -1.851775   -4.414583    3.966240
     91          1           0       -1.406556   -5.176953    2.479117
     92          1           0       -1.474228   -7.223955    3.481322
     93          1           0       -3.126481   -7.035820    4.226637
     94          1           0       -1.838063   -6.588954    5.098305
     95          1           0       -4.738876   -0.067507    6.178953
     96          1           0       -3.165954    0.630302    6.292718
     97          1           0       -3.361275   -1.147444    6.048442
     98          1           0       -2.506296    3.678532    2.076584
     99          1           0       -4.826213    7.325039    2.429956
    100          1           0       -5.559731    6.642122    0.963401
    101          1           0       -4.073391    7.430155    0.856492
    102          1           0        2.101819    6.308180   -0.925224
    103          1           0        1.861516    5.543061   -2.506809
    104          1           0        1.779608    3.300832   -0.581292
    105          1           0        5.163179    4.878038   -1.819369
    106          1           0        5.246341    5.191542   -0.107339
    107          1           0        4.077430    6.072414   -1.184354
    108          1           0        3.569121    1.978721    0.276794
    109          1           0        5.076227    2.835016    0.518217
    110          1           0        6.049146    1.530862   -1.050801
    111          1           0        5.031414    2.296818   -2.307396
    112          1           0        4.135116    0.319128   -2.728476
    113          1           0        3.474440    0.310885   -1.109603
    114          1           0        6.295024   -0.564168   -1.501496
    115          1           0        5.938028   -2.506923   -2.493610
    116          1           0        4.700519   -1.727284   -3.428128
    117          1           0        4.159422   -2.540236   -2.140937
    118          1           0        4.643007   -2.420171   -0.044694
    119          1           0        4.009887   -0.938723    0.378875
    120          1           0        5.787649   -1.369916    1.987138
    121          1           0        6.564440   -0.205670    0.935526
    122          1           0        7.034034   -3.097779    0.069752
    123          1           0        7.450194   -2.898674    1.687947
    124          1           0        8.433823   -0.596416    0.044467
    125          1           0        8.416558   -2.590044   -1.774482
    126          1           0       10.002437   -2.562388   -1.132784
    127          1           0        9.188551   -1.021648   -1.642614
    128          1           0       10.039361   -2.921742    1.241114
    129          1           0        9.434720   -1.649709    2.260040
    130          1           0       10.672901   -0.042120    1.881975
    131          1           0       10.709085   -0.065902    0.213052
    132          1           0       12.105021   -1.914502   -0.006751
    133          1           0       12.400071   -2.075197    1.734282
    134          1           0       13.115119    0.573482    1.378468
    135          1           0       14.402626   -0.619352    2.897348
    136          1           0       15.555475   -0.267097    1.620319
    137          1           0       14.796582   -1.912417    1.725785
    138          1           0       13.550164   -0.754558   -1.125063
    139          1           0       14.835115    0.309010   -0.809945
    140          1           0       13.302953    1.073176   -0.957917
 ---------------------------------------------------------------------

 SCF Done:  E(RCAM-B3LYP) =  -3007.12969681     A.U. after   16 cycles

 Excitation energies and oscillator strengths:

 Excited State   1:      Singlet-A      1.8147 eV  683.23 nm  f=0.3295  <S**2>=0.000
     245 -> 248       -0.21815
     246 -> 247        0.67360
     245 <- 248       -0.11119
 This state for optimization and/or second-order correction.
 Total Energy, E(TD-HF/TD-DFT) =  -3007.06300888
 Copying the excited state density for this state as the 1-particle RhoCI density.

 Excited State   2:      Singlet-A      2.2920 eV  540.95 nm  f=0.0429  <S**2>=0.000
     245 -> 247        0.59635
     246 -> 248        0.37087

 Excited State   3:      Singlet-A      3.3966 eV  365.02 nm  f=0.3547  <S**2>=0.000
     244 -> 247       -0.44281
     245 -> 247       -0.24850
     246 -> 248        0.46423

 Excited State   4:      Singlet-A      3.4910 eV  355.15 nm  f=0.3448  <S**2>=0.000
     240 -> 247       -0.13566
     241 -> 247        0.12991
     244 -> 247        0.50570
     245 -> 247       -0.22860
     246 -> 248        0.31857
     246 -> 249       -0.13682
     246 -> 250       -0.11012

 Excited State   5:      Singlet-A      3.5954 eV  344.84 nm  f=0.0197  <S**2>=0.000
     240 -> 247       -0.11458
     241 -> 247        0.14699
     242 -> 247       -0.28630
     242 -> 249        0.12140
     246 -> 249        0.43110
     246 -> 250        0.35884

 The electronic state is 1-A.
 Alpha  occ. eigenvalues --  -46.90726 -19.25817 -19.25747 -19.20115 -19.19815
 Alpha  occ. eigenvalues --  -19.19270 -19.18601 -14.42781 -14.42487 -14.40499
 Alpha  occ. eigenvalues --  -14.39278 -10.39637 -10.39414 -10.35324 -10.34682
 Alpha  occ. eigenvalues --  -10.32396 -10.32035 -10.31701 -10.31605 -10.31520
 Alpha  occ. eigenvalues --  -10.30890 -10.30739 -10.30558 -10.30148 -10.29357
 Alpha  occ. eigenvalues --  -10.28854 -10.28659 -10.28555 -10.28226 -10.28061
 Alpha  occ. eigenvalues --  -10.28060 -10.27980 -10.27751 -10.27660 -10.27603
 Alpha  occ. eigenvalues --  -10.27461 -10.27175 -10.27106 -10.27092 -10.26769
 Alpha  occ. eigenvalues --  -10.26764 -10.26663 -10.26564 -10.26449 -10.26360
 Alpha  occ. eigenvalues --  -10.25939 -10.25937 -10.25770 -10.25711 -10.25652
 Alpha  occ. eigenvalues --  -10.25638 -10.25539 -10.25320 -10.25316 -10.25245
 Alpha  occ. eigenvalues --  -10.25090 -10.24969 -10.24939 -10.24902 -10.24889
 Alpha  occ. eigenvalues --  -10.24788 -10.24720 -10.24690 -10.24295 -10.24222
 Alpha  occ. eigenvalues --  -10.23968  -3.19081  -1.93953  -1.93573  -1.93342
 Alpha  occ. eigenvalues --   -1.16973  -1.15965  -1.10546  -1.09955  -1.08485
 Alpha  occ. eigenvalues --   -1.07478  -1.06986  -1.06679  -1.03547  -1.01629
 Alpha  occ. eigenvalues --   -0.91957  -0.90975  -0.90674  -0.90382  -0.89549
 Alpha  occ. eigenvalues --   -0.88971  -0.88830  -0.87729  -0.86773  -0.86439
 Alpha  occ. eigenvalues --   -0.86273  -0.85519  -0.84406  -0.83847  -0.83594
 Alpha  occ. eigenvalues --   -0.82558  -0.82387  -0.81322  -0.80992  -0.80246
 Alpha  occ. eigenvalues --   -0.79789  -0.77949  -0.77743  -0.77632  -0.76352
 Alpha  occ. eigenvalues --   -0.75819  -0.75575  -0.75501  -0.74924  -0.73919
 Alpha  occ. eigenvalues --   -0.73252  -0.72589  -0.72184  -0.70452  -0.70258
 Alpha  occ. eigenvalues --   -0.68459  -0.68150  -0.67575  -0.66667  -0.66655
 Alpha  occ. eigenvalues --   -0.66146  -0.65597  -0.65382  -0.64726  -0.64310
 Alpha  occ. eigenvalues --   -0.64161  -0.63564  -0.62504  -0.62433  -0.60998
 Alpha  occ. eigenvalues --   -0.60635  -0.59846  -0.59463  -0.59221  -0.57946
 Alpha  occ. eigenvalues --   -0.57702  -0.57335  -0.56852  -0.56384  -0.55575
 Alpha  occ. eigenvalues --   -0.55137  -0.54743  -0.54549  -0.54470  -0.54152
 Alpha  occ. eigenvalues --   -0.53967  -0.53502  -0.53443  -0.53296  -0.53145
 Alpha  occ. eigenvalues --   -0.52786  -0.52634  -0.52453  -0.52413  -0.52023
 Alpha  occ. eigenvalues --   -0.51743  -0.51483  -0.51151  -0.50596  -0.50458
 Alpha  occ. eigenvalues --   -0.50349  -0.49986  -0.49666  -0.49637  -0.49518
 Alpha  occ. eigenvalues --   -0.49284  -0.49087  -0.49045  -0.48971  -0.48879
 Alpha  occ. eigenvalues --   -0.48421  -0.48336  -0.48256  -0.47872  -0.47638
 Alpha  occ. eigenvalues --   -0.47364  -0.47038  -0.46912  -0.46809  -0.46600
 Alpha  occ. eigenvalues --   -0.46426  -0.46146  -0.46132  -0.45984  -0.45921
 Alpha  occ. eigenvalues --   -0.45714  -0.45642  -0.45426  -0.45247  -0.45072
 Alpha  occ. eigenvalues --   -0.44951  -0.44743  -0.44647  -0.44315  -0.44147
 Alpha  occ. eigenvalues --   -0.44095  -0.44066  -0.44038  -0.43550  -0.43356
 Alpha  occ. eigenvalues --   -0.43197  -0.42903  -0.42849  -0.42616  -0.42460
 Alpha  occ. eigenvalues --   -0.42250  -0.42068  -0.42016  -0.41844  -0.41690
 Alpha  occ. eigenvalues --   -0.41279  -0.41214  -0.40861  -0.40643  -0.40027
 Alpha  occ. eigenvalues --   -0.39787  -0.39653  -0.38940  -0.38766  -0.38690
 Alpha  occ. eigenvalues --   -0.38573  -0.38229  -0.38024  -0.37666  -0.37312
 Alpha  occ. eigenvalues --   -0.37295  -0.37159  -0.37052  -0.36873  -0.36739
 Alpha  occ. eigenvalues --   -0.36392  -0.35554  -0.34648  -0.34645  -0.34366
 Alpha  occ. eigenvalues --   -0.34203  -0.33822  -0.33785  -0.31528  -0.30796
 Alpha  occ. eigenvalues --   -0.30735  -0.30574  -0.29573  -0.29281  -0.24227
 Alpha  occ. eigenvalues --   -0.21396
 Alpha virt. eigenvalues --   -0.08160  -0.02899  -0.00044   0.00761   0.02476
 Alpha virt. eigenvalues --    0.04777   0.05180   0.05830   0.06051   0.06562
 Alpha virt. eigenvalues --    0.07800   0.08170   0.08325   0.08855   0.09196

 Mulliken charges:
               1
     1  Mg   0.825348
     2  C   -0.069845
     3  C   -0.052754
     4  C   -0.080643
     5  C   -0.072756
     6  N   -0.192402
     7  C   -0.019833
     8  C   -0.023640
     9  C   -0.085823
    10  C    0.023034
    11  C    0.078969
    12  C    0.093296
    13  C    0.045089
    14  C    0.148597
    15  O   -0.223506
    16  O   -0.325863
    17  N   -0.417862
    18  C    0.127740
    19  C   -0.085138
    20  C   -0.033725
    21  C    0.177266
    22  C    0.083211
    23  C   -0.042540
    24  O   -0.189701
    25  C    0.056061
    26  N   -0.175485
    27  C   -0.043613
    28  C   -0.044176
    29  C    0.011186
    30  C   -0.032160
    31  C    0.050715
    32  C    0.044927
    33  C    0.014127
    34  N   -0.374003
    35  C    0.141604
    36  C   -0.173166
    37  C   -0.034977
    38  C    0.133989
    39  C    0.116596
    40  C    0.086876
    41  O   -0.155665
    42  C   -0.025271
    43  C    0.207191
    44  O   -0.224542
    45  O   -0.334623
    46  C    0.171720
    47  C    0.288635
    48  C   -0.119097
    49  C   -0.202639
    50  C    0.068350
    51  C    0.106051
    52  C    0.029465
    53  C    0.041796
    54  C   -0.123577
    55  C    0.042303
    56  C    0.064257
    57  C    0.021058
    58  C    0.094873
    59  C   -0.181439
    60  C    0.019491
    61  C    0.068872
    62  C    0.009520
    63  C    0.021025
    64  C   -0.126193
    65  C    0.029524
    66  C    0.025919
    67  H   -0.031744
    68  H   -0.039033
    69  H   -0.013176
    70  H    0.002485
    71  H    0.011154
    72  H    0.016733
    73  H    0.016260
    74  H    0.018522
    75  H    0.019580
    76  H    0.015009
    77  H    0.035401
    78  H    0.006313
    79  H    0.016774
    80  H    0.020886
    81  H    0.032366
    82  H    0.044480
    83  H    0.037465
    84  H    0.034336
    85  H    0.009006
    86  H    0.009023
    87  H    0.004192
    88  H    0.017294
    89  H    0.018048
    90  H    0.000284
    91  H    0.012117
    92  H    0.020856
    93  H    0.010129
    94  H    0.012642
    95  H    0.032379
    96  H    0.036075
    97  H    0.006419
    98  H    0.059893
    99  H    0.048056
   100  H    0.039131
   101  H    0.026835
   102  H    0.039374
   103  H    0.057296
   104  H   -0.009523
   105  H    0.007252
   106  H    0.019009
   107  H    0.015068
   108  H    0.008945
   109  H    0.002593
   110  H   -0.006386
   111  H    0.015959
   112  H   -0.017967
   113  H   -0.015649
   114  H   -0.006461
   115  H    0.009331
   116  H   -0.005912
   117  H   -0.002826
   118  H   -0.012029
   119  H   -0.014139
   120  H   -0.009866
   121  H    0.004335
   122  H   -0.012313
   123  H   -0.011149
   124  H   -0.003162
   125  H    0.000832
   126  H    0.004222
   127  H    0.009272
   128  H    0.007682
   129  H   -0.011813
   130  H   -0.010233
   131  H   -0.008128
   132  H    0.000759
   133  H   -0.002377
   134  H   -0.004223
   135  H    0.017920
   136  H    0.009489
   137  H    0.019019
   138  H    0.004275
   139  H   -0.003559
   140  H    0.026868
 Sum of Mulliken charges =  -0.00000

 Dipole moment (field-independent basis, Debye):
    X=              1.4387    Y=             -3.0484    Z=              1.0492  Tot=              3.5303
 Quadrupole moment (field-independent basis, Debye-Ang):
   XX=           -400.3980   YY=           -392.1361   ZZ=           -438.3801
   XY=             15.3159   XZ=              2.6011   YZ=            -36.3723

 Normal termination of Gaussian 16 at Wed May  4 04:17:45 2022.
