 Gaussian 16, Revision A.03,
 Gaussian 16:  ES64L-G16RevA.03 25-Dec-2016

 ---------------------------------
 #p PBE1PBE/Def2SVP td=(nstates=5)
 ---------------------------------

 -----------------------------------------------------
 step_1351_chromophore_8 TDDFT with PBE1PBE functional
 -----------------------------------------------------
 Symbolic Z-matrix:
 Charge =  0 Multiplicity = 1

                         Standard orientation:
 ---------------------------------------------------------------------
 Center     Atomic      Atomic             Coordinates (Angstroms)
 Number     Number       Type             X           Y           Z
 ---------------------------------------------------------------------
      1         12           0       -4.260274   -1.269381    0.073043
      2          6           0       -3.779837    2.086552    1.291206
      3          6           0       -4.052982    0.010399   -2.927673
      4          6           0       -3.857047   -4.435997   -0.973500
      5          6           0       -3.540701   -2.405591    3.451027
      6          7           0       -4.062558    0.858194   -0.690905
      7          6           0       -3.944100    2.057236   -0.146228
      8          6           0       -3.617350    3.203058   -1.148599
      9          6           0       -4.043429    2.494024   -2.461213
     10          6           0       -4.040877    1.001269   -1.987722
     11          6           0       -5.466714    2.778910   -2.904490
     12          6           0       -2.107447    3.711433   -1.159393
     13          6           0       -1.989649    5.190305   -1.420493
     14          6           0       -0.577018    5.651106   -1.861136
     15          8           0       -0.392749    6.244374   -2.913637
     16          8           0        0.352733    5.340192   -0.913660
     17          7           0       -3.948446   -2.137987   -1.744452
     18          6           0       -4.026352   -1.387368   -2.871084
     19          6           0       -3.897610   -2.360501   -3.985072
     20          6           0       -3.887250   -3.688675   -3.494315
     21          6           0       -3.900983   -3.488194   -2.008451
     22          6           0       -3.844289   -1.815994   -5.391352
     23          6           0       -3.864384   -4.896963   -4.349772
     24          8           0       -4.012818   -4.910787   -5.561918
     25          6           0       -3.614782   -6.213754   -3.659458
     26          7           0       -3.669834   -3.157461    1.114162
     27          6           0       -3.728700   -4.287900    0.461285
     28          6           0       -3.700081   -5.524256    1.442422
     29          6           0       -3.485244   -4.884014    2.756450
     30          6           0       -3.461390   -3.374570    2.389416
     31          6           0       -4.974974   -6.418695    1.291622
     32          6           0       -2.137107   -5.218125    3.286213
     33          6           0       -2.148103   -6.587010    4.053527
     34          7           0       -3.875912   -0.363568    1.983058
     35          6           0       -3.716025   -1.029254    3.258103
     36          6           0       -3.740286    0.030931    4.247742
     37          6           0       -3.776478    1.267766    3.532054
     38          6           0       -3.865296    0.975888    2.133412
     39          6           0       -3.726925   -0.154870    5.785225
     40          6           0       -3.739320    2.761938    3.666166
     41          8           0       -3.615349    3.496473    4.618761
     42          6           0       -3.523474    3.305142    2.194572
     43          6           0       -4.534716    4.379326    2.010312
     44          8           0       -5.759114    4.267246    2.086905
     45          8           0       -3.840607    5.539384    1.770693
     46          6           0       -4.627394    6.763042    1.516630
     47          6           0        1.720591    5.421752   -1.433456
     48          6           0        2.349373    4.145370   -0.969671
     49          6           0        3.669726    3.896419   -0.789885
     50          6           0        4.554563    5.121272   -0.947857
     51          6           0        4.316281    2.593650   -0.223993
     52          6           0        5.031247    1.786096   -1.344144
     53          6           0        4.403234    0.391156   -1.674599
     54          6           0        5.245573   -0.844482   -1.414930
     55          6           0        5.020123   -1.925494   -2.405002
     56          6           0        4.934813   -1.371260   -0.003357
     57          6           0        6.162855   -1.217643    0.974799
     58          6           0        7.269615   -2.310992    0.787779
     59          6           0        8.594864   -1.640426    0.314172
     60          6           0        9.076009   -1.987820   -1.149884
     61          6           0        9.795583   -1.859409    1.252791
     62          6           0       10.853470   -0.737050    1.060559
     63          6           0       12.253541   -1.362784    0.921268
     64          6           0       13.470393   -0.336814    0.897656
     65          6           0       14.659865   -0.839874    1.861553
     66          6           0       13.778782    0.165122   -0.586657
     67          1           0       -4.127671    0.374444   -3.954709
     68          1           0       -3.876959   -5.496197   -1.236257
     69          1           0       -3.491842   -2.756737    4.483669
     70          1           0       -4.259345    4.077765   -1.046282
     71          1           0       -3.381396    2.851655   -3.250425
     72          1           0       -6.095275    3.132392   -2.087425
     73          1           0       -5.880348    1.831419   -3.251551
     74          1           0       -5.536413    3.571259   -3.648932
     75          1           0       -1.536345    3.184384   -1.923902
     76          1           0       -1.824810    3.567393   -0.116568
     77          1           0       -2.388857    5.766727   -0.585847
     78          1           0       -2.656520    5.416842   -2.252108
     79          1           0       -2.827196   -1.443203   -5.510137
     80          1           0       -4.457873   -0.957373   -5.661765
     81          1           0       -3.981027   -2.411652   -6.293847
     82          1           0       -4.514579   -6.354325   -3.059719
     83          1           0       -2.750774   -5.965163   -3.044291
     84          1           0       -3.494205   -6.941978   -4.461994
     85          1           0       -2.883691   -6.166854    1.112990
     86          1           0       -4.395235   -5.061626    3.329881
     87          1           0       -5.638746   -6.373174    2.155744
     88          1           0       -4.698466   -7.467820    1.184886
     89          1           0       -5.651054   -6.164680    0.474225
     90          1           0       -1.851775   -4.414583    3.966240
     91          1           0       -1.406556   -5.176953    2.479117
     92          1           0       -1.474228   -7.223955    3.481322
     93          1           0       -3.126481   -7.035820    4.226637
     94          1           0       -1.838063   -6.588954    5.098305
     95          1           0       -4.738876   -0.067507    6.178953
     96          1           0       -3.165954    0.630302    6.292718
     97          1           0       -3.361275   -1.147444    6.048442
     98          1           0       -2.506296    3.678532    2.076584
     99          1           0       -4.826213    7.325039    2.429956
    100          1           0       -5.559731    6.642122    0.963401
    101          1           0       -4.073391    7.430155    0.856492
    102          1           0        2.101819    6.308180   -0.925224
    103          1           0        1.861516    5.543061   -2.506809
    104          1           0        1.779608    3.300832   -0.581292
    105          1           0        5.163179    4.878038   -1.819369
    106          1           0        5.246341    5.191542   -0.107339
    107          1           0        4.077430    6.072414   -1.184354
    108          1           0        3.569121    1.978721    0.276794
    109          1           0        5.076227    2.835016    0.518217
    110          1           0        6.049146    1.530862   -1.050801
    111          1           0        5.031414    2.296818   -2.307396
    112          1           0        4.135116    0.319128   -2.728476
    113          1           0        3.474440    0.310885   -1.109603
    114          1           0        6.295024   -0.564168   -1.501496
    115          1           0        5.938028   -2.506923   -2.493610
    116          1           0        4.700519   -1.727284   -3.428128
    117          1           0        4.159422   -2.540236   -2.140937
    118          1           0        4.643007   -2.420171   -0.044694
    119          1           0        4.009887   -0.938723    0.378875
    120          1           0        5.787649   -1.369916    1.987138
    121          1           0        6.564440   -0.205670    0.935526
    122          1           0        7.034034   -3.097779    0.069752
    123          1           0        7.450194   -2.898674    1.687947
    124          1           0        8.433823   -0.596416    0.044467
    125          1           0        8.416558   -2.590044   -1.774482
    126          1           0       10.002437   -2.562388   -1.132784
    127          1           0        9.188551   -1.021648   -1.642614
    128          1           0       10.039361   -2.921742    1.241114
    129          1           0        9.434720   -1.649709    2.260040
    130          1           0       10.672901   -0.042120    1.881975
    131          1           0       10.709085   -0.065902    0.213052
    132          1           0       12.105021   -1.914502   -0.006751
    133          1           0       12.400071   -2.075197    1.734282
    134          1           0       13.115119    0.573482    1.378468
    135          1           0       14.402626   -0.619352    2.897348
    136          1           0       15.555475   -0.267097    1.620319
    137          1           0       14.796582   -1.912417    1.725785
    138          1           0       13.550164   -0.754558   -1.125063
    139          1           0       14.835115    0.309010   -0.809945
    140          1           0       13.302953    1.073176   -0.957917
 ---------------------------------------------------------------------

 SCF Done:  E(RPBE1PBE) =  -3005.31942695     A.U. after   15 cycles

 Excitation energies and oscillator strengths:

 Excited State   1:      Singlet-A      1.9604 eV  632.46 nm  f=0.3229  <S**2>=0.000
     245 -> 248       -0.21101
     246 -> 247        0.67920
 This state for optimization and/or second-order correction.
 Total Energy, E(TD-HF/TD-DFT) =  -3005.24738503
 Copying the excited state density for this state as the 1-particle RhoCI density.

 Excited State   2:      Singlet-A      2.2989 eV  539.32 nm  f=0.0526  <S**2>=0.000
     245 -> 247        0.61903
     246 -> 248        0.33132

 Excited State   3:      Singlet-A      3.0625 eV  404.85 nm  f=0.0006  <S**2>=0.000
     241 -> 247       -0.21297
     243 -> 247        0.64375
     244 -> 247        0.10719

 Excited State   4:      Singlet-A      3.1124 eV  398.35 nm  f=0.0008  <S**2>=0.000
     242 -> 247        0.65852
     242 -> 248       -0.10718
     242 -> 249        0.17873
     242 -> 251        0.11689

 Excited State   5:      Singlet-A      3.1227 eV  397.04 nm  f=0.0247  <S**2>=0.000
     241 -> 247        0.61307
     241 -> 249       -0.14485
     243 -> 247        0.19899
     246 -> 248       -0.19270

 The electronic state is 1-A.
 Alpha  occ. eigenvalues --  -46.94114 -19.26481 -19.26463 -19.20454 -19.20042
 Alpha  occ. eigenvalues --  -19.19532 -19.18765 -14.42245 -14.41920 -14.40095
 Alpha  occ. eigenvalues --  -14.39035 -10.36724 -10.36424 -10.32553 -10.31756
 Alpha  occ. eigenvalues --  -10.29831 -10.29382 -10.29315 -10.29256 -10.29228
 Alpha  occ. eigenvalues --  -10.28602 -10.28531 -10.28137 -10.28013 -10.26934
 Alpha  occ. eigenvalues --  -10.26595 -10.26477 -10.26353 -10.26115 -10.25843
 Alpha  occ. eigenvalues --  -10.25775 -10.25735 -10.25406 -10.25293 -10.25242
 Alpha  occ. eigenvalues --  -10.25071 -10.24936 -10.24774 -10.24668 -10.24423
 Alpha  occ. eigenvalues --  -10.24315 -10.24301 -10.24153 -10.24064 -10.23842
 Alpha  occ. eigenvalues --  -10.23513 -10.23403 -10.23396 -10.23185 -10.23116
 Alpha  occ. eigenvalues --  -10.23043 -10.22972 -10.22941 -10.22873 -10.22872
 Alpha  occ. eigenvalues --  -10.22622 -10.22499 -10.22480 -10.22446 -10.22434
 Alpha  occ. eigenvalues --  -10.22366 -10.22258 -10.22115 -10.21850 -10.21644
 Alpha  occ. eigenvalues --  -10.21346  -3.16054  -1.88863  -1.88463  -1.88236
 Alpha  occ. eigenvalues --   -1.11835  -1.10722  -1.05351  -1.04637  -1.03397
 Alpha  occ. eigenvalues --   -1.02282  -1.01638  -1.01353  -0.98147  -0.96355
 Alpha  occ. eigenvalues --   -0.86334  -0.85306  -0.84808  -0.84561  -0.83684
 Alpha  occ. eigenvalues --   -0.83265  -0.82943  -0.82062  -0.80991  -0.80679
 Alpha  occ. eigenvalues --   -0.80399  -0.79861  -0.78612  -0.78076  -0.77876
 Alpha  occ. eigenvalues --   -0.76688  -0.76592  -0.75635  -0.75287  -0.74527
 Alpha  occ. eigenvalues --   -0.73934  -0.72256  -0.72032  -0.71866  -0.70676
 Alpha  occ. eigenvalues --   -0.69969  -0.69940  -0.69573  -0.69040  -0.68091
 Alpha  occ. eigenvalues --   -0.67564  -0.67053  -0.66657  -0.64745  -0.64607
 Alpha  occ. eigenvalues --   -0.62684  -0.62515  -0.62109  -0.61083  -0.60897
 Alpha  occ. eigenvalues --   -0.60598  -0.60075  -0.59606  -0.59290  -0.58808
 Alpha  occ. eigenvalues --   -0.58257  -0.57705  -0.57018  -0.56729  -0.55507
 Alpha  occ. eigenvalues --   -0.55176  -0.54321  -0.54052  -0.53844  -0.52450
 Alpha  occ. eigenvalues --   -0.52281  -0.51786  -0.51256  -0.50978  -0.50167
 Alpha  occ. eigenvalues --   -0.49699  -0.49250  -0.49131  -0.49049  -0.48713
 Alpha  occ. eigenvalues --   -0.48325  -0.48110  -0.47965  -0.47833  -0.47724
 Alpha  occ. eigenvalues --   -0.47403  -0.47047  -0.46946  -0.46850  -0.46495
 Alpha  occ. eigenvalues --   -0.46228  -0.46142  -0.45717  -0.45113  -0.44991
 Alpha  occ. eigenvalues --   -0.44891  -0.44545  -0.44323  -0.44216  -0.44103
 Alpha  occ. eigenvalues --   -0.43904  -0.43684  -0.43602  -0.43522  -0.43519
 Alpha  occ. eigenvalues --   -0.43047  -0.42926  -0.42814  -0.42575  -0.42338
 Alpha  occ. eigenvalues --   -0.42095  -0.41687  -0.41622  -0.41462  -0.41239
 Alpha  occ. eigenvalues --   -0.41097  -0.40830  -0.40720  -0.40656  -0.40601
 Alpha  occ. eigenvalues --   -0.40399  -0.40244  -0.40155  -0.39979  -0.39857
 Alpha  occ. eigenvalues --   -0.39712  -0.39429  -0.39349  -0.39131  -0.38987
 Alpha  occ. eigenvalues --   -0.38852  -0.38840  -0.38720  -0.38285  -0.38167
 Alpha  occ. eigenvalues --   -0.38022  -0.37751  -0.37672  -0.37413  -0.37338
 Alpha  occ. eigenvalues --   -0.37010  -0.36871  -0.36810  -0.36657  -0.36464
 Alpha  occ. eigenvalues --   -0.36060  -0.35947  -0.35703  -0.35410  -0.34806
 Alpha  occ. eigenvalues --   -0.34705  -0.34478  -0.33903  -0.33566  -0.33526
 Alpha  occ. eigenvalues --   -0.33513  -0.32998  -0.32774  -0.32698  -0.32321
 Alpha  occ. eigenvalues --   -0.32168  -0.32093  -0.32035  -0.31880  -0.31624
 Alpha  occ. eigenvalues --   -0.31172  -0.30414  -0.29843  -0.29548  -0.29519
 Alpha  occ. eigenvalues --   -0.29157  -0.28916  -0.28823  -0.27188  -0.26242
 Alpha  occ. eigenvalues --   -0.25655  -0.25450  -0.24959  -0.24860  -0.21189
 Alpha  occ. eigenvalues --   -0.19059
 Alpha virt. eigenvalues --   -0.10790  -0.06246  -0.04074  -0.02201  -0.01960
 Alpha virt. eigenvalues --    0.00159   0.00504   0.01421   0.01672   0.02791
 Alpha virt. eigenvalues --    0.03896   0.04601   0.04775   0.05083   0.05924

 Mulliken charges:
               1
     1  Mg   0.959876
     2  C   -0.081409
     3  C   -0.047455
     4  C   -0.082724
     5  C   -0.063536
     6  N   -0.299987
     7  C    0.062491
     8  C   -0.086964
     9  C   -0.160917
    10  C    0.047611
    11  C    0.027921
    12  C    0.035016
    13  C   -0.036221
    14  C    0.216881
    15  O   -0.257360
    16  O   -0.352740
    17  N   -0.534303
    18  C    0.166637
    19  C   -0.116587
    20  C   -0.082574
    21  C    0.209938
    22  C    0.030770
    23  C    0.015524
    24  O   -0.228626
    25  C   -0.026454
    26  N   -0.284604
    27  C    0.001158
    28  C   -0.111605
    29  C   -0.082996
    30  C    0.015666
    31  C   -0.004121
    32  C   -0.016618
    33  C   -0.051018
    34  N   -0.494703
    35  C    0.161521
    36  C   -0.191777
    37  C   -0.089235
    38  C    0.193091
    39  C    0.064821
    40  C    0.185456
    41  O   -0.199627
    42  C   -0.144190
    43  C    0.302308
    44  O   -0.260340
    45  O   -0.368171
    46  C    0.116765
    47  C    0.239597
    48  C   -0.123241
    49  C   -0.249118
    50  C    0.005920
    51  C    0.041881
    52  C   -0.032668
    53  C   -0.005764
    54  C   -0.220398
    55  C   -0.016487
    56  C    0.015941
    57  C   -0.053177
    58  C    0.047416
    59  C   -0.261661
    60  C   -0.038206
    61  C    0.004298
    62  C   -0.045554
    63  C   -0.039924
    64  C   -0.212874
    65  C   -0.035932
    66  C   -0.035313
    67  H   -0.000482
    68  H   -0.006127
    69  H    0.017000
    70  H    0.040537
    71  H    0.045301
    72  H    0.044057
    73  H    0.045509
    74  H    0.046315
    75  H    0.051487
    76  H    0.053069
    77  H    0.072040
    78  H    0.040471
    79  H    0.046162
    80  H    0.046235
    81  H    0.059094
    82  H    0.071588
    83  H    0.065502
    84  H    0.061991
    85  H    0.045658
    86  H    0.045157
    87  H    0.031100
    88  H    0.044454
    89  H    0.045094
    90  H    0.035242
    91  H    0.044306
    92  H    0.048066
    93  H    0.036784
    94  H    0.039921
    95  H    0.060624
    96  H    0.063144
    97  H    0.033446
    98  H    0.095674
    99  H    0.069996
   100  H    0.059881
   101  H    0.047402
   102  H    0.065490
   103  H    0.083612
   104  H    0.021837
   105  H    0.036914
   106  H    0.046664
   107  H    0.040459
   108  H    0.039671
   109  H    0.034734
   110  H    0.025903
   111  H    0.048216
   112  H    0.015164
   113  H    0.016735
   114  H    0.036469
   115  H    0.039152
   116  H    0.021160
   117  H    0.024638
   118  H    0.020186
   119  H    0.016959
   120  H    0.024225
   121  H    0.037861
   122  H    0.019537
   123  H    0.020632
   124  H    0.032962
   125  H    0.029717
   126  H    0.032221
   127  H    0.035058
   128  H    0.038436
   129  H    0.023935
   130  H    0.021837
   131  H    0.024099
   132  H    0.035025
   133  H    0.030589
   134  H    0.035117
   135  H    0.045548
   136  H    0.037291
   137  H    0.046276
   138  H    0.031893
   139  H    0.024325
   140  H    0.052429
 Sum of Mulliken charges =  -0.00000

 Dipole moment (field-independent basis, Debye):
    X=              1.4507    Y=             -3.0588    Z=              1.2007  Tot=              3.5920
 Quadrupole moment (field-independent basis, Debye-Ang):
   XX=           -397.9355   YY=           -388.3183   ZZ=           -434.5718
   XY=             15.3070   XZ=              2.0872   YZ=            -38.0019

 Normal termination of Gaussian 16 at Wed May  4 04:37:14 2022.
