 Gaussian 16, Revision A.03,
 Gaussian 16:  ES64L-G16RevA.03 25-Dec-2016

 --------------------------------
 #p wB97XD/Def2SVP td=(nstates=5)
 --------------------------------

 ----------------------------------------------------
 step_1351_chromophore_8 TDDFT with wB97XD functional
 ----------------------------------------------------
 Symbolic Z-matrix:
 Charge =  0 Multiplicity = 1

                         Standard orientation:
 ---------------------------------------------------------------------
 Center     Atomic      Atomic             Coordinates (Angstroms)
 Number     Number       Type             X           Y           Z
 ---------------------------------------------------------------------
      1         12           0       -4.260274   -1.269381    0.073043
      2          6           0       -3.779837    2.086552    1.291206
      3          6           0       -4.052982    0.010399   -2.927673
      4          6           0       -3.857047   -4.435997   -0.973500
      5          6           0       -3.540701   -2.405591    3.451027
      6          7           0       -4.062558    0.858194   -0.690905
      7          6           0       -3.944100    2.057236   -0.146228
      8          6           0       -3.617350    3.203058   -1.148599
      9          6           0       -4.043429    2.494024   -2.461213
     10          6           0       -4.040877    1.001269   -1.987722
     11          6           0       -5.466714    2.778910   -2.904490
     12          6           0       -2.107447    3.711433   -1.159393
     13          6           0       -1.989649    5.190305   -1.420493
     14          6           0       -0.577018    5.651106   -1.861136
     15          8           0       -0.392749    6.244374   -2.913637
     16          8           0        0.352733    5.340192   -0.913660
     17          7           0       -3.948446   -2.137987   -1.744452
     18          6           0       -4.026352   -1.387368   -2.871084
     19          6           0       -3.897610   -2.360501   -3.985072
     20          6           0       -3.887250   -3.688675   -3.494315
     21          6           0       -3.900983   -3.488194   -2.008451
     22          6           0       -3.844289   -1.815994   -5.391352
     23          6           0       -3.864384   -4.896963   -4.349772
     24          8           0       -4.012818   -4.910787   -5.561918
     25          6           0       -3.614782   -6.213754   -3.659458
     26          7           0       -3.669834   -3.157461    1.114162
     27          6           0       -3.728700   -4.287900    0.461285
     28          6           0       -3.700081   -5.524256    1.442422
     29          6           0       -3.485244   -4.884014    2.756450
     30          6           0       -3.461390   -3.374570    2.389416
     31          6           0       -4.974974   -6.418695    1.291622
     32          6           0       -2.137107   -5.218125    3.286213
     33          6           0       -2.148103   -6.587010    4.053527
     34          7           0       -3.875912   -0.363568    1.983058
     35          6           0       -3.716025   -1.029254    3.258103
     36          6           0       -3.740286    0.030931    4.247742
     37          6           0       -3.776478    1.267766    3.532054
     38          6           0       -3.865296    0.975888    2.133412
     39          6           0       -3.726925   -0.154870    5.785225
     40          6           0       -3.739320    2.761938    3.666166
     41          8           0       -3.615349    3.496473    4.618761
     42          6           0       -3.523474    3.305142    2.194572
     43          6           0       -4.534716    4.379326    2.010312
     44          8           0       -5.759114    4.267246    2.086905
     45          8           0       -3.840607    5.539384    1.770693
     46          6           0       -4.627394    6.763042    1.516630
     47          6           0        1.720591    5.421752   -1.433456
     48          6           0        2.349373    4.145370   -0.969671
     49          6           0        3.669726    3.896419   -0.789885
     50          6           0        4.554563    5.121272   -0.947857
     51          6           0        4.316281    2.593650   -0.223993
     52          6           0        5.031247    1.786096   -1.344144
     53          6           0        4.403234    0.391156   -1.674599
     54          6           0        5.245573   -0.844482   -1.414930
     55          6           0        5.020123   -1.925494   -2.405002
     56          6           0        4.934813   -1.371260   -0.003357
     57          6           0        6.162855   -1.217643    0.974799
     58          6           0        7.269615   -2.310992    0.787779
     59          6           0        8.594864   -1.640426    0.314172
     60          6           0        9.076009   -1.987820   -1.149884
     61          6           0        9.795583   -1.859409    1.252791
     62          6           0       10.853470   -0.737050    1.060559
     63          6           0       12.253541   -1.362784    0.921268
     64          6           0       13.470393   -0.336814    0.897656
     65          6           0       14.659865   -0.839874    1.861553
     66          6           0       13.778782    0.165122   -0.586657
     67          1           0       -4.127671    0.374444   -3.954709
     68          1           0       -3.876959   -5.496197   -1.236257
     69          1           0       -3.491842   -2.756737    4.483669
     70          1           0       -4.259345    4.077765   -1.046282
     71          1           0       -3.381396    2.851655   -3.250425
     72          1           0       -6.095275    3.132392   -2.087425
     73          1           0       -5.880348    1.831419   -3.251551
     74          1           0       -5.536413    3.571259   -3.648932
     75          1           0       -1.536345    3.184384   -1.923902
     76          1           0       -1.824810    3.567393   -0.116568
     77          1           0       -2.388857    5.766727   -0.585847
     78          1           0       -2.656520    5.416842   -2.252108
     79          1           0       -2.827196   -1.443203   -5.510137
     80          1           0       -4.457873   -0.957373   -5.661765
     81          1           0       -3.981027   -2.411652   -6.293847
     82          1           0       -4.514579   -6.354325   -3.059719
     83          1           0       -2.750774   -5.965163   -3.044291
     84          1           0       -3.494205   -6.941978   -4.461994
     85          1           0       -2.883691   -6.166854    1.112990
     86          1           0       -4.395235   -5.061626    3.329881
     87          1           0       -5.638746   -6.373174    2.155744
     88          1           0       -4.698466   -7.467820    1.184886
     89          1           0       -5.651054   -6.164680    0.474225
     90          1           0       -1.851775   -4.414583    3.966240
     91          1           0       -1.406556   -5.176953    2.479117
     92          1           0       -1.474228   -7.223955    3.481322
     93          1           0       -3.126481   -7.035820    4.226637
     94          1           0       -1.838063   -6.588954    5.098305
     95          1           0       -4.738876   -0.067507    6.178953
     96          1           0       -3.165954    0.630302    6.292718
     97          1           0       -3.361275   -1.147444    6.048442
     98          1           0       -2.506296    3.678532    2.076584
     99          1           0       -4.826213    7.325039    2.429956
    100          1           0       -5.559731    6.642122    0.963401
    101          1           0       -4.073391    7.430155    0.856492
    102          1           0        2.101819    6.308180   -0.925224
    103          1           0        1.861516    5.543061   -2.506809
    104          1           0        1.779608    3.300832   -0.581292
    105          1           0        5.163179    4.878038   -1.819369
    106          1           0        5.246341    5.191542   -0.107339
    107          1           0        4.077430    6.072414   -1.184354
    108          1           0        3.569121    1.978721    0.276794
    109          1           0        5.076227    2.835016    0.518217
    110          1           0        6.049146    1.530862   -1.050801
    111          1           0        5.031414    2.296818   -2.307396
    112          1           0        4.135116    0.319128   -2.728476
    113          1           0        3.474440    0.310885   -1.109603
    114          1           0        6.295024   -0.564168   -1.501496
    115          1           0        5.938028   -2.506923   -2.493610
    116          1           0        4.700519   -1.727284   -3.428128
    117          1           0        4.159422   -2.540236   -2.140937
    118          1           0        4.643007   -2.420171   -0.044694
    119          1           0        4.009887   -0.938723    0.378875
    120          1           0        5.787649   -1.369916    1.987138
    121          1           0        6.564440   -0.205670    0.935526
    122          1           0        7.034034   -3.097779    0.069752
    123          1           0        7.450194   -2.898674    1.687947
    124          1           0        8.433823   -0.596416    0.044467
    125          1           0        8.416558   -2.590044   -1.774482
    126          1           0       10.002437   -2.562388   -1.132784
    127          1           0        9.188551   -1.021648   -1.642614
    128          1           0       10.039361   -2.921742    1.241114
    129          1           0        9.434720   -1.649709    2.260040
    130          1           0       10.672901   -0.042120    1.881975
    131          1           0       10.709085   -0.065902    0.213052
    132          1           0       12.105021   -1.914502   -0.006751
    133          1           0       12.400071   -2.075197    1.734282
    134          1           0       13.115119    0.573482    1.378468
    135          1           0       14.402626   -0.619352    2.897348
    136          1           0       15.555475   -0.267097    1.620319
    137          1           0       14.796582   -1.912417    1.725785
    138          1           0       13.550164   -0.754558   -1.125063
    139          1           0       14.835115    0.309010   -0.809945
    140          1           0       13.302953    1.073176   -0.957917
 ---------------------------------------------------------------------

 SCF Done:  E(RwB97XD) =  -3007.82947664     A.U. after   17 cycles

 Excitation energies and oscillator strengths:

 Excited State   1:      Singlet-A      1.7606 eV  704.20 nm  f=0.3270  <S**2>=0.000
     245 -> 248       -0.22363
     246 -> 247        0.67188
     245 <- 248       -0.12113
 This state for optimization and/or second-order correction.
 Total Energy, E(TD-HF/TD-DFT) =  -3007.76477453
 Copying the excited state density for this state as the 1-particle RhoCI density.

 Excited State   2:      Singlet-A      2.2377 eV  554.06 nm  f=0.0423  <S**2>=0.000
     245 -> 247        0.59588
     246 -> 248        0.37043

 Excited State   3:      Singlet-A      3.4070 eV  363.91 nm  f=0.3293  <S**2>=0.000
     244 -> 247        0.46798
     245 -> 247        0.23450
     246 -> 248       -0.45138

 Excited State   4:      Singlet-A      3.5199 eV  352.24 nm  f=0.4523  <S**2>=0.000
     240 -> 247       -0.20282
     242 -> 249        0.10817
     244 -> 247        0.46816
     245 -> 247       -0.25905
     246 -> 248        0.36314

 Excited State   5:      Singlet-A      3.6360 eV  340.99 nm  f=0.0015  <S**2>=0.000
     241 -> 247        0.49514
     241 -> 248       -0.16217
     241 -> 249        0.34357
     241 -> 251        0.26014

 The electronic state is 1-A.
 Alpha  occ. eigenvalues --  -46.97081 -19.31045 -19.31011 -19.25096 -19.24773
 Alpha  occ. eigenvalues --  -19.24308 -19.23631 -14.47340 -14.47046 -14.45092
 Alpha  occ. eigenvalues --  -14.43884 -10.43485 -10.43273 -10.39351 -10.38636
 Alpha  occ. eigenvalues --  -10.36305 -10.35796 -10.35790 -10.35633 -10.35568
 Alpha  occ. eigenvalues --  -10.34924 -10.34743 -10.34633 -10.34181 -10.33546
 Alpha  occ. eigenvalues --  -10.32844 -10.32736 -10.32687 -10.32362 -10.32116
 Alpha  occ. eigenvalues --  -10.32112 -10.32017 -10.31804 -10.31780 -10.31703
 Alpha  occ. eigenvalues --  -10.31431 -10.31127 -10.31100 -10.31093 -10.30715
 Alpha  occ. eigenvalues --  -10.30700 -10.30699 -10.30448 -10.30426 -10.30232
 Alpha  occ. eigenvalues --  -10.29814 -10.29764 -10.29713 -10.29662 -10.29654
 Alpha  occ. eigenvalues --  -10.29546 -10.29370 -10.29242 -10.29229 -10.29223
 Alpha  occ. eigenvalues --  -10.28909 -10.28908 -10.28865 -10.28809 -10.28804
 Alpha  occ. eigenvalues --  -10.28715 -10.28608 -10.28533 -10.28201 -10.28056
 Alpha  occ. eigenvalues --  -10.27783  -3.22913  -1.96465  -1.96064  -1.95836
 Alpha  occ. eigenvalues --   -1.19190  -1.18144  -1.12784  -1.12174  -1.10714
 Alpha  occ. eigenvalues --   -1.09675  -1.09000  -1.08688  -1.05612  -1.03645
 Alpha  occ. eigenvalues --   -0.93922  -0.92833  -0.92460  -0.92199  -0.91344
 Alpha  occ. eigenvalues --   -0.90924  -0.90599  -0.89654  -0.88759  -0.88316
 Alpha  occ. eigenvalues --   -0.88069  -0.87445  -0.86270  -0.85740  -0.85488
 Alpha  occ. eigenvalues --   -0.84359  -0.84305  -0.83270  -0.82918  -0.82151
 Alpha  occ. eigenvalues --   -0.81599  -0.79857  -0.79664  -0.79564  -0.78292
 Alpha  occ. eigenvalues --   -0.77638  -0.77529  -0.77285  -0.76720  -0.75748
 Alpha  occ. eigenvalues --   -0.75161  -0.74571  -0.74179  -0.72375  -0.72155
 Alpha  occ. eigenvalues --   -0.70322  -0.70153  -0.69599  -0.68563  -0.68524
 Alpha  occ. eigenvalues --   -0.68092  -0.67584  -0.67229  -0.66732  -0.66286
 Alpha  occ. eigenvalues --   -0.65943  -0.65364  -0.64425  -0.64338  -0.62965
 Alpha  occ. eigenvalues --   -0.62650  -0.61772  -0.61450  -0.61219  -0.59908
 Alpha  occ. eigenvalues --   -0.59715  -0.59261  -0.58742  -0.58384  -0.57517
 Alpha  occ. eigenvalues --   -0.57134  -0.56652  -0.56501  -0.56411  -0.56091
 Alpha  occ. eigenvalues --   -0.55802  -0.55426  -0.55350  -0.55225  -0.55077
 Alpha  occ. eigenvalues --   -0.54734  -0.54585  -0.54405  -0.54253  -0.53876
 Alpha  occ. eigenvalues --   -0.53609  -0.53428  -0.53036  -0.52483  -0.52381
 Alpha  occ. eigenvalues --   -0.52287  -0.51888  -0.51633  -0.51540  -0.51449
 Alpha  occ. eigenvalues --   -0.51204  -0.50988  -0.50946  -0.50838  -0.50793
 Alpha  occ. eigenvalues --   -0.50335  -0.50228  -0.50148  -0.49804  -0.49550
 Alpha  occ. eigenvalues --   -0.49288  -0.48947  -0.48850  -0.48703  -0.48487
 Alpha  occ. eigenvalues --   -0.48347  -0.48092  -0.47955  -0.47913  -0.47812
 Alpha  occ. eigenvalues --   -0.47634  -0.47490  -0.47356  -0.47181  -0.47027
 Alpha  occ. eigenvalues --   -0.46896  -0.46614  -0.46511  -0.46243  -0.46103
 Alpha  occ. eigenvalues --   -0.46007  -0.45981  -0.45892  -0.45419  -0.45273
 Alpha  occ. eigenvalues --   -0.45120  -0.44833  -0.44784  -0.44567  -0.44397
 Alpha  occ. eigenvalues --   -0.44120  -0.44096  -0.43935  -0.43721  -0.43556
 Alpha  occ. eigenvalues --   -0.43113  -0.43084  -0.42765  -0.42490  -0.41871
 Alpha  occ. eigenvalues --   -0.41692  -0.41512  -0.40880  -0.40595  -0.40539
 Alpha  occ. eigenvalues --   -0.40462  -0.40050  -0.39858  -0.39724  -0.39289
 Alpha  occ. eigenvalues --   -0.39138  -0.39126  -0.39050  -0.38888  -0.38585
 Alpha  occ. eigenvalues --   -0.38213  -0.37387  -0.36702  -0.36472  -0.36383
 Alpha  occ. eigenvalues --   -0.36195  -0.35870  -0.35636  -0.33769  -0.32937
 Alpha  occ. eigenvalues --   -0.32701  -0.32612  -0.31600  -0.31430  -0.26156
 Alpha  occ. eigenvalues --   -0.23222
 Alpha virt. eigenvalues --   -0.06506  -0.01012   0.02202   0.03834   0.04565
 Alpha virt. eigenvalues --    0.06990   0.07301   0.08172   0.08455   0.09300
 Alpha virt. eigenvalues --    0.10367   0.11384   0.11416   0.11695   0.12671

 Mulliken charges:
               1
     1  Mg   0.955274
     2  C   -0.081144
     3  C   -0.065362
     4  C   -0.094655
     5  C   -0.082316
     6  N   -0.262165
     7  C    0.021782
     8  C   -0.062135
     9  C   -0.137806
    10  C    0.043055
    11  C    0.034552
    12  C    0.050347
    13  C   -0.012403
    14  C    0.207378
    15  O   -0.255799
    16  O   -0.352930
    17  N   -0.501520
    18  C    0.151630
    19  C   -0.104743
    20  C   -0.077180
    21  C    0.203597
    22  C    0.037755
    23  C    0.009648
    24  O   -0.222794
    25  C   -0.007475
    26  N   -0.246432
    27  C   -0.013884
    28  C   -0.091872
    29  C   -0.050036
    30  C   -0.001551
    31  C    0.005444
    32  C   -0.001860
    33  C   -0.038201
    34  N   -0.458121
    35  C    0.153850
    36  C   -0.189373
    37  C   -0.081373
    38  C    0.171861
    39  C    0.076876
    40  C    0.165297
    41  O   -0.191914
    42  C   -0.099609
    43  C    0.275169
    44  O   -0.254469
    45  O   -0.365129
    46  C    0.131526
    47  C    0.254571
    48  C   -0.133292
    49  C   -0.234811
    50  C    0.020014
    51  C    0.061120
    52  C   -0.017473
    53  C    0.009906
    54  C   -0.183512
    55  C   -0.001924
    56  C    0.026535
    57  C   -0.026805
    58  C    0.054267
    59  C   -0.227228
    60  C   -0.026995
    61  C    0.021567
    62  C   -0.031736
    63  C   -0.018526
    64  C   -0.188706
    65  C   -0.019836
    66  C   -0.021934
    67  H   -0.008217
    68  H   -0.017061
    69  H    0.012192
    70  H    0.026590
    71  H    0.037885
    72  H    0.038578
    73  H    0.037308
    74  H    0.042121
    75  H    0.044057
    76  H    0.038638
    77  H    0.061155
    78  H    0.032487
    79  H    0.040535
    80  H    0.041996
    81  H    0.057299
    82  H    0.064750
    83  H    0.057631
    84  H    0.061239
    85  H    0.035045
    86  H    0.034237
    87  H    0.025397
    88  H    0.039477
    89  H    0.038466
    90  H    0.025390
    91  H    0.037086
    92  H    0.042201
    93  H    0.029941
    94  H    0.034879
    95  H    0.055249
    96  H    0.059180
    97  H    0.027079
    98  H    0.089863
    99  H    0.066663
   100  H    0.056084
   101  H    0.043751
   102  H    0.060049
   103  H    0.079731
   104  H    0.016979
   105  H    0.029218
   106  H    0.041255
   107  H    0.035386
   108  H    0.031189
   109  H    0.028519
   110  H    0.016155
   111  H    0.040149
   112  H    0.006893
   113  H    0.004028
   114  H    0.015475
   115  H    0.030081
   116  H    0.015885
   117  H    0.017450
   118  H    0.010642
   119  H    0.009229
   120  H    0.017517
   121  H    0.025261
   122  H    0.009322
   123  H    0.014302
   124  H    0.015115
   125  H    0.022318
   126  H    0.024655
   127  H    0.029867
   128  H    0.030529
   129  H    0.014079
   130  H    0.014824
   131  H    0.013201
   132  H    0.020027
   133  H    0.021327
   134  H    0.023145
   135  H    0.039601
   136  H    0.031388
   137  H    0.039710
   138  H    0.023474
   139  H    0.018657
   140  H    0.048205
 Sum of Mulliken charges =  -0.00000

 Dipole moment (field-independent basis, Debye):
    X=              1.4020    Y=             -3.1316    Z=              1.0001  Tot=              3.5739
 Quadrupole moment (field-independent basis, Debye-Ang):
   XX=           -396.7953   YY=           -387.5792   ZZ=           -434.3360
   XY=             15.6660   XZ=              3.0109   YZ=            -36.8638

 Normal termination of Gaussian 16 at Wed May  4 05:17:14 2022.
