 Gaussian 16, Revision A.03,
 Gaussian 16:  ES64L-G16RevA.03 25-Dec-2016

 --------------------
 #p ZINDO=(nstates=5)
 --------------------

 -----------------------------
 step_1351_chromophore_8 ZINDO
 -----------------------------
 Symbolic Z-matrix:
 Charge =  0 Multiplicity = 1

                         Standard orientation:
 ---------------------------------------------------------------------
 Center     Atomic      Atomic             Coordinates (Angstroms)
 Number     Number       Type             X           Y           Z
 ---------------------------------------------------------------------
      1         12           0       -4.260274   -1.269381    0.073043
      2          6           0       -3.779837    2.086552    1.291206
      3          6           0       -4.052982    0.010399   -2.927673
      4          6           0       -3.857047   -4.435997   -0.973500
      5          6           0       -3.540701   -2.405591    3.451027
      6          7           0       -4.062558    0.858194   -0.690905
      7          6           0       -3.944100    2.057236   -0.146228
      8          6           0       -3.617350    3.203058   -1.148599
      9          6           0       -4.043429    2.494024   -2.461213
     10          6           0       -4.040877    1.001269   -1.987722
     11          6           0       -5.466714    2.778910   -2.904490
     12          6           0       -2.107447    3.711433   -1.159393
     13          6           0       -1.989649    5.190305   -1.420493
     14          6           0       -0.577018    5.651106   -1.861136
     15          8           0       -0.392749    6.244374   -2.913637
     16          8           0        0.352733    5.340192   -0.913660
     17          7           0       -3.948446   -2.137987   -1.744452
     18          6           0       -4.026352   -1.387368   -2.871084
     19          6           0       -3.897610   -2.360501   -3.985072
     20          6           0       -3.887250   -3.688675   -3.494315
     21          6           0       -3.900983   -3.488194   -2.008451
     22          6           0       -3.844289   -1.815994   -5.391352
     23          6           0       -3.864384   -4.896963   -4.349772
     24          8           0       -4.012818   -4.910787   -5.561918
     25          6           0       -3.614782   -6.213754   -3.659458
     26          7           0       -3.669834   -3.157461    1.114162
     27          6           0       -3.728700   -4.287900    0.461285
     28          6           0       -3.700081   -5.524256    1.442422
     29          6           0       -3.485244   -4.884014    2.756450
     30          6           0       -3.461390   -3.374570    2.389416
     31          6           0       -4.974974   -6.418695    1.291622
     32          6           0       -2.137107   -5.218125    3.286213
     33          6           0       -2.148103   -6.587010    4.053527
     34          7           0       -3.875912   -0.363568    1.983058
     35          6           0       -3.716025   -1.029254    3.258103
     36          6           0       -3.740286    0.030931    4.247742
     37          6           0       -3.776478    1.267766    3.532054
     38          6           0       -3.865296    0.975888    2.133412
     39          6           0       -3.726925   -0.154870    5.785225
     40          6           0       -3.739320    2.761938    3.666166
     41          8           0       -3.615349    3.496473    4.618761
     42          6           0       -3.523474    3.305142    2.194572
     43          6           0       -4.534716    4.379326    2.010312
     44          8           0       -5.759114    4.267246    2.086905
     45          8           0       -3.840607    5.539384    1.770693
     46          6           0       -4.627394    6.763042    1.516630
     47          6           0        1.720591    5.421752   -1.433456
     48          6           0        2.349373    4.145370   -0.969671
     49          6           0        3.669726    3.896419   -0.789885
     50          6           0        4.554563    5.121272   -0.947857
     51          6           0        4.316281    2.593650   -0.223993
     52          6           0        5.031247    1.786096   -1.344144
     53          6           0        4.403234    0.391156   -1.674599
     54          6           0        5.245573   -0.844482   -1.414930
     55          6           0        5.020123   -1.925494   -2.405002
     56          6           0        4.934813   -1.371260   -0.003357
     57          6           0        6.162855   -1.217643    0.974799
     58          6           0        7.269615   -2.310992    0.787779
     59          6           0        8.594864   -1.640426    0.314172
     60          6           0        9.076009   -1.987820   -1.149884
     61          6           0        9.795583   -1.859409    1.252791
     62          6           0       10.853470   -0.737050    1.060559
     63          6           0       12.253541   -1.362784    0.921268
     64          6           0       13.470393   -0.336814    0.897656
     65          6           0       14.659865   -0.839874    1.861553
     66          6           0       13.778782    0.165122   -0.586657
     67          1           0       -4.127671    0.374444   -3.954709
     68          1           0       -3.876959   -5.496197   -1.236257
     69          1           0       -3.491842   -2.756737    4.483669
     70          1           0       -4.259345    4.077765   -1.046282
     71          1           0       -3.381396    2.851655   -3.250425
     72          1           0       -6.095275    3.132392   -2.087425
     73          1           0       -5.880348    1.831419   -3.251551
     74          1           0       -5.536413    3.571259   -3.648932
     75          1           0       -1.536345    3.184384   -1.923902
     76          1           0       -1.824810    3.567393   -0.116568
     77          1           0       -2.388857    5.766727   -0.585847
     78          1           0       -2.656520    5.416842   -2.252108
     79          1           0       -2.827196   -1.443203   -5.510137
     80          1           0       -4.457873   -0.957373   -5.661765
     81          1           0       -3.981027   -2.411652   -6.293847
     82          1           0       -4.514579   -6.354325   -3.059719
     83          1           0       -2.750774   -5.965163   -3.044291
     84          1           0       -3.494205   -6.941978   -4.461994
     85          1           0       -2.883691   -6.166854    1.112990
     86          1           0       -4.395235   -5.061626    3.329881
     87          1           0       -5.638746   -6.373174    2.155744
     88          1           0       -4.698466   -7.467820    1.184886
     89          1           0       -5.651054   -6.164680    0.474225
     90          1           0       -1.851775   -4.414583    3.966240
     91          1           0       -1.406556   -5.176953    2.479117
     92          1           0       -1.474228   -7.223955    3.481322
     93          1           0       -3.126481   -7.035820    4.226637
     94          1           0       -1.838063   -6.588954    5.098305
     95          1           0       -4.738876   -0.067507    6.178953
     96          1           0       -3.165954    0.630302    6.292718
     97          1           0       -3.361275   -1.147444    6.048442
     98          1           0       -2.506296    3.678532    2.076584
     99          1           0       -4.826213    7.325039    2.429956
    100          1           0       -5.559731    6.642122    0.963401
    101          1           0       -4.073391    7.430155    0.856492
    102          1           0        2.101819    6.308180   -0.925224
    103          1           0        1.861516    5.543061   -2.506809
    104          1           0        1.779608    3.300832   -0.581292
    105          1           0        5.163179    4.878038   -1.819369
    106          1           0        5.246341    5.191542   -0.107339
    107          1           0        4.077430    6.072414   -1.184354
    108          1           0        3.569121    1.978721    0.276794
    109          1           0        5.076227    2.835016    0.518217
    110          1           0        6.049146    1.530862   -1.050801
    111          1           0        5.031414    2.296818   -2.307396
    112          1           0        4.135116    0.319128   -2.728476
    113          1           0        3.474440    0.310885   -1.109603
    114          1           0        6.295024   -0.564168   -1.501496
    115          1           0        5.938028   -2.506923   -2.493610
    116          1           0        4.700519   -1.727284   -3.428128
    117          1           0        4.159422   -2.540236   -2.140937
    118          1           0        4.643007   -2.420171   -0.044694
    119          1           0        4.009887   -0.938723    0.378875
    120          1           0        5.787649   -1.369916    1.987138
    121          1           0        6.564440   -0.205670    0.935526
    122          1           0        7.034034   -3.097779    0.069752
    123          1           0        7.450194   -2.898674    1.687947
    124          1           0        8.433823   -0.596416    0.044467
    125          1           0        8.416558   -2.590044   -1.774482
    126          1           0       10.002437   -2.562388   -1.132784
    127          1           0        9.188551   -1.021648   -1.642614
    128          1           0       10.039361   -2.921742    1.241114
    129          1           0        9.434720   -1.649709    2.260040
    130          1           0       10.672901   -0.042120    1.881975
    131          1           0       10.709085   -0.065902    0.213052
    132          1           0       12.105021   -1.914502   -0.006751
    133          1           0       12.400071   -2.075197    1.734282
    134          1           0       13.115119    0.573482    1.378468
    135          1           0       14.402626   -0.619352    2.897348
    136          1           0       15.555475   -0.267097    1.620319
    137          1           0       14.796582   -1.912417    1.725785
    138          1           0       13.550164   -0.754558   -1.125063
    139          1           0       14.835115    0.309010   -0.809945
    140          1           0       13.302953    1.073176   -0.957917
 ---------------------------------------------------------------------

 SCF Done:  E(RZINDO/S) =  -474.255025808     A.U. after   19 cycles

 Excitation energies and oscillator strengths:

 Excited State   1:      Singlet-A      1.3410 eV  924.56 nm  f=0.5013  <S**2>=0.000
     175 ->178        -0.22004
     176 ->177         0.65425
 This state for optimization and/or second-order correction.
 Total Energy, E(CIS/TDA) =  -474.205744728
 Copying the excited state density for this state as the 1-particle RhoCI density.

 Excited State   2:      Singlet-A      1.8898 eV  656.06 nm  f=0.0025  <S**2>=0.000
     175 ->177         0.47186
     176 ->178         0.50681

 Excited State   3:      Singlet-A      2.7796 eV  446.05 nm  f=0.0356  <S**2>=0.000
     176 ->179        -0.26666
     176 ->180         0.63902

 Excited State   4:      Singlet-A      2.9906 eV  414.58 nm  f=0.0278  <S**2>=0.000
     168 ->177        -0.24437
     168 ->178         0.11789
     168 ->179        -0.29843
     168 ->181         0.30104
     168 ->185         0.15554
     168 ->187        -0.14820
     168 ->194        -0.11214
     169 ->177        -0.15426
     169 ->179        -0.20061
     169 ->181         0.18237
     169 ->185         0.10806

 Excited State   5:      Singlet-A      3.0126 eV  411.56 nm  f=0.4051  <S**2>=0.000
     169 ->181        -0.11833
     170 ->177         0.22966
     170 ->179        -0.29307
     170 ->181        -0.24279
     170 ->185         0.22143
     175 ->177        -0.24073
     176 ->178         0.23559
     176 ->180        -0.10971

 The electronic state is 1-A.
 Alpha  occ. eigenvalues --   -1.84898  -1.84616  -1.79834  -1.74268  -1.72999
 Alpha  occ. eigenvalues --   -1.70410  -1.66452  -1.60458  -1.60429  -1.57603
 Alpha  occ. eigenvalues --   -1.53757  -1.50704  -1.49767  -1.48263  -1.47459
 Alpha  occ. eigenvalues --   -1.46403  -1.43896  -1.40005  -1.39276  -1.38160
 Alpha  occ. eigenvalues --   -1.36019  -1.33465  -1.32543  -1.31423  -1.28887
 Alpha  occ. eigenvalues --   -1.27471  -1.26847  -1.23787  -1.19806  -1.17782
 Alpha  occ. eigenvalues --   -1.17293  -1.16503  -1.14911  -1.14610  -1.14233
 Alpha  occ. eigenvalues --   -1.13725  -1.10175  -1.09808  -1.05423  -1.03524
 Alpha  occ. eigenvalues --   -1.02706  -1.00791  -0.98916  -0.98486  -0.97426
 Alpha  occ. eigenvalues --   -0.96568  -0.94421  -0.94246  -0.93927  -0.92725
 Alpha  occ. eigenvalues --   -0.91572  -0.91167  -0.90012  -0.89590  -0.87250
 Alpha  occ. eigenvalues --   -0.86416  -0.85627  -0.84108  -0.83447  -0.81139
 Alpha  occ. eigenvalues --   -0.80149  -0.79696  -0.77594  -0.76903  -0.76385
 Alpha  occ. eigenvalues --   -0.75602  -0.74764  -0.74449  -0.74116  -0.73609
 Alpha  occ. eigenvalues --   -0.73345  -0.73138  -0.72042  -0.71597  -0.71110
 Alpha  occ. eigenvalues --   -0.70474  -0.69667  -0.69570  -0.68837  -0.68146
 Alpha  occ. eigenvalues --   -0.67711  -0.67395  -0.66641  -0.66008  -0.65781
 Alpha  occ. eigenvalues --   -0.65685  -0.65234  -0.65074  -0.64230  -0.63976
 Alpha  occ. eigenvalues --   -0.63548  -0.63380  -0.62384  -0.61964  -0.61706
 Alpha  occ. eigenvalues --   -0.60894  -0.60635  -0.60630  -0.59966  -0.59929
 Alpha  occ. eigenvalues --   -0.59565  -0.59033  -0.58953  -0.58310  -0.57990
 Alpha  occ. eigenvalues --   -0.57727  -0.57246  -0.57089  -0.56772  -0.56525
 Alpha  occ. eigenvalues --   -0.56018  -0.55692  -0.55505  -0.55190  -0.54823
 Alpha  occ. eigenvalues --   -0.54567  -0.54098  -0.54011  -0.53356  -0.53150
 Alpha  occ. eigenvalues --   -0.52980  -0.52848  -0.52501  -0.52352  -0.51971
 Alpha  occ. eigenvalues --   -0.51462  -0.51412  -0.50995  -0.50642  -0.50327
 Alpha  occ. eigenvalues --   -0.50245  -0.50024  -0.49679  -0.49276  -0.49188
 Alpha  occ. eigenvalues --   -0.48991  -0.48952  -0.48739  -0.48298  -0.48150
 Alpha  occ. eigenvalues --   -0.47746  -0.47352  -0.47170  -0.46991  -0.46690
 Alpha  occ. eigenvalues --   -0.46314  -0.46066  -0.45606  -0.45585  -0.45469
 Alpha  occ. eigenvalues --   -0.45334  -0.45157  -0.45138  -0.44700  -0.44263
 Alpha  occ. eigenvalues --   -0.43626  -0.43211  -0.42948  -0.42300  -0.42239
 Alpha  occ. eigenvalues --   -0.41952  -0.41787  -0.41622  -0.39491  -0.39037
 Alpha  occ. eigenvalues --   -0.38550  -0.37127  -0.35624  -0.35506  -0.34833
 Alpha  occ. eigenvalues --   -0.33797  -0.32729  -0.32203  -0.32046  -0.26732
 Alpha  occ. eigenvalues --   -0.21985
 Alpha virt. eigenvalues --   -0.07883  -0.03312  -0.00809  -0.00091   0.01283
 Alpha virt. eigenvalues --    0.01618   0.02539   0.02733   0.04323   0.04446
 Alpha virt. eigenvalues --    0.05792   0.06638   0.07376   0.07799   0.08002

 Mulliken charges:
               1
     1  Mg   0.443675
     2  C   -0.047864
     3  C   -0.084900
     4  C   -0.092114
     5  C   -0.056915
     6  N   -0.254496
     7  C    0.107487
     8  C   -0.007583
     9  C   -0.004875
    10  C    0.165971
    11  C   -0.050174
    12  C   -0.022612
    13  C    0.001765
    14  C    0.467003
    15  O   -0.516859
    16  O   -0.262823
    17  N   -0.320415
    18  C    0.119821
    19  C    0.057860
    20  C   -0.047740
    21  C    0.121386
    22  C   -0.044314
    23  C    0.333608
    24  O   -0.526169
    25  C   -0.038611
    26  N   -0.228930
    27  C    0.127607
    28  C    0.007960
    29  C    0.010675
    30  C    0.083514
    31  C   -0.056967
    32  C   -0.017413
    33  C   -0.067610
    34  N   -0.344213
    35  C    0.066209
    36  C    0.025370
    37  C   -0.066516
    38  C    0.120826
    39  C   -0.041324
    40  C    0.334068
    41  O   -0.503979
    42  C    0.052677
    43  C    0.492174
    44  O   -0.526660
    45  O   -0.269543
    46  C    0.072350
    47  C    0.116346
    48  C   -0.095718
    49  C   -0.020276
    50  C   -0.050769
    51  C   -0.011255
    52  C   -0.035299
    53  C   -0.039391
    54  C    0.003366
    55  C   -0.054884
    56  C   -0.034922
    57  C   -0.033796
    58  C   -0.032332
    59  C   -0.028088
    60  C   -0.067695
    61  C   -0.031551
    62  C   -0.033437
    63  C   -0.035327
    64  C   -0.024585
    65  C   -0.054635
    66  C   -0.064697
    67  H    0.018346
    68  H    0.022439
    69  H    0.036411
    70  H    0.034333
    71  H    0.035483
    72  H    0.022565
    73  H    0.024924
    74  H    0.020327
    75  H    0.037849
    76  H    0.029247
    77  H    0.046935
    78  H    0.027120
    79  H    0.024324
    80  H    0.025271
    81  H    0.038790
    82  H    0.044310
    83  H    0.042042
    84  H    0.048307
    85  H    0.027459
    86  H    0.041679
    87  H    0.017575
    88  H    0.017330
    89  H    0.023366
    90  H    0.015797
    91  H    0.029090
    92  H    0.019693
    93  H    0.021736
    94  H    0.019813
    95  H    0.032613
    96  H    0.035071
    97  H    0.020953
    98  H    0.059812
    99  H    0.047201
   100  H    0.045563
   101  H    0.023693
   102  H    0.045967
   103  H    0.066792
   104  H    0.028891
   105  H    0.017910
   106  H    0.026055
   107  H    0.031984
   108  H    0.027226
   109  H    0.023954
   110  H    0.020874
   111  H    0.025414
   112  H    0.011698
   113  H    0.016831
   114  H    0.021551
   115  H    0.014665
   116  H    0.012758
   117  H    0.012276
   118  H    0.013455
   119  H    0.017996
   120  H    0.007882
   121  H    0.027594
   122  H    0.019886
   123  H    0.018463
   124  H    0.024491
   125  H    0.015434
   126  H    0.016590
   127  H    0.016721
   128  H    0.034488
   129  H    0.002604
   130  H    0.015630
   131  H    0.018598
   132  H    0.024238
   133  H    0.017596
   134  H    0.010725
   135  H    0.022727
   136  H    0.019898
   137  H    0.025127
   138  H    0.018595
   139  H    0.013441
   140  H    0.034070
 Sum of Mulliken charges =  -0.00000

 Dipole moment (field-independent basis, Debye):
    X=              2.0751    Y=             -5.0099    Z=             -0.1520  Tot=              5.4248
 N-N= 4.458928411266D+03 E-N= 0.000000000000D+00  KE=-9.591247331271D+03
 Leave Link  601 at Wed May  4 05:30:28 2022, MaxMem=  6710886400 cpu:               0.8 elap:               0.0
 (Enter /sw/apps/gaussian-16.0/g16/l9999.exe)
 1\1\GINC-BP1-COMPUTE062\SP\RZINDO CIS\STO-3G\C55H74Mg1N4O6\OF15641\04-
 May-2022\0\\#p ZINDO=(nstates=5)\\step_1351_chromophore_8 ZINDO\\0,1\M
 g,0,44.113,2.663,46.827\C,0,42.157,5.684,46.67\C,0,41.276,1.058,46.581
 \C,0,45.991,-0.033,46.127\C,0,47.031,4.733,46.179\N,0,41.95,3.346,46.7
 62\C,0,41.319,4.508,46.764\C,0,39.79,4.424,46.482\C,0,39.578,2.918,46.
 789\C,0,41.053,2.401,46.691\C,0,39.133,2.615,48.208\C,0,39.326,4.848,4
 5.018\C,0,37.986,5.536,45.005\C,0,37.304,5.581,43.614\O,0,36.19,5.114,

 Normal termination of Gaussian 16 at Wed May  4 05:30:28 2022.
