 Gaussian 16, Revision A.03,
 Gaussian 16:  ES64L-G16RevA.03 25-Dec-2016

 ------------------------------
 #p blyp/Def2SVP td=(nstates=5)
 ------------------------------

 ---------------------------------------------------
 step_1051_chromophore_20 TDDFT with blyp functional
 ---------------------------------------------------
 Symbolic Z-matrix:
 Charge =  0 Multiplicity = 1

                         Standard orientation:
 ---------------------------------------------------------------------
 Center     Atomic      Atomic             Coordinates (Angstroms)
 Number     Number       Type             X           Y           Z
 ---------------------------------------------------------------------
      1         12           0        4.192081    1.201708   -0.530457
      2          6           0        3.692681   -2.335456   -1.184846
      3          6           0        1.646698    1.854664   -2.800578
      4          6           0        4.576518    4.216294    0.425657
      5          6           0        6.462826    0.046699    2.038392
      6          7           0        2.947600   -0.111430   -1.856321
      7          6           0        2.864867   -1.502067   -1.992035
      8          6           0        1.778350   -1.885838   -3.014859
      9          6           0        1.670964   -0.626594   -3.890588
     10          6           0        2.104059    0.441571   -2.784747
     11          6           0        2.528980   -0.582964   -5.186870
     12          6           0        0.445154   -2.434403   -2.397280
     13          6           0       -0.398929   -3.454951   -3.162705
     14          6           0       -1.325944   -4.392593   -2.378567
     15          8           0       -1.930665   -5.330749   -2.851377
     16          8           0       -1.491843   -4.104674   -1.030765
     17          7           0        3.260630    2.845275   -1.145493
     18          6           0        2.231276    2.992449   -2.026052
     19          6           0        1.705933    4.314120   -1.915516
     20          6           0        2.612056    5.100592   -1.067789
     21          6           0        3.562207    4.076187   -0.521967
     22          6           0        0.504190    4.763112   -2.617096
     23          6           0        2.435870    6.562744   -0.741835
     24          8           0        1.756235    7.322583   -1.323383
     25          6           0        3.397850    7.119738    0.390287
     26          7           0        5.252296    2.014910    1.168690
     27          6           0        5.261060    3.380444    1.254600
     28          6           0        6.220355    3.819394    2.404368
     29          6           0        6.742834    2.431020    2.980936
     30          6           0        6.117740    1.423664    2.015977
     31          6           0        7.346780    4.807770    1.954769
     32          6           0        6.344095    2.149668    4.450524
     33          6           0        7.537077    1.634265    5.337192
     34          7           0        4.975930   -0.717109    0.290077
     35          6           0        5.997449   -0.977789    1.200109
     36          6           0        6.246247   -2.326398    1.246490
     37          6           0        5.363496   -2.953224    0.399616
     38          6           0        4.618591   -1.929365   -0.242123
     39          6           0        7.178589   -2.971513    2.243080
     40          6           0        4.846040   -4.224186   -0.094647
     41          8           0        5.061404   -5.383016    0.240788
     42          6           0        3.765476   -3.866943   -1.185962
     43          6           0        2.476202   -4.606687   -0.735150
     44          8           0        1.792514   -4.428728    0.255284
     45          8           0        2.050867   -5.532561   -1.720137
     46          6           0        1.040784   -6.504992   -1.397795
     47          6           0       -2.303706   -4.922523   -0.137596
     48          6           0       -3.388631   -4.042024    0.468433
     49          6           0       -4.626027   -4.341851    0.896282
     50          6           0       -5.131705   -5.727452    1.026379
     51          6           0       -5.583911   -3.210168    1.229709
     52          6           0       -5.656697   -2.731928    2.728099
     53          6           0       -7.114100   -2.831411    3.312533
     54          6           0       -7.686534   -1.472242    3.929030
     55          6           0       -8.456267   -1.784746    5.264413
     56          6           0       -8.575155   -0.703527    2.974411
     57          6           0       -7.992756    0.655861    2.597948
     58          6           0       -6.916486    0.702683    1.500905
     59          6           0       -7.448694    1.374918    0.220295
     60          6           0       -7.538173    0.432891   -0.934547
     61          6           0       -6.680749    2.700352   -0.251147
     62          6           0       -7.583497    3.886752    0.010983
     63          6           0       -8.178124    4.517027   -1.244441
     64          6           0       -9.740092    4.833482   -1.124807
     65          6           0      -10.576859    3.886272   -2.064740
     66          6           0      -10.033426    6.324704   -1.386306
     67          1           0        0.896120    2.087741   -3.558120
     68          1           0        4.860006    5.219699    0.751237
     69          1           0        7.230080   -0.295007    2.736810
     70          1           0        2.154011   -2.700889   -3.633124
     71          1           0        0.612961   -0.399591   -4.021865
     72          1           0        3.194072   -1.441213   -5.276412
     73          1           0        3.103215    0.333245   -5.043916
     74          1           0        1.887701   -0.495836   -6.064382
     75          1           0       -0.172667   -1.547581   -2.256856
     76          1           0        0.700472   -2.736687   -1.382265
     77          1           0        0.268517   -4.189095   -3.612832
     78          1           0       -1.040671   -3.114021   -3.975522
     79          1           0        0.140943    5.716691   -2.233747
     80          1           0       -0.307828    4.044078   -2.514029
     81          1           0        0.756340    4.915538   -3.666827
     82          1           0        4.384017    7.229940   -0.060947
     83          1           0        3.348358    6.573137    1.331204
     84          1           0        3.034172    8.124936    0.604254
     85          1           0        5.490692    4.283178    3.068917
     86          1           0        7.805957    2.216408    2.874563
     87          1           0        7.226913    5.788175    2.417569
     88          1           0        7.278189    4.939976    0.875351
     89          1           0        8.374393    4.444502    1.939160
     90          1           0        5.577402    1.378603    4.381746
     91          1           0        5.833119    3.015960    4.869904
     92          1           0        7.444781    2.328760    6.171247
     93          1           0        8.505787    1.685950    4.841449
     94          1           0        7.283213    0.612780    5.621418
     95          1           0        6.991894   -4.043059    2.321522
     96          1           0        7.205774   -2.539635    3.242574
     97          1           0        8.206035   -2.947777    1.881962
     98          1           0        3.960954   -4.083968   -2.235506
     99          1           0        0.490565   -6.815690   -2.286569
    100          1           0        0.350114   -6.190118   -0.615608
    101          1           0        1.582152   -7.351532   -0.976274
    102          1           0       -1.679254   -5.244172    0.696060
    103          1           0       -2.849195   -5.755567   -0.580207
    104          1           0       -3.041015   -3.010282    0.412679
    105          1           0       -6.033606   -5.852502    0.426382
    106          1           0       -5.466070   -5.743584    2.064042
    107          1           0       -4.511511   -6.610350    0.870856
    108          1           0       -6.555663   -3.564623    0.888679
    109          1           0       -5.262797   -2.372384    0.609808
    110          1           0       -5.218458   -1.733825    2.756921
    111          1           0       -4.995010   -3.387170    3.295531
    112          1           0       -7.114280   -3.657549    4.023238
    113          1           0       -7.831214   -3.221323    2.589880
    114          1           0       -6.759930   -0.943340    4.153390
    115          1           0       -7.914787   -1.162413    5.976162
    116          1           0       -8.377517   -2.796126    5.665582
    117          1           0       -9.518188   -1.538156    5.256826
    118          1           0       -9.522260   -0.407896    3.425986
    119          1           0       -8.873150   -1.186385    2.044295
    120          1           0       -7.718719    1.272447    3.454078
    121          1           0       -8.898241    1.189111    2.306296
    122          1           0       -6.610620   -0.329714    1.333242
    123          1           0       -6.081187    1.282001    1.895294
    124          1           0       -8.478559    1.686104    0.393220
    125          1           0       -7.843618    0.879206   -1.881129
    126          1           0       -8.344198   -0.279410   -0.762294
    127          1           0       -6.608155   -0.116929   -1.081991
    128          1           0       -6.385128    2.773758   -1.298226
    129          1           0       -5.914088    2.993718    0.465856
    130          1           0       -6.958877    4.630759    0.506137
    131          1           0       -8.323235    3.723141    0.794694
    132          1           0       -7.972934    3.951025   -2.153533
    133          1           0       -7.636458    5.453104   -1.378284
    134          1           0      -10.155765    4.565526   -0.153708
    135          1           0      -10.876173    4.358469   -3.001247
    136          1           0      -11.423427    3.577405   -1.452593
    137          1           0      -10.079146    2.936633   -2.255859
    138          1           0       -9.164155    6.963986   -1.540974
    139          1           0      -10.570081    6.728826   -0.527917
    140          1           0      -10.680317    6.283018   -2.262678
 ---------------------------------------------------------------------

 SCF Done:  E(RB-LYP) =  -3007.35042417     A.U. after   21 cycles

 Excitation energies and oscillator strengths:

 Excited State   1:      Singlet-A      1.8069 eV  686.15 nm  f=0.2713  <S**2>=0.000
     245 -> 248       -0.21359
     246 -> 247        0.68197
     246 <- 247       -0.14501
 This state for optimization and/or second-order correction.
 Total Energy, E(TD-HF/TD-DFT) =  -3007.28402021
 Copying the excited state density for this state as the 1-particle RhoCI density.

 Excited State   2:      Singlet-A      1.9174 eV  646.61 nm  f=0.0003  <S**2>=0.000
     244 -> 247        0.70653

 Excited State   3:      Singlet-A      1.9320 eV  641.73 nm  f=0.0568  <S**2>=0.000
     243 -> 247        0.42272
     245 -> 247        0.51908
     246 -> 248        0.17540

 Excited State   4:      Singlet-A      1.9550 eV  634.18 nm  f=0.0017  <S**2>=0.000
     242 -> 247        0.70096

 Excited State   5:      Singlet-A      1.9921 eV  622.37 nm  f=0.0335  <S**2>=0.000
     243 -> 247        0.56059
     245 -> 247       -0.38809
     246 -> 248       -0.16033

 The electronic state is 1-A.
 Alpha  occ. eigenvalues --  -46.27911 -18.81079 -18.81021 -18.77109 -18.76374
 Alpha  occ. eigenvalues --  -18.76189 -18.76065 -14.04129 -14.03403 -14.01922
 Alpha  occ. eigenvalues --  -14.00477 -10.04396 -10.04100 -10.00296 -10.00141
 Alpha  occ. eigenvalues --   -9.97729  -9.97508  -9.97299  -9.97238  -9.96982
 Alpha  occ. eigenvalues --   -9.96800  -9.96493  -9.96376  -9.95165  -9.94887
 Alpha  occ. eigenvalues --   -9.94798  -9.94662  -9.94648  -9.94500  -9.94499
 Alpha  occ. eigenvalues --   -9.94396  -9.94169  -9.94127  -9.93805  -9.93236
 Alpha  occ. eigenvalues --   -9.93228  -9.93225  -9.93183  -9.93179  -9.93094
 Alpha  occ. eigenvalues --   -9.92976  -9.92957  -9.92578  -9.92290  -9.92079
 Alpha  occ. eigenvalues --   -9.92071  -9.91863  -9.91796  -9.91723  -9.91686
 Alpha  occ. eigenvalues --   -9.91607  -9.91505  -9.91404  -9.91269  -9.91128
 Alpha  occ. eigenvalues --   -9.90859  -9.90811  -9.90698  -9.90658  -9.90525
 Alpha  occ. eigenvalues --   -9.90479  -9.90451  -9.90429  -9.90402  -9.90179
 Alpha  occ. eigenvalues --   -9.89994  -2.92436  -1.72866  -1.72339  -1.72133
 Alpha  occ. eigenvalues --   -0.97041  -0.96682  -0.94592  -0.91538  -0.89337
 Alpha  occ. eigenvalues --   -0.89099  -0.86607  -0.85881  -0.85369  -0.84691
 Alpha  occ. eigenvalues --   -0.75640  -0.73253  -0.72948  -0.72814  -0.72638
 Alpha  occ. eigenvalues --   -0.72012  -0.71587  -0.70540  -0.70212  -0.70136
 Alpha  occ. eigenvalues --   -0.69662  -0.69269  -0.67783  -0.67641  -0.67154
 Alpha  occ. eigenvalues --   -0.66414  -0.65863  -0.65088  -0.64683  -0.64181
 Alpha  occ. eigenvalues --   -0.63974  -0.62981  -0.62207  -0.61510  -0.60460
 Alpha  occ. eigenvalues --   -0.60326  -0.60185  -0.59721  -0.59568  -0.58680
 Alpha  occ. eigenvalues --   -0.58426  -0.57494  -0.57113  -0.56276  -0.54920
 Alpha  occ. eigenvalues --   -0.54314  -0.53469  -0.53246  -0.52406  -0.51794
 Alpha  occ. eigenvalues --   -0.51292  -0.51014  -0.50856  -0.50373  -0.49800
 Alpha  occ. eigenvalues --   -0.49252  -0.49001  -0.48454  -0.48003  -0.46769
 Alpha  occ. eigenvalues --   -0.46197  -0.45933  -0.45596  -0.45139  -0.44437
 Alpha  occ. eigenvalues --   -0.43990  -0.43249  -0.43139  -0.42770  -0.42444
 Alpha  occ. eigenvalues --   -0.42002  -0.41508  -0.41432  -0.41070  -0.40491
 Alpha  occ. eigenvalues --   -0.40394  -0.40304  -0.39932  -0.39752  -0.39683
 Alpha  occ. eigenvalues --   -0.39503  -0.39462  -0.39256  -0.39105  -0.38792
 Alpha  occ. eigenvalues --   -0.38698  -0.38653  -0.38582  -0.38368  -0.38251
 Alpha  occ. eigenvalues --   -0.38156  -0.38086  -0.37883  -0.37470  -0.37393
 Alpha  occ. eigenvalues --   -0.37327  -0.37016  -0.36866  -0.36690  -0.36614
 Alpha  occ. eigenvalues --   -0.36438  -0.36349  -0.36062  -0.35662  -0.35520
 Alpha  occ. eigenvalues --   -0.35297  -0.35095  -0.34986  -0.34835  -0.34767
 Alpha  occ. eigenvalues --   -0.34538  -0.34295  -0.34125  -0.34087  -0.33998
 Alpha  occ. eigenvalues --   -0.33859  -0.33685  -0.33533  -0.33511  -0.33357
 Alpha  occ. eigenvalues --   -0.33310  -0.32967  -0.32725  -0.32522  -0.32342
 Alpha  occ. eigenvalues --   -0.32286  -0.31940  -0.31882  -0.31719  -0.31587
 Alpha  occ. eigenvalues --   -0.31434  -0.31154  -0.31050  -0.31028  -0.30724
 Alpha  occ. eigenvalues --   -0.30580  -0.30325  -0.30250  -0.30122  -0.29630
 Alpha  occ. eigenvalues --   -0.29508  -0.29422  -0.29186  -0.28908  -0.28754
 Alpha  occ. eigenvalues --   -0.28605  -0.28583  -0.28337  -0.27963  -0.27854
 Alpha  occ. eigenvalues --   -0.27564  -0.27219  -0.26865  -0.26726  -0.26637
 Alpha  occ. eigenvalues --   -0.26441  -0.25897  -0.25767  -0.24753  -0.24523
 Alpha  occ. eigenvalues --   -0.24291  -0.23884  -0.23809  -0.23586  -0.23404
 Alpha  occ. eigenvalues --   -0.23199  -0.22629  -0.21923  -0.21410  -0.20857
 Alpha  occ. eigenvalues --   -0.20430  -0.19361  -0.19294  -0.19167  -0.17646
 Alpha  occ. eigenvalues --   -0.16490
 Alpha virt. eigenvalues --   -0.12178  -0.07527  -0.06570  -0.04751  -0.03299
 Alpha virt. eigenvalues --   -0.02825  -0.02109  -0.01976  -0.00776  -0.00032
 Alpha virt. eigenvalues --    0.00586   0.01296   0.02296   0.02590   0.02939

 Mulliken charges:
               1
     1  Mg   0.685031
     2  C   -0.006842
     3  C   -0.035828
     4  C   -0.002048
     5  C   -0.069222
     6  N   -0.207461
     7  C   -0.075354
     8  C    0.010359
     9  C   -0.001765
    10  C   -0.010778
    11  C    0.169168
    12  C    0.139341
    13  C    0.135902
    14  C    0.053474
    15  O   -0.187232
    16  O   -0.284284
    17  N   -0.352557
    18  C    0.113099
    19  C   -0.155366
    20  C    0.026411
    21  C    0.174181
    22  C    0.182413
    23  C   -0.096043
    24  O   -0.103265
    25  C    0.087220
    26  N   -0.205508
    27  C   -0.086277
    28  C    0.068074
    29  C    0.009277
    30  C    0.010133
    31  C    0.137702
    32  C    0.075107
    33  C    0.067045
    34  N   -0.236318
    35  C    0.102416
    36  C   -0.172020
    37  C    0.127794
    38  C    0.053363
    39  C    0.167117
    40  C   -0.026748
    41  O   -0.130648
    42  C    0.067462
    43  C    0.123337
    44  O   -0.164462
    45  O   -0.306317
    46  C    0.211486
    47  C    0.337691
    48  C   -0.155547
    49  C   -0.132773
    50  C    0.152581
    51  C    0.102767
    52  C    0.080128
    53  C    0.081878
    54  C   -0.039333
    55  C    0.092288
    56  C    0.138397
    57  C   -0.004102
    58  C    0.161260
    59  C   -0.050262
    60  C    0.090033
    61  C    0.137434
    62  C    0.020936
    63  C    0.117609
    64  C   -0.116134
    65  C    0.082799
    66  C    0.116092
    67  H   -0.046385
    68  H   -0.076022
    69  H   -0.069095
    70  H   -0.048792
    71  H   -0.039854
    72  H    0.001074
    73  H   -0.004441
    74  H    0.003559
    75  H   -0.030890
    76  H    0.012109
    77  H   -0.000898
    78  H    0.013072
    79  H    0.000218
    80  H   -0.006507
    81  H    0.006555
    82  H    0.023502
    83  H    0.010898
    84  H   -0.021753
    85  H   -0.016745
    86  H   -0.024008
    87  H    0.004216
    88  H   -0.020311
    89  H   -0.010638
    90  H   -0.016683
    91  H   -0.021912
    92  H    0.001298
    93  H    0.002692
    94  H    0.006582
    95  H   -0.000449
    96  H    0.000651
    97  H   -0.013405
    98  H   -0.001800
    99  H    0.027975
   100  H    0.014147
   101  H    0.004801
   102  H    0.011508
   103  H    0.003861
   104  H   -0.039905
   105  H   -0.008483
   106  H   -0.013508
   107  H   -0.008904
   108  H   -0.029315
   109  H   -0.013657
   110  H   -0.013331
   111  H   -0.022631
   112  H   -0.042417
   113  H   -0.039098
   114  H   -0.023684
   115  H   -0.017124
   116  H   -0.018876
   117  H   -0.009706
   118  H   -0.041790
   119  H   -0.032527
   120  H   -0.042768
   121  H   -0.048963
   122  H   -0.024539
   123  H   -0.037542
   124  H   -0.026082
   125  H   -0.023499
   126  H   -0.034358
   127  H   -0.012496
   128  H   -0.028710
   129  H   -0.042553
   130  H   -0.051400
   131  H   -0.032101
   132  H   -0.031112
   133  H   -0.039648
   134  H   -0.028935
   135  H   -0.004362
   136  H   -0.022096
   137  H   -0.017518
   138  H   -0.009018
   139  H   -0.017061
   140  H   -0.022722
 Sum of Mulliken charges =  -0.00000

 Dipole moment (field-independent basis, Debye):
    X=              1.9254    Y=              2.7654    Z=              1.2878  Tot=              3.6073
 Quadrupole moment (field-independent basis, Debye-Ang):
   XX=           -370.0855   YY=           -449.2542   ZZ=           -389.6904
   XY=             29.2572   XZ=              1.1136   YZ=             10.9105

 Normal termination of Gaussian 16 at Tue May  3 23:15:52 2022.
