 Gaussian 16, Revision A.03,
 Gaussian 16:  ES64L-G16RevA.03 25-Dec-2016

 -----------------------------------
 #p cam-b3lyp/Def2SVP td=(nstates=5)
 -----------------------------------

 --------------------------------------------------------
 step_1051_chromophore_20 TDDFT with cam-b3lyp functional
 --------------------------------------------------------
 Symbolic Z-matrix:
 Charge =  0 Multiplicity = 1

                         Standard orientation:
 ---------------------------------------------------------------------
 Center     Atomic      Atomic             Coordinates (Angstroms)
 Number     Number       Type             X           Y           Z
 ---------------------------------------------------------------------
      1         12           0        4.192081    1.201708   -0.530457
      2          6           0        3.692681   -2.335456   -1.184846
      3          6           0        1.646698    1.854664   -2.800578
      4          6           0        4.576518    4.216294    0.425657
      5          6           0        6.462826    0.046699    2.038392
      6          7           0        2.947600   -0.111430   -1.856321
      7          6           0        2.864867   -1.502067   -1.992035
      8          6           0        1.778350   -1.885838   -3.014859
      9          6           0        1.670964   -0.626594   -3.890588
     10          6           0        2.104059    0.441571   -2.784747
     11          6           0        2.528980   -0.582964   -5.186870
     12          6           0        0.445154   -2.434403   -2.397280
     13          6           0       -0.398929   -3.454951   -3.162705
     14          6           0       -1.325944   -4.392593   -2.378567
     15          8           0       -1.930665   -5.330749   -2.851377
     16          8           0       -1.491843   -4.104674   -1.030765
     17          7           0        3.260630    2.845275   -1.145493
     18          6           0        2.231276    2.992449   -2.026052
     19          6           0        1.705933    4.314120   -1.915516
     20          6           0        2.612056    5.100592   -1.067789
     21          6           0        3.562207    4.076187   -0.521967
     22          6           0        0.504190    4.763112   -2.617096
     23          6           0        2.435870    6.562744   -0.741835
     24          8           0        1.756235    7.322583   -1.323383
     25          6           0        3.397850    7.119738    0.390287
     26          7           0        5.252296    2.014910    1.168690
     27          6           0        5.261060    3.380444    1.254600
     28          6           0        6.220355    3.819394    2.404368
     29          6           0        6.742834    2.431020    2.980936
     30          6           0        6.117740    1.423664    2.015977
     31          6           0        7.346780    4.807770    1.954769
     32          6           0        6.344095    2.149668    4.450524
     33          6           0        7.537077    1.634265    5.337192
     34          7           0        4.975930   -0.717109    0.290077
     35          6           0        5.997449   -0.977789    1.200109
     36          6           0        6.246247   -2.326398    1.246490
     37          6           0        5.363496   -2.953224    0.399616
     38          6           0        4.618591   -1.929365   -0.242123
     39          6           0        7.178589   -2.971513    2.243080
     40          6           0        4.846040   -4.224186   -0.094647
     41          8           0        5.061404   -5.383016    0.240788
     42          6           0        3.765476   -3.866943   -1.185962
     43          6           0        2.476202   -4.606687   -0.735150
     44          8           0        1.792514   -4.428728    0.255284
     45          8           0        2.050867   -5.532561   -1.720137
     46          6           0        1.040784   -6.504992   -1.397795
     47          6           0       -2.303706   -4.922523   -0.137596
     48          6           0       -3.388631   -4.042024    0.468433
     49          6           0       -4.626027   -4.341851    0.896282
     50          6           0       -5.131705   -5.727452    1.026379
     51          6           0       -5.583911   -3.210168    1.229709
     52          6           0       -5.656697   -2.731928    2.728099
     53          6           0       -7.114100   -2.831411    3.312533
     54          6           0       -7.686534   -1.472242    3.929030
     55          6           0       -8.456267   -1.784746    5.264413
     56          6           0       -8.575155   -0.703527    2.974411
     57          6           0       -7.992756    0.655861    2.597948
     58          6           0       -6.916486    0.702683    1.500905
     59          6           0       -7.448694    1.374918    0.220295
     60          6           0       -7.538173    0.432891   -0.934547
     61          6           0       -6.680749    2.700352   -0.251147
     62          6           0       -7.583497    3.886752    0.010983
     63          6           0       -8.178124    4.517027   -1.244441
     64          6           0       -9.740092    4.833482   -1.124807
     65          6           0      -10.576859    3.886272   -2.064740
     66          6           0      -10.033426    6.324704   -1.386306
     67          1           0        0.896120    2.087741   -3.558120
     68          1           0        4.860006    5.219699    0.751237
     69          1           0        7.230080   -0.295007    2.736810
     70          1           0        2.154011   -2.700889   -3.633124
     71          1           0        0.612961   -0.399591   -4.021865
     72          1           0        3.194072   -1.441213   -5.276412
     73          1           0        3.103215    0.333245   -5.043916
     74          1           0        1.887701   -0.495836   -6.064382
     75          1           0       -0.172667   -1.547581   -2.256856
     76          1           0        0.700472   -2.736687   -1.382265
     77          1           0        0.268517   -4.189095   -3.612832
     78          1           0       -1.040671   -3.114021   -3.975522
     79          1           0        0.140943    5.716691   -2.233747
     80          1           0       -0.307828    4.044078   -2.514029
     81          1           0        0.756340    4.915538   -3.666827
     82          1           0        4.384017    7.229940   -0.060947
     83          1           0        3.348358    6.573137    1.331204
     84          1           0        3.034172    8.124936    0.604254
     85          1           0        5.490692    4.283178    3.068917
     86          1           0        7.805957    2.216408    2.874563
     87          1           0        7.226913    5.788175    2.417569
     88          1           0        7.278189    4.939976    0.875351
     89          1           0        8.374393    4.444502    1.939160
     90          1           0        5.577402    1.378603    4.381746
     91          1           0        5.833119    3.015960    4.869904
     92          1           0        7.444781    2.328760    6.171247
     93          1           0        8.505787    1.685950    4.841449
     94          1           0        7.283213    0.612780    5.621418
     95          1           0        6.991894   -4.043059    2.321522
     96          1           0        7.205774   -2.539635    3.242574
     97          1           0        8.206035   -2.947777    1.881962
     98          1           0        3.960954   -4.083968   -2.235506
     99          1           0        0.490565   -6.815690   -2.286569
    100          1           0        0.350114   -6.190118   -0.615608
    101          1           0        1.582152   -7.351532   -0.976274
    102          1           0       -1.679254   -5.244172    0.696060
    103          1           0       -2.849195   -5.755567   -0.580207
    104          1           0       -3.041015   -3.010282    0.412679
    105          1           0       -6.033606   -5.852502    0.426382
    106          1           0       -5.466070   -5.743584    2.064042
    107          1           0       -4.511511   -6.610350    0.870856
    108          1           0       -6.555663   -3.564623    0.888679
    109          1           0       -5.262797   -2.372384    0.609808
    110          1           0       -5.218458   -1.733825    2.756921
    111          1           0       -4.995010   -3.387170    3.295531
    112          1           0       -7.114280   -3.657549    4.023238
    113          1           0       -7.831214   -3.221323    2.589880
    114          1           0       -6.759930   -0.943340    4.153390
    115          1           0       -7.914787   -1.162413    5.976162
    116          1           0       -8.377517   -2.796126    5.665582
    117          1           0       -9.518188   -1.538156    5.256826
    118          1           0       -9.522260   -0.407896    3.425986
    119          1           0       -8.873150   -1.186385    2.044295
    120          1           0       -7.718719    1.272447    3.454078
    121          1           0       -8.898241    1.189111    2.306296
    122          1           0       -6.610620   -0.329714    1.333242
    123          1           0       -6.081187    1.282001    1.895294
    124          1           0       -8.478559    1.686104    0.393220
    125          1           0       -7.843618    0.879206   -1.881129
    126          1           0       -8.344198   -0.279410   -0.762294
    127          1           0       -6.608155   -0.116929   -1.081991
    128          1           0       -6.385128    2.773758   -1.298226
    129          1           0       -5.914088    2.993718    0.465856
    130          1           0       -6.958877    4.630759    0.506137
    131          1           0       -8.323235    3.723141    0.794694
    132          1           0       -7.972934    3.951025   -2.153533
    133          1           0       -7.636458    5.453104   -1.378284
    134          1           0      -10.155765    4.565526   -0.153708
    135          1           0      -10.876173    4.358469   -3.001247
    136          1           0      -11.423427    3.577405   -1.452593
    137          1           0      -10.079146    2.936633   -2.255859
    138          1           0       -9.164155    6.963986   -1.540974
    139          1           0      -10.570081    6.728826   -0.527917
    140          1           0      -10.680317    6.283018   -2.262678
 ---------------------------------------------------------------------

 SCF Done:  E(RCAM-B3LYP) =  -3007.13662426     A.U. after   19 cycles

 Excitation energies and oscillator strengths:

 Excited State   1:      Singlet-A      1.6881 eV  734.45 nm  f=0.3558  <S**2>=0.000
     245 -> 248        0.19273
     246 -> 247        0.68237
     245 <- 248        0.11230
 This state for optimization and/or second-order correction.
 Total Energy, E(TD-HF/TD-DFT) =  -3007.07458709
 Copying the excited state density for this state as the 1-particle RhoCI density.

 Excited State   2:      Singlet-A      2.1560 eV  575.07 nm  f=0.1172  <S**2>=0.000
     245 -> 247        0.64295
     246 -> 248       -0.28101

 Excited State   3:      Singlet-A      3.2131 eV  385.87 nm  f=0.0024  <S**2>=0.000
     242 -> 247       -0.26023
     243 -> 247        0.63791

 Excited State   4:      Singlet-A      3.3511 eV  369.98 nm  f=0.0361  <S**2>=0.000
     242 -> 247        0.54768
     243 -> 247        0.27543
     246 -> 248        0.32096

 Excited State   5:      Singlet-A      3.4943 eV  354.82 nm  f=0.0058  <S**2>=0.000
     239 -> 247        0.32308
     239 -> 249        0.18919
     239 -> 250       -0.10066
     240 -> 247        0.48291
     240 -> 249        0.24000
     240 -> 250       -0.11909

 The electronic state is 1-A.
 Alpha  occ. eigenvalues --  -46.89512 -19.23906 -19.23859 -19.20313 -19.19644
 Alpha  occ. eigenvalues --  -19.19496 -19.19039 -14.43138 -14.42299 -14.40411
 Alpha  occ. eigenvalues --  -14.38913 -10.40024 -10.39444 -10.35853 -10.35225
 Alpha  occ. eigenvalues --  -10.32340 -10.32245 -10.31796 -10.31473 -10.31270
 Alpha  occ. eigenvalues --  -10.31207 -10.30650 -10.30425 -10.29394 -10.29197
 Alpha  occ. eigenvalues --  -10.29162 -10.28955 -10.28929 -10.28754 -10.28645
 Alpha  occ. eigenvalues --  -10.28560 -10.28417 -10.28267 -10.28096 -10.27672
 Alpha  occ. eigenvalues --  -10.27529 -10.27388 -10.27063 -10.27053 -10.26954
 Alpha  occ. eigenvalues --  -10.26914 -10.26721 -10.26230 -10.26117 -10.26088
 Alpha  occ. eigenvalues --  -10.25794 -10.25696 -10.25676 -10.25551 -10.25428
 Alpha  occ. eigenvalues --  -10.25384 -10.25354 -10.25202 -10.24961 -10.24816
 Alpha  occ. eigenvalues --  -10.24474 -10.24409 -10.24405 -10.24266 -10.24260
 Alpha  occ. eigenvalues --  -10.24146 -10.24058 -10.24039 -10.24002 -10.23729
 Alpha  occ. eigenvalues --  -10.23584  -3.17937  -1.92845  -1.92406  -1.92228
 Alpha  occ. eigenvalues --   -1.15483  -1.15252  -1.13043  -1.10163  -1.07255
 Alpha  occ. eigenvalues --   -1.06898  -1.04380  -1.03619  -1.03012  -1.02179
 Alpha  occ. eigenvalues --   -0.92911  -0.90079  -0.89760  -0.89566  -0.89420
 Alpha  occ. eigenvalues --   -0.88625  -0.88241  -0.87200  -0.86734  -0.86657
 Alpha  occ. eigenvalues --   -0.86144  -0.85701  -0.83992  -0.83849  -0.83353
 Alpha  occ. eigenvalues --   -0.82469  -0.81957  -0.80937  -0.80522  -0.80040
 Alpha  occ. eigenvalues --   -0.79793  -0.78677  -0.77739  -0.77114  -0.75871
 Alpha  occ. eigenvalues --   -0.75677  -0.75499  -0.75055  -0.74844  -0.73918
 Alpha  occ. eigenvalues --   -0.73537  -0.72469  -0.72052  -0.71131  -0.69512
 Alpha  occ. eigenvalues --   -0.69028  -0.67950  -0.67765  -0.66550  -0.66098
 Alpha  occ. eigenvalues --   -0.65501  -0.65236  -0.64857  -0.64393  -0.63841
 Alpha  occ. eigenvalues --   -0.63079  -0.62785  -0.62344  -0.61675  -0.60457
 Alpha  occ. eigenvalues --   -0.59866  -0.59358  -0.59065  -0.58550  -0.57952
 Alpha  occ. eigenvalues --   -0.57540  -0.56541  -0.56482  -0.55974  -0.55536
 Alpha  occ. eigenvalues --   -0.55119  -0.54420  -0.54207  -0.53856  -0.53423
 Alpha  occ. eigenvalues --   -0.53194  -0.52973  -0.52909  -0.52605  -0.52327
 Alpha  occ. eigenvalues --   -0.52255  -0.52222  -0.52040  -0.52009  -0.51476
 Alpha  occ. eigenvalues --   -0.51360  -0.51172  -0.50965  -0.50916  -0.50837
 Alpha  occ. eigenvalues --   -0.50615  -0.50369  -0.50349  -0.49838  -0.49683
 Alpha  occ. eigenvalues --   -0.49619  -0.49546  -0.49464  -0.49234  -0.49081
 Alpha  occ. eigenvalues --   -0.48634  -0.48591  -0.48459  -0.47704  -0.47552
 Alpha  occ. eigenvalues --   -0.47244  -0.47046  -0.46998  -0.46786  -0.46723
 Alpha  occ. eigenvalues --   -0.46364  -0.46096  -0.45990  -0.45928  -0.45816
 Alpha  occ. eigenvalues --   -0.45553  -0.45485  -0.45357  -0.45302  -0.45189
 Alpha  occ. eigenvalues --   -0.45086  -0.44661  -0.44566  -0.44287  -0.43946
 Alpha  occ. eigenvalues --   -0.43860  -0.43637  -0.43507  -0.43149  -0.43017
 Alpha  occ. eigenvalues --   -0.42923  -0.42637  -0.42473  -0.42398  -0.42158
 Alpha  occ. eigenvalues --   -0.42086  -0.41934  -0.41630  -0.41443  -0.41178
 Alpha  occ. eigenvalues --   -0.40845  -0.40691  -0.40593  -0.40151  -0.40087
 Alpha  occ. eigenvalues --   -0.39811  -0.39567  -0.39453  -0.38949  -0.38863
 Alpha  occ. eigenvalues --   -0.38563  -0.38071  -0.37746  -0.37508  -0.37495
 Alpha  occ. eigenvalues --   -0.37433  -0.36653  -0.36583  -0.35636  -0.35370
 Alpha  occ. eigenvalues --   -0.35133  -0.34806  -0.34669  -0.34330  -0.34049
 Alpha  occ. eigenvalues --   -0.33636  -0.33596  -0.33462  -0.31761  -0.31452
 Alpha  occ. eigenvalues --   -0.30976  -0.30141  -0.29707  -0.28865  -0.24398
 Alpha  occ. eigenvalues --   -0.21859
 Alpha virt. eigenvalues --   -0.09406  -0.02547  -0.00108   0.02179   0.02509
 Alpha virt. eigenvalues --    0.04424   0.04597   0.05886   0.06174   0.06745
 Alpha virt. eigenvalues --    0.07577   0.08077   0.08629   0.08698   0.09201

 Mulliken charges:
               1
     1  Mg   0.816286
     2  C   -0.037866
     3  C   -0.045894
     4  C   -0.037928
     5  C   -0.077953
     6  N   -0.272180
     7  C   -0.031111
     8  C   -0.034120
     9  C   -0.054555
    10  C    0.000966
    11  C    0.109380
    12  C    0.082579
    13  C    0.066001
    14  C    0.139413
    15  O   -0.228129
    16  O   -0.350584
    17  N   -0.441603
    18  C    0.123198
    19  C   -0.161091
    20  C   -0.038849
    21  C    0.201598
    22  C    0.118005
    23  C   -0.019210
    24  O   -0.144004
    25  C    0.005995
    26  N   -0.279287
    27  C   -0.050209
    28  C    0.009410
    29  C   -0.043136
    30  C    0.033579
    31  C    0.071948
    32  C    0.021156
    33  C    0.004351
    34  N   -0.320115
    35  C    0.111297
    36  C   -0.168347
    37  C    0.044189
    38  C    0.089354
    39  C    0.111581
    40  C    0.070712
    41  O   -0.167532
    42  C   -0.001139
    43  C    0.208461
    44  O   -0.198971
    45  O   -0.369981
    46  C    0.171871
    47  C    0.302888
    48  C   -0.168303
    49  C   -0.157992
    50  C    0.088891
    51  C    0.050508
    52  C    0.021808
    53  C    0.034709
    54  C   -0.100932
    55  C    0.036551
    56  C    0.083616
    57  C   -0.053733
    58  C    0.106259
    59  C   -0.105384
    60  C    0.039653
    61  C    0.076935
    62  C   -0.029231
    63  C    0.062225
    64  C   -0.174366
    65  C    0.028551
    66  C    0.057525
    67  H   -0.011098
    68  H   -0.040204
    69  H   -0.033196
    70  H   -0.012859
    71  H   -0.003306
    72  H    0.024934
    73  H    0.021601
    74  H    0.028310
    75  H    0.000702
    76  H    0.044040
    77  H    0.030239
    78  H    0.044326
    79  H    0.030819
    80  H    0.019549
    81  H    0.032778
    82  H    0.048994
    83  H    0.037709
    84  H    0.013808
    85  H    0.017563
    86  H    0.009717
    87  H    0.028232
    88  H    0.006189
    89  H    0.016315
    90  H    0.014566
    91  H    0.006455
    92  H    0.024675
    93  H    0.024272
    94  H    0.028336
    95  H    0.028860
    96  H    0.025332
    97  H    0.014896
    98  H    0.042036
    99  H    0.049045
   100  H    0.035909
   101  H    0.028983
   102  H    0.037463
   103  H    0.033237
   104  H   -0.005394
   105  H    0.016633
   106  H    0.008430
   107  H    0.016745
   108  H   -0.001979
   109  H    0.013468
   110  H    0.012827
   111  H    0.007334
   112  H   -0.012802
   113  H   -0.011544
   114  H    0.007765
   115  H    0.006445
   116  H    0.005480
   117  H    0.013173
   118  H   -0.010886
   119  H   -0.006015
   120  H   -0.013204
   121  H   -0.019873
   122  H   -0.003063
   123  H   -0.006518
   124  H    0.002724
   125  H   -0.001059
   126  H   -0.010385
   127  H    0.009729
   128  H    0.000604
   129  H   -0.011925
   130  H   -0.020233
   131  H   -0.006014
   132  H   -0.004593
   133  H   -0.009885
   134  H    0.001761
   135  H    0.017857
   136  H    0.001879
   137  H    0.003838
   138  H    0.014487
   139  H    0.006973
   140  H    0.000284
 Sum of Mulliken charges =  -0.00000

 Dipole moment (field-independent basis, Debye):
    X=              2.1563    Y=              2.9298    Z=              1.2744  Tot=              3.8545
 Quadrupole moment (field-independent basis, Debye-Ang):
   XX=           -367.4047   YY=           -447.4572   ZZ=           -388.5232
   XY=             29.6383   XZ=              2.1557   YZ=             12.1354

 Normal termination of Gaussian 16 at Tue May  3 22:00:17 2022.
