 Gaussian 16, Revision A.03,
 Gaussian 16:  ES64L-G16RevA.03 25-Dec-2016

 ---------------------------------
 #p PBE1PBE/Def2SVP td=(nstates=5)
 ---------------------------------

 ------------------------------------------------------
 step_1051_chromophore_20 TDDFT with PBE1PBE functional
 ------------------------------------------------------
 Symbolic Z-matrix:
 Charge =  0 Multiplicity = 1

                         Standard orientation:
 ---------------------------------------------------------------------
 Center     Atomic      Atomic             Coordinates (Angstroms)
 Number     Number       Type             X           Y           Z
 ---------------------------------------------------------------------
      1         12           0        4.192081    1.201708   -0.530457
      2          6           0        3.692681   -2.335456   -1.184846
      3          6           0        1.646698    1.854664   -2.800578
      4          6           0        4.576518    4.216294    0.425657
      5          6           0        6.462826    0.046699    2.038392
      6          7           0        2.947600   -0.111430   -1.856321
      7          6           0        2.864867   -1.502067   -1.992035
      8          6           0        1.778350   -1.885838   -3.014859
      9          6           0        1.670964   -0.626594   -3.890588
     10          6           0        2.104059    0.441571   -2.784747
     11          6           0        2.528980   -0.582964   -5.186870
     12          6           0        0.445154   -2.434403   -2.397280
     13          6           0       -0.398929   -3.454951   -3.162705
     14          6           0       -1.325944   -4.392593   -2.378567
     15          8           0       -1.930665   -5.330749   -2.851377
     16          8           0       -1.491843   -4.104674   -1.030765
     17          7           0        3.260630    2.845275   -1.145493
     18          6           0        2.231276    2.992449   -2.026052
     19          6           0        1.705933    4.314120   -1.915516
     20          6           0        2.612056    5.100592   -1.067789
     21          6           0        3.562207    4.076187   -0.521967
     22          6           0        0.504190    4.763112   -2.617096
     23          6           0        2.435870    6.562744   -0.741835
     24          8           0        1.756235    7.322583   -1.323383
     25          6           0        3.397850    7.119738    0.390287
     26          7           0        5.252296    2.014910    1.168690
     27          6           0        5.261060    3.380444    1.254600
     28          6           0        6.220355    3.819394    2.404368
     29          6           0        6.742834    2.431020    2.980936
     30          6           0        6.117740    1.423664    2.015977
     31          6           0        7.346780    4.807770    1.954769
     32          6           0        6.344095    2.149668    4.450524
     33          6           0        7.537077    1.634265    5.337192
     34          7           0        4.975930   -0.717109    0.290077
     35          6           0        5.997449   -0.977789    1.200109
     36          6           0        6.246247   -2.326398    1.246490
     37          6           0        5.363496   -2.953224    0.399616
     38          6           0        4.618591   -1.929365   -0.242123
     39          6           0        7.178589   -2.971513    2.243080
     40          6           0        4.846040   -4.224186   -0.094647
     41          8           0        5.061404   -5.383016    0.240788
     42          6           0        3.765476   -3.866943   -1.185962
     43          6           0        2.476202   -4.606687   -0.735150
     44          8           0        1.792514   -4.428728    0.255284
     45          8           0        2.050867   -5.532561   -1.720137
     46          6           0        1.040784   -6.504992   -1.397795
     47          6           0       -2.303706   -4.922523   -0.137596
     48          6           0       -3.388631   -4.042024    0.468433
     49          6           0       -4.626027   -4.341851    0.896282
     50          6           0       -5.131705   -5.727452    1.026379
     51          6           0       -5.583911   -3.210168    1.229709
     52          6           0       -5.656697   -2.731928    2.728099
     53          6           0       -7.114100   -2.831411    3.312533
     54          6           0       -7.686534   -1.472242    3.929030
     55          6           0       -8.456267   -1.784746    5.264413
     56          6           0       -8.575155   -0.703527    2.974411
     57          6           0       -7.992756    0.655861    2.597948
     58          6           0       -6.916486    0.702683    1.500905
     59          6           0       -7.448694    1.374918    0.220295
     60          6           0       -7.538173    0.432891   -0.934547
     61          6           0       -6.680749    2.700352   -0.251147
     62          6           0       -7.583497    3.886752    0.010983
     63          6           0       -8.178124    4.517027   -1.244441
     64          6           0       -9.740092    4.833482   -1.124807
     65          6           0      -10.576859    3.886272   -2.064740
     66          6           0      -10.033426    6.324704   -1.386306
     67          1           0        0.896120    2.087741   -3.558120
     68          1           0        4.860006    5.219699    0.751237
     69          1           0        7.230080   -0.295007    2.736810
     70          1           0        2.154011   -2.700889   -3.633124
     71          1           0        0.612961   -0.399591   -4.021865
     72          1           0        3.194072   -1.441213   -5.276412
     73          1           0        3.103215    0.333245   -5.043916
     74          1           0        1.887701   -0.495836   -6.064382
     75          1           0       -0.172667   -1.547581   -2.256856
     76          1           0        0.700472   -2.736687   -1.382265
     77          1           0        0.268517   -4.189095   -3.612832
     78          1           0       -1.040671   -3.114021   -3.975522
     79          1           0        0.140943    5.716691   -2.233747
     80          1           0       -0.307828    4.044078   -2.514029
     81          1           0        0.756340    4.915538   -3.666827
     82          1           0        4.384017    7.229940   -0.060947
     83          1           0        3.348358    6.573137    1.331204
     84          1           0        3.034172    8.124936    0.604254
     85          1           0        5.490692    4.283178    3.068917
     86          1           0        7.805957    2.216408    2.874563
     87          1           0        7.226913    5.788175    2.417569
     88          1           0        7.278189    4.939976    0.875351
     89          1           0        8.374393    4.444502    1.939160
     90          1           0        5.577402    1.378603    4.381746
     91          1           0        5.833119    3.015960    4.869904
     92          1           0        7.444781    2.328760    6.171247
     93          1           0        8.505787    1.685950    4.841449
     94          1           0        7.283213    0.612780    5.621418
     95          1           0        6.991894   -4.043059    2.321522
     96          1           0        7.205774   -2.539635    3.242574
     97          1           0        8.206035   -2.947777    1.881962
     98          1           0        3.960954   -4.083968   -2.235506
     99          1           0        0.490565   -6.815690   -2.286569
    100          1           0        0.350114   -6.190118   -0.615608
    101          1           0        1.582152   -7.351532   -0.976274
    102          1           0       -1.679254   -5.244172    0.696060
    103          1           0       -2.849195   -5.755567   -0.580207
    104          1           0       -3.041015   -3.010282    0.412679
    105          1           0       -6.033606   -5.852502    0.426382
    106          1           0       -5.466070   -5.743584    2.064042
    107          1           0       -4.511511   -6.610350    0.870856
    108          1           0       -6.555663   -3.564623    0.888679
    109          1           0       -5.262797   -2.372384    0.609808
    110          1           0       -5.218458   -1.733825    2.756921
    111          1           0       -4.995010   -3.387170    3.295531
    112          1           0       -7.114280   -3.657549    4.023238
    113          1           0       -7.831214   -3.221323    2.589880
    114          1           0       -6.759930   -0.943340    4.153390
    115          1           0       -7.914787   -1.162413    5.976162
    116          1           0       -8.377517   -2.796126    5.665582
    117          1           0       -9.518188   -1.538156    5.256826
    118          1           0       -9.522260   -0.407896    3.425986
    119          1           0       -8.873150   -1.186385    2.044295
    120          1           0       -7.718719    1.272447    3.454078
    121          1           0       -8.898241    1.189111    2.306296
    122          1           0       -6.610620   -0.329714    1.333242
    123          1           0       -6.081187    1.282001    1.895294
    124          1           0       -8.478559    1.686104    0.393220
    125          1           0       -7.843618    0.879206   -1.881129
    126          1           0       -8.344198   -0.279410   -0.762294
    127          1           0       -6.608155   -0.116929   -1.081991
    128          1           0       -6.385128    2.773758   -1.298226
    129          1           0       -5.914088    2.993718    0.465856
    130          1           0       -6.958877    4.630759    0.506137
    131          1           0       -8.323235    3.723141    0.794694
    132          1           0       -7.972934    3.951025   -2.153533
    133          1           0       -7.636458    5.453104   -1.378284
    134          1           0      -10.155765    4.565526   -0.153708
    135          1           0      -10.876173    4.358469   -3.001247
    136          1           0      -11.423427    3.577405   -1.452593
    137          1           0      -10.079146    2.936633   -2.255859
    138          1           0       -9.164155    6.963986   -1.540974
    139          1           0      -10.570081    6.728826   -0.527917
    140          1           0      -10.680317    6.283018   -2.262678
 ---------------------------------------------------------------------

 SCF Done:  E(RPBE1PBE) =  -3005.32503045     A.U. after   15 cycles

 Excitation energies and oscillator strengths:

 Excited State   1:      Singlet-A      1.8537 eV  668.85 nm  f=0.3424  <S**2>=0.000
     245 -> 248        0.18777
     246 -> 247        0.68913
     246 <- 247       -0.10339
 This state for optimization and/or second-order correction.
 Total Energy, E(TD-HF/TD-DFT) =  -3005.25690850
 Copying the excited state density for this state as the 1-particle RhoCI density.

 Excited State   2:      Singlet-A      2.1682 eV  571.83 nm  f=0.1128  <S**2>=0.000
     245 -> 247        0.65404
     246 -> 248       -0.25401

 Excited State   3:      Singlet-A      2.8918 eV  428.74 nm  f=0.0001  <S**2>=0.000
     243 -> 247        0.69103

 Excited State   4:      Singlet-A      2.9978 eV  413.59 nm  f=0.0000  <S**2>=0.000
     240 -> 247       -0.18518
     244 -> 247        0.66999

 Excited State   5:      Singlet-A      3.0023 eV  412.96 nm  f=0.0002  <S**2>=0.000
     240 -> 247        0.57557
     240 -> 249        0.14779
     242 -> 247        0.24698
     243 -> 247        0.10469
     244 -> 247        0.22439

 The electronic state is 1-A.
 Alpha  occ. eigenvalues --  -46.92896 -19.24544 -19.24538 -19.20463 -19.19758
 Alpha  occ. eigenvalues --  -19.19726 -19.19295 -14.42647 -14.41784 -14.40102
 Alpha  occ. eigenvalues --  -14.38574 -10.37029 -10.36467 -10.32908 -10.32405
 Alpha  occ. eigenvalues --  -10.30162 -10.29951 -10.29553 -10.29170 -10.28999
 Alpha  occ. eigenvalues --  -10.28610 -10.28428 -10.27622 -10.27037 -10.26945
 Alpha  occ. eigenvalues --  -10.26779 -10.26685 -10.26553 -10.26538 -10.26429
 Alpha  occ. eigenvalues --  -10.26311 -10.26002 -10.25936 -10.25891 -10.25376
 Alpha  occ. eigenvalues --  -10.25224 -10.24997 -10.24697 -10.24652 -10.24450
 Alpha  occ. eigenvalues --  -10.24368 -10.24364 -10.23736 -10.23680 -10.23512
 Alpha  occ. eigenvalues --  -10.23494 -10.23308 -10.23254 -10.23065 -10.22960
 Alpha  occ. eigenvalues --  -10.22829 -10.22804 -10.22777 -10.22657 -10.22419
 Alpha  occ. eigenvalues --  -10.22010 -10.21958 -10.21953 -10.21718 -10.21682
 Alpha  occ. eigenvalues --  -10.21677 -10.21626 -10.21608 -10.21393 -10.21121
 Alpha  occ. eigenvalues --  -10.21087  -3.14907  -1.87756  -1.87294  -1.87120
 Alpha  occ. eigenvalues --   -1.10265  -1.09960  -1.07868  -1.04805  -1.02046
 Alpha  occ. eigenvalues --   -1.01760  -0.98960  -0.98204  -0.97634  -0.96862
 Alpha  occ. eigenvalues --   -0.87203  -0.84189  -0.83924  -0.83885  -0.83578
 Alpha  occ. eigenvalues --   -0.82914  -0.82351  -0.81502  -0.81061  -0.80773
 Alpha  occ. eigenvalues --   -0.80445  -0.79957  -0.78192  -0.78078  -0.77627
 Alpha  occ. eigenvalues --   -0.76650  -0.76205  -0.75143  -0.74795  -0.74273
 Alpha  occ. eigenvalues --   -0.73991  -0.72906  -0.72041  -0.71421  -0.70156
 Alpha  occ. eigenvalues --   -0.70026  -0.69671  -0.69151  -0.68975  -0.68097
 Alpha  occ. eigenvalues --   -0.67952  -0.66813  -0.66472  -0.65431  -0.63882
 Alpha  occ. eigenvalues --   -0.63453  -0.62277  -0.62189  -0.60943  -0.60332
 Alpha  occ. eigenvalues --   -0.59935  -0.59435  -0.59408  -0.58943  -0.57964
 Alpha  occ. eigenvalues --   -0.57384  -0.57132  -0.56550  -0.56224  -0.54992
 Alpha  occ. eigenvalues --   -0.54325  -0.54038  -0.53481  -0.53112  -0.52517
 Alpha  occ. eigenvalues --   -0.51985  -0.51079  -0.50821  -0.50455  -0.50112
 Alpha  occ. eigenvalues --   -0.49694  -0.48901  -0.48662  -0.48317  -0.47977
 Alpha  occ. eigenvalues --   -0.47700  -0.47511  -0.47424  -0.47212  -0.46899
 Alpha  occ. eigenvalues --   -0.46763  -0.46697  -0.46534  -0.46499  -0.46056
 Alpha  occ. eigenvalues --   -0.45799  -0.45652  -0.45547  -0.45504  -0.45372
 Alpha  occ. eigenvalues --   -0.45253  -0.44971  -0.44925  -0.44431  -0.44253
 Alpha  occ. eigenvalues --   -0.44187  -0.44143  -0.44081  -0.43798  -0.43624
 Alpha  occ. eigenvalues --   -0.43272  -0.43166  -0.43133  -0.42345  -0.42221
 Alpha  occ. eigenvalues --   -0.41882  -0.41718  -0.41604  -0.41505  -0.41368
 Alpha  occ. eigenvalues --   -0.41110  -0.40836  -0.40709  -0.40633  -0.40513
 Alpha  occ. eigenvalues --   -0.40216  -0.40135  -0.39979  -0.39972  -0.39804
 Alpha  occ. eigenvalues --   -0.39791  -0.39314  -0.39208  -0.39061  -0.38754
 Alpha  occ. eigenvalues --   -0.38588  -0.38433  -0.38379  -0.37872  -0.37853
 Alpha  occ. eigenvalues --   -0.37747  -0.37467  -0.37296  -0.37128  -0.37025
 Alpha  occ. eigenvalues --   -0.36880  -0.36712  -0.36458  -0.36172  -0.35973
 Alpha  occ. eigenvalues --   -0.35640  -0.35551  -0.35339  -0.35017  -0.34887
 Alpha  occ. eigenvalues --   -0.34698  -0.34366  -0.34314  -0.33945  -0.33666
 Alpha  occ. eigenvalues --   -0.33375  -0.32890  -0.32740  -0.32568  -0.32270
 Alpha  occ. eigenvalues --   -0.32213  -0.31729  -0.31376  -0.30572  -0.30237
 Alpha  occ. eigenvalues --   -0.29992  -0.29776  -0.29683  -0.29496  -0.28984
 Alpha  occ. eigenvalues --   -0.28859  -0.28499  -0.28418  -0.27311  -0.26321
 Alpha  occ. eigenvalues --   -0.25876  -0.25787  -0.25357  -0.24171  -0.21353
 Alpha  occ. eigenvalues --   -0.19485
 Alpha virt. eigenvalues --   -0.11834  -0.05991  -0.04314  -0.02176  -0.00487
 Alpha virt. eigenvalues --   -0.00153   0.00443   0.01310   0.02321   0.02907
 Alpha virt. eigenvalues --    0.03156   0.04380   0.05105   0.05510   0.05835

 Mulliken charges:
               1
     1  Mg   0.963639
     2  C   -0.051537
     3  C   -0.041086
     4  C   -0.053650
     5  C   -0.068929
     6  N   -0.364863
     7  C    0.043883
     8  C   -0.100743
     9  C   -0.129672
    10  C    0.033093
    11  C    0.051651
    12  C    0.033375
    13  C   -0.015157
    14  C    0.216747
    15  O   -0.263489
    16  O   -0.383989
    17  N   -0.557793
    18  C    0.156888
    19  C   -0.195847
    20  C   -0.072503
    21  C    0.228296
    22  C    0.056599
    23  C    0.034922
    24  O   -0.181482
    25  C   -0.075801
    26  N   -0.383572
    27  C   -0.002892
    28  C   -0.073499
    29  C   -0.115615
    30  C    0.070989
    31  C    0.014001
    32  C   -0.031870
    33  C   -0.070087
    34  N   -0.437713
    35  C    0.139209
    36  C   -0.195854
    37  C   -0.010961
    38  C    0.138778
    39  C    0.060989
    40  C    0.166679
    41  O   -0.213731
    42  C   -0.107211
    43  C    0.295173
    44  O   -0.234807
    45  O   -0.401866
    46  C    0.114845
    47  C    0.257373
    48  C   -0.168590
    49  C   -0.208650
    50  C    0.027181
    51  C   -0.012933
    52  C   -0.044023
    53  C   -0.009863
    54  C   -0.191392
    55  C   -0.020847
    56  C    0.027043
    57  C   -0.114107
    58  C    0.043330
    59  C   -0.190986
    60  C   -0.022828
    61  C    0.019248
    62  C   -0.090006
    63  C    0.008412
    64  C   -0.262116
    65  C   -0.033560
    66  C   -0.002768
    67  H    0.019011
    68  H   -0.005111
    69  H    0.000157
    70  H    0.026353
    71  H    0.033484
    72  H    0.051681
    73  H    0.050094
    74  H    0.055490
    75  H    0.034462
    76  H    0.078745
    77  H    0.062792
    78  H    0.074512
    79  H    0.059001
    80  H    0.047120
    81  H    0.061424
    82  H    0.076005
    83  H    0.064608
    84  H    0.043383
    85  H    0.054225
    86  H    0.046630
    87  H    0.055215
    88  H    0.033426
    89  H    0.043322
    90  H    0.048253
    91  H    0.038040
    92  H    0.052410
    93  H    0.050279
    94  H    0.055371
    95  H    0.056639
    96  H    0.050237
    97  H    0.043678
    98  H    0.077533
    99  H    0.070111
   100  H    0.061329
   101  H    0.052812
   102  H    0.064134
   103  H    0.059420
   104  H    0.024726
   105  H    0.044383
   106  H    0.038413
   107  H    0.042409
   108  H    0.030244
   109  H    0.044480
   110  H    0.042772
   111  H    0.041098
   112  H    0.018940
   113  H    0.019250
   114  H    0.045804
   115  H    0.034291
   116  H    0.032062
   117  H    0.039052
   118  H    0.022088
   119  H    0.026399
   120  H    0.019677
   121  H    0.012283
   122  H    0.041752
   123  H    0.025658
   124  H    0.041152
   125  H    0.027421
   126  H    0.018989
   127  H    0.038197
   128  H    0.031821
   129  H    0.021139
   130  H    0.013474
   131  H    0.025421
   132  H    0.025972
   133  H    0.023039
   134  H    0.038358
   135  H    0.043840
   136  H    0.029868
   137  H    0.033002
   138  H    0.040569
   139  H    0.034639
   140  H    0.027583
 Sum of Mulliken charges =  -0.00000

 Dipole moment (field-independent basis, Debye):
    X=              2.0693    Y=              3.0641    Z=              1.3002  Tot=              3.9193
 Quadrupole moment (field-independent basis, Debye-Ang):
   XX=           -363.7993   YY=           -444.3474   ZZ=           -384.7453
   XY=             30.6177   XZ=              2.9984   YZ=             12.2003

 Normal termination of Gaussian 16 at Tue May  3 22:25:43 2022.
