 Gaussian 16, Revision A.03,
 Gaussian 16:  ES64L-G16RevA.03 25-Dec-2016

 --------------------------------
 #p wB97XD/Def2SVP td=(nstates=5)
 --------------------------------

 -----------------------------------------------------
 step_1051_chromophore_20 TDDFT with wB97XD functional
 -----------------------------------------------------
 Symbolic Z-matrix:
 Charge =  0 Multiplicity = 1

                         Standard orientation:
 ---------------------------------------------------------------------
 Center     Atomic      Atomic             Coordinates (Angstroms)
 Number     Number       Type             X           Y           Z
 ---------------------------------------------------------------------
      1         12           0        4.192081    1.201708   -0.530457
      2          6           0        3.692681   -2.335456   -1.184846
      3          6           0        1.646698    1.854664   -2.800578
      4          6           0        4.576518    4.216294    0.425657
      5          6           0        6.462826    0.046699    2.038392
      6          7           0        2.947600   -0.111430   -1.856321
      7          6           0        2.864867   -1.502067   -1.992035
      8          6           0        1.778350   -1.885838   -3.014859
      9          6           0        1.670964   -0.626594   -3.890588
     10          6           0        2.104059    0.441571   -2.784747
     11          6           0        2.528980   -0.582964   -5.186870
     12          6           0        0.445154   -2.434403   -2.397280
     13          6           0       -0.398929   -3.454951   -3.162705
     14          6           0       -1.325944   -4.392593   -2.378567
     15          8           0       -1.930665   -5.330749   -2.851377
     16          8           0       -1.491843   -4.104674   -1.030765
     17          7           0        3.260630    2.845275   -1.145493
     18          6           0        2.231276    2.992449   -2.026052
     19          6           0        1.705933    4.314120   -1.915516
     20          6           0        2.612056    5.100592   -1.067789
     21          6           0        3.562207    4.076187   -0.521967
     22          6           0        0.504190    4.763112   -2.617096
     23          6           0        2.435870    6.562744   -0.741835
     24          8           0        1.756235    7.322583   -1.323383
     25          6           0        3.397850    7.119738    0.390287
     26          7           0        5.252296    2.014910    1.168690
     27          6           0        5.261060    3.380444    1.254600
     28          6           0        6.220355    3.819394    2.404368
     29          6           0        6.742834    2.431020    2.980936
     30          6           0        6.117740    1.423664    2.015977
     31          6           0        7.346780    4.807770    1.954769
     32          6           0        6.344095    2.149668    4.450524
     33          6           0        7.537077    1.634265    5.337192
     34          7           0        4.975930   -0.717109    0.290077
     35          6           0        5.997449   -0.977789    1.200109
     36          6           0        6.246247   -2.326398    1.246490
     37          6           0        5.363496   -2.953224    0.399616
     38          6           0        4.618591   -1.929365   -0.242123
     39          6           0        7.178589   -2.971513    2.243080
     40          6           0        4.846040   -4.224186   -0.094647
     41          8           0        5.061404   -5.383016    0.240788
     42          6           0        3.765476   -3.866943   -1.185962
     43          6           0        2.476202   -4.606687   -0.735150
     44          8           0        1.792514   -4.428728    0.255284
     45          8           0        2.050867   -5.532561   -1.720137
     46          6           0        1.040784   -6.504992   -1.397795
     47          6           0       -2.303706   -4.922523   -0.137596
     48          6           0       -3.388631   -4.042024    0.468433
     49          6           0       -4.626027   -4.341851    0.896282
     50          6           0       -5.131705   -5.727452    1.026379
     51          6           0       -5.583911   -3.210168    1.229709
     52          6           0       -5.656697   -2.731928    2.728099
     53          6           0       -7.114100   -2.831411    3.312533
     54          6           0       -7.686534   -1.472242    3.929030
     55          6           0       -8.456267   -1.784746    5.264413
     56          6           0       -8.575155   -0.703527    2.974411
     57          6           0       -7.992756    0.655861    2.597948
     58          6           0       -6.916486    0.702683    1.500905
     59          6           0       -7.448694    1.374918    0.220295
     60          6           0       -7.538173    0.432891   -0.934547
     61          6           0       -6.680749    2.700352   -0.251147
     62          6           0       -7.583497    3.886752    0.010983
     63          6           0       -8.178124    4.517027   -1.244441
     64          6           0       -9.740092    4.833482   -1.124807
     65          6           0      -10.576859    3.886272   -2.064740
     66          6           0      -10.033426    6.324704   -1.386306
     67          1           0        0.896120    2.087741   -3.558120
     68          1           0        4.860006    5.219699    0.751237
     69          1           0        7.230080   -0.295007    2.736810
     70          1           0        2.154011   -2.700889   -3.633124
     71          1           0        0.612961   -0.399591   -4.021865
     72          1           0        3.194072   -1.441213   -5.276412
     73          1           0        3.103215    0.333245   -5.043916
     74          1           0        1.887701   -0.495836   -6.064382
     75          1           0       -0.172667   -1.547581   -2.256856
     76          1           0        0.700472   -2.736687   -1.382265
     77          1           0        0.268517   -4.189095   -3.612832
     78          1           0       -1.040671   -3.114021   -3.975522
     79          1           0        0.140943    5.716691   -2.233747
     80          1           0       -0.307828    4.044078   -2.514029
     81          1           0        0.756340    4.915538   -3.666827
     82          1           0        4.384017    7.229940   -0.060947
     83          1           0        3.348358    6.573137    1.331204
     84          1           0        3.034172    8.124936    0.604254
     85          1           0        5.490692    4.283178    3.068917
     86          1           0        7.805957    2.216408    2.874563
     87          1           0        7.226913    5.788175    2.417569
     88          1           0        7.278189    4.939976    0.875351
     89          1           0        8.374393    4.444502    1.939160
     90          1           0        5.577402    1.378603    4.381746
     91          1           0        5.833119    3.015960    4.869904
     92          1           0        7.444781    2.328760    6.171247
     93          1           0        8.505787    1.685950    4.841449
     94          1           0        7.283213    0.612780    5.621418
     95          1           0        6.991894   -4.043059    2.321522
     96          1           0        7.205774   -2.539635    3.242574
     97          1           0        8.206035   -2.947777    1.881962
     98          1           0        3.960954   -4.083968   -2.235506
     99          1           0        0.490565   -6.815690   -2.286569
    100          1           0        0.350114   -6.190118   -0.615608
    101          1           0        1.582152   -7.351532   -0.976274
    102          1           0       -1.679254   -5.244172    0.696060
    103          1           0       -2.849195   -5.755567   -0.580207
    104          1           0       -3.041015   -3.010282    0.412679
    105          1           0       -6.033606   -5.852502    0.426382
    106          1           0       -5.466070   -5.743584    2.064042
    107          1           0       -4.511511   -6.610350    0.870856
    108          1           0       -6.555663   -3.564623    0.888679
    109          1           0       -5.262797   -2.372384    0.609808
    110          1           0       -5.218458   -1.733825    2.756921
    111          1           0       -4.995010   -3.387170    3.295531
    112          1           0       -7.114280   -3.657549    4.023238
    113          1           0       -7.831214   -3.221323    2.589880
    114          1           0       -6.759930   -0.943340    4.153390
    115          1           0       -7.914787   -1.162413    5.976162
    116          1           0       -8.377517   -2.796126    5.665582
    117          1           0       -9.518188   -1.538156    5.256826
    118          1           0       -9.522260   -0.407896    3.425986
    119          1           0       -8.873150   -1.186385    2.044295
    120          1           0       -7.718719    1.272447    3.454078
    121          1           0       -8.898241    1.189111    2.306296
    122          1           0       -6.610620   -0.329714    1.333242
    123          1           0       -6.081187    1.282001    1.895294
    124          1           0       -8.478559    1.686104    0.393220
    125          1           0       -7.843618    0.879206   -1.881129
    126          1           0       -8.344198   -0.279410   -0.762294
    127          1           0       -6.608155   -0.116929   -1.081991
    128          1           0       -6.385128    2.773758   -1.298226
    129          1           0       -5.914088    2.993718    0.465856
    130          1           0       -6.958877    4.630759    0.506137
    131          1           0       -8.323235    3.723141    0.794694
    132          1           0       -7.972934    3.951025   -2.153533
    133          1           0       -7.636458    5.453104   -1.378284
    134          1           0      -10.155765    4.565526   -0.153708
    135          1           0      -10.876173    4.358469   -3.001247
    136          1           0      -11.423427    3.577405   -1.452593
    137          1           0      -10.079146    2.936633   -2.255859
    138          1           0       -9.164155    6.963986   -1.540974
    139          1           0      -10.570081    6.728826   -0.527917
    140          1           0      -10.680317    6.283018   -2.262678
 ---------------------------------------------------------------------

 SCF Done:  E(RwB97XD) =  -3007.83639069     A.U. after   19 cycles

 Excitation energies and oscillator strengths:

 Excited State   1:      Singlet-A      1.6273 eV  761.91 nm  f=0.3545  <S**2>=0.000
     245 -> 248        0.19858
     246 -> 247        0.68031
     245 <- 248        0.12218
 This state for optimization and/or second-order correction.
 Total Energy, E(TD-HF/TD-DFT) =  -3007.77658955
 Copying the excited state density for this state as the 1-particle RhoCI density.

 Excited State   2:      Singlet-A      2.0971 eV  591.22 nm  f=0.1138  <S**2>=0.000
     245 -> 247        0.64082
     246 -> 248       -0.28352
     246 <- 248       -0.10007

 Excited State   3:      Singlet-A      3.2296 eV  383.90 nm  f=0.0045  <S**2>=0.000
     242 -> 247       -0.32885
     243 -> 247        0.59413
     246 -> 248       -0.13202

 Excited State   4:      Singlet-A      3.3789 eV  366.94 nm  f=0.0602  <S**2>=0.000
     242 -> 247        0.48041
     243 -> 247        0.34540
     246 -> 248        0.35021

 Excited State   5:      Singlet-A      3.5178 eV  352.45 nm  f=0.0030  <S**2>=0.000
     239 -> 247        0.17319
     239 -> 249        0.12217
     240 -> 247        0.54387
     240 -> 249        0.30166
     240 -> 250        0.15984

 The electronic state is 1-A.
 Alpha  occ. eigenvalues --  -46.95842 -19.29158 -19.29072 -19.25251 -19.24720
 Alpha  occ. eigenvalues --  -19.24464 -19.23977 -14.47760 -14.46882 -14.45027
 Alpha  occ. eigenvalues --  -14.43544 -10.43923 -10.43264 -10.39902 -10.39158
 Alpha  occ. eigenvalues --  -10.36409 -10.36324 -10.35858 -10.35490 -10.35278
 Alpha  occ. eigenvalues --  -10.35091 -10.34690 -10.34200 -10.33460 -10.33256
 Alpha  occ. eigenvalues --  -10.33186 -10.33077 -10.32956 -10.32808 -10.32725
 Alpha  occ. eigenvalues --  -10.32691 -10.32378 -10.32347 -10.32150 -10.31795
 Alpha  occ. eigenvalues --  -10.31635 -10.31435 -10.31091 -10.31068 -10.30825
 Alpha  occ. eigenvalues --  -10.30767 -10.30655 -10.30066 -10.30062 -10.30026
 Alpha  occ. eigenvalues --  -10.29785 -10.29742 -10.29570 -10.29504 -10.29320
 Alpha  occ. eigenvalues --  -10.29245 -10.29243 -10.29144 -10.28938 -10.28764
 Alpha  occ. eigenvalues --  -10.28392 -10.28327 -10.28315 -10.28090 -10.28075
 Alpha  occ. eigenvalues --  -10.28065 -10.27965 -10.27962 -10.27801 -10.27531
 Alpha  occ. eigenvalues --  -10.27467  -3.21729  -1.95325  -1.94863  -1.94682
 Alpha  occ. eigenvalues --   -1.17637  -1.17418  -1.15236  -1.12427  -1.09472
 Alpha  occ. eigenvalues --   -1.09096  -1.06384  -1.05641  -1.05047  -1.04219
 Alpha  occ. eigenvalues --   -0.94911  -0.91855  -0.91581  -0.91484  -0.91232
 Alpha  occ. eigenvalues --   -0.90497  -0.90005  -0.89172  -0.88672  -0.88426
 Alpha  occ. eigenvalues --   -0.88069  -0.87608  -0.85834  -0.85730  -0.85276
 Alpha  occ. eigenvalues --   -0.84300  -0.83869  -0.82795  -0.82471  -0.81949
 Alpha  occ. eigenvalues --   -0.81655  -0.80582  -0.79662  -0.79052  -0.77827
 Alpha  occ. eigenvalues --   -0.77622  -0.77337  -0.76837  -0.76648  -0.75746
 Alpha  occ. eigenvalues --   -0.75530  -0.74407  -0.74029  -0.73047  -0.71440
 Alpha  occ. eigenvalues --   -0.71034  -0.69825  -0.69762  -0.68468  -0.67955
 Alpha  occ. eigenvalues --   -0.67469  -0.67063  -0.66875  -0.66412  -0.65635
 Alpha  occ. eigenvalues --   -0.64931  -0.64703  -0.64172  -0.63684  -0.62458
 Alpha  occ. eigenvalues --   -0.61828  -0.61373  -0.60979  -0.60530  -0.59959
 Alpha  occ. eigenvalues --   -0.59513  -0.58476  -0.58400  -0.57906  -0.57511
 Alpha  occ. eigenvalues --   -0.57087  -0.56342  -0.56094  -0.55747  -0.55362
 Alpha  occ. eigenvalues --   -0.55088  -0.54876  -0.54831  -0.54556  -0.54263
 Alpha  occ. eigenvalues --   -0.54174  -0.54078  -0.53945  -0.53891  -0.53438
 Alpha  occ. eigenvalues --   -0.53301  -0.53018  -0.52837  -0.52834  -0.52728
 Alpha  occ. eigenvalues --   -0.52535  -0.52329  -0.52263  -0.51775  -0.51640
 Alpha  occ. eigenvalues --   -0.51495  -0.51426  -0.51346  -0.51173  -0.50949
 Alpha  occ. eigenvalues --   -0.50535  -0.50476  -0.50371  -0.49605  -0.49465
 Alpha  occ. eigenvalues --   -0.49143  -0.48964  -0.48888  -0.48718  -0.48616
 Alpha  occ. eigenvalues --   -0.48297  -0.48028  -0.47929  -0.47859  -0.47721
 Alpha  occ. eigenvalues --   -0.47431  -0.47393  -0.47250  -0.47192  -0.47035
 Alpha  occ. eigenvalues --   -0.47009  -0.46563  -0.46484  -0.46269  -0.45927
 Alpha  occ. eigenvalues --   -0.45737  -0.45534  -0.45436  -0.45016  -0.44929
 Alpha  occ. eigenvalues --   -0.44860  -0.44554  -0.44391  -0.44267  -0.44128
 Alpha  occ. eigenvalues --   -0.43989  -0.43823  -0.43530  -0.43284  -0.43131
 Alpha  occ. eigenvalues --   -0.42715  -0.42596  -0.42430  -0.42048  -0.41959
 Alpha  occ. eigenvalues --   -0.41729  -0.41410  -0.41361  -0.40851  -0.40717
 Alpha  occ. eigenvalues --   -0.40416  -0.39916  -0.39685  -0.39646  -0.39328
 Alpha  occ. eigenvalues --   -0.39264  -0.38612  -0.38419  -0.37592  -0.37366
 Alpha  occ. eigenvalues --   -0.36958  -0.36776  -0.36600  -0.36336  -0.35877
 Alpha  occ. eigenvalues --   -0.35711  -0.35510  -0.35432  -0.33940  -0.33507
 Alpha  occ. eigenvalues --   -0.32915  -0.32325  -0.31899  -0.30877  -0.26315
 Alpha  occ. eigenvalues --   -0.23665
 Alpha virt. eigenvalues --   -0.07771  -0.00651   0.01955   0.04351   0.05482
 Alpha virt. eigenvalues --    0.06572   0.07007   0.08159   0.09023   0.09120
 Alpha virt. eigenvalues --    0.09846   0.11221   0.11786   0.12218   0.12599

 Mulliken charges:
               1
     1  Mg   0.954718
     2  C   -0.054303
     3  C   -0.055699
     4  C   -0.057052
     5  C   -0.087027
     6  N   -0.337128
     7  C    0.010894
     8  C   -0.074329
     9  C   -0.101677
    10  C    0.018517
    11  C    0.060193
    12  C    0.045116
    13  C    0.005970
    14  C    0.196716
    15  O   -0.258616
    16  O   -0.379273
    17  N   -0.527382
    18  C    0.142648
    19  C   -0.182157
    20  C   -0.074120
    21  C    0.222565
    22  C    0.068157
    23  C    0.029699
    24  O   -0.177424
    25  C   -0.058300
    26  N   -0.351599
    27  C   -0.017088
    28  C   -0.045437
    29  C   -0.090725
    30  C    0.061397
    31  C    0.023521
    32  C   -0.020898
    33  C   -0.053071
    34  N   -0.402787
    35  C    0.129385
    36  C   -0.185261
    37  C   -0.004422
    38  C    0.124150
    39  C    0.067300
    40  C    0.147529
    41  O   -0.203526
    42  C   -0.066321
    43  C    0.268014
    44  O   -0.226717
    45  O   -0.398342
    46  C    0.131383
    47  C    0.271443
    48  C   -0.181438
    49  C   -0.190144
    50  C    0.038791
    51  C    0.009547
    52  C   -0.028336
    53  C    0.002249
    54  C   -0.161601
    55  C   -0.007972
    56  C    0.042975
    57  C   -0.095341
    58  C    0.068765
    59  C   -0.157522
    60  C   -0.006211
    61  C    0.032118
    62  C   -0.069347
    63  C    0.021900
    64  C   -0.235511
    65  C   -0.019478
    66  C    0.010843
    67  H    0.015511
    68  H   -0.020390
    69  H   -0.007197
    70  H    0.012098
    71  H    0.023146
    72  H    0.046473
    73  H    0.042974
    74  H    0.051162
    75  H    0.026521
    76  H    0.066372
    77  H    0.054511
    78  H    0.070637
    79  H    0.054680
    80  H    0.041776
    81  H    0.056280
    82  H    0.070198
    83  H    0.058436
    84  H    0.040803
    85  H    0.043871
    86  H    0.033142
    87  H    0.050720
    88  H    0.026011
    89  H    0.038926
    90  H    0.038886
    91  H    0.030731
    92  H    0.046954
    93  H    0.044437
    94  H    0.049604
    95  H    0.053913
    96  H    0.046130
    97  H    0.039050
    98  H    0.072206
    99  H    0.067749
   100  H    0.051475
   101  H    0.050144
   102  H    0.060425
   103  H    0.052909
   104  H    0.021057
   105  H    0.039021
   106  H    0.029791
   107  H    0.038947
   108  H    0.019323
   109  H    0.036701
   110  H    0.035126
   111  H    0.032773
   112  H    0.010997
   113  H    0.008947
   114  H    0.031556
   115  H    0.028222
   116  H    0.026254
   117  H    0.033215
   118  H    0.013254
   119  H    0.016553
   120  H    0.012112
   121  H    0.002485
   122  H    0.011959
   123  H    0.018382
   124  H    0.022194
   125  H    0.020159
   126  H    0.011903
   127  H    0.031396
   128  H    0.023958
   129  H    0.012638
   130  H    0.006212
   131  H    0.012842
   132  H    0.015811
   133  H    0.014245
   134  H    0.026864
   135  H    0.037667
   136  H    0.023996
   137  H    0.025293
   138  H    0.034748
   139  H    0.029264
   140  H    0.019938
 Sum of Mulliken charges =  -0.00000

 Dipole moment (field-independent basis, Debye):
    X=              2.1733    Y=              2.9371    Z=              1.2993  Tot=              3.8779
 Quadrupole moment (field-independent basis, Debye-Ang):
   XX=           -363.0595   YY=           -443.4761   ZZ=           -384.6609
   XY=             29.6693   XZ=              2.8245   YZ=             12.2293

 Normal termination of Gaussian 16 at Tue May  3 22:58:30 2022.
