 Gaussian 16, Revision A.03,
 Gaussian 16:  ES64L-G16RevA.03 25-Dec-2016

 --------------------
 #p ZINDO=(nstates=5)
 --------------------

 ------------------------------
 step_1051_chromophore_20 ZINDO
 ------------------------------
 Symbolic Z-matrix:
 Charge =  0 Multiplicity = 1

                         Standard orientation:
 ---------------------------------------------------------------------
 Center     Atomic      Atomic             Coordinates (Angstroms)
 Number     Number       Type             X           Y           Z
 ---------------------------------------------------------------------
      1         12           0        4.192081    1.201708   -0.530457
      2          6           0        3.692681   -2.335456   -1.184846
      3          6           0        1.646698    1.854664   -2.800578
      4          6           0        4.576518    4.216294    0.425657
      5          6           0        6.462826    0.046699    2.038392
      6          7           0        2.947600   -0.111430   -1.856321
      7          6           0        2.864867   -1.502067   -1.992035
      8          6           0        1.778350   -1.885838   -3.014859
      9          6           0        1.670964   -0.626594   -3.890588
     10          6           0        2.104059    0.441571   -2.784747
     11          6           0        2.528980   -0.582964   -5.186870
     12          6           0        0.445154   -2.434403   -2.397280
     13          6           0       -0.398929   -3.454951   -3.162705
     14          6           0       -1.325944   -4.392593   -2.378567
     15          8           0       -1.930665   -5.330749   -2.851377
     16          8           0       -1.491843   -4.104674   -1.030765
     17          7           0        3.260630    2.845275   -1.145493
     18          6           0        2.231276    2.992449   -2.026052
     19          6           0        1.705933    4.314120   -1.915516
     20          6           0        2.612056    5.100592   -1.067789
     21          6           0        3.562207    4.076187   -0.521967
     22          6           0        0.504190    4.763112   -2.617096
     23          6           0        2.435870    6.562744   -0.741835
     24          8           0        1.756235    7.322583   -1.323383
     25          6           0        3.397850    7.119738    0.390287
     26          7           0        5.252296    2.014910    1.168690
     27          6           0        5.261060    3.380444    1.254600
     28          6           0        6.220355    3.819394    2.404368
     29          6           0        6.742834    2.431020    2.980936
     30          6           0        6.117740    1.423664    2.015977
     31          6           0        7.346780    4.807770    1.954769
     32          6           0        6.344095    2.149668    4.450524
     33          6           0        7.537077    1.634265    5.337192
     34          7           0        4.975930   -0.717109    0.290077
     35          6           0        5.997449   -0.977789    1.200109
     36          6           0        6.246247   -2.326398    1.246490
     37          6           0        5.363496   -2.953224    0.399616
     38          6           0        4.618591   -1.929365   -0.242123
     39          6           0        7.178589   -2.971513    2.243080
     40          6           0        4.846040   -4.224186   -0.094647
     41          8           0        5.061404   -5.383016    0.240788
     42          6           0        3.765476   -3.866943   -1.185962
     43          6           0        2.476202   -4.606687   -0.735150
     44          8           0        1.792514   -4.428728    0.255284
     45          8           0        2.050867   -5.532561   -1.720137
     46          6           0        1.040784   -6.504992   -1.397795
     47          6           0       -2.303706   -4.922523   -0.137596
     48          6           0       -3.388631   -4.042024    0.468433
     49          6           0       -4.626027   -4.341851    0.896282
     50          6           0       -5.131705   -5.727452    1.026379
     51          6           0       -5.583911   -3.210168    1.229709
     52          6           0       -5.656697   -2.731928    2.728099
     53          6           0       -7.114100   -2.831411    3.312533
     54          6           0       -7.686534   -1.472242    3.929030
     55          6           0       -8.456267   -1.784746    5.264413
     56          6           0       -8.575155   -0.703527    2.974411
     57          6           0       -7.992756    0.655861    2.597948
     58          6           0       -6.916486    0.702683    1.500905
     59          6           0       -7.448694    1.374918    0.220295
     60          6           0       -7.538173    0.432891   -0.934547
     61          6           0       -6.680749    2.700352   -0.251147
     62          6           0       -7.583497    3.886752    0.010983
     63          6           0       -8.178124    4.517027   -1.244441
     64          6           0       -9.740092    4.833482   -1.124807
     65          6           0      -10.576859    3.886272   -2.064740
     66          6           0      -10.033426    6.324704   -1.386306
     67          1           0        0.896120    2.087741   -3.558120
     68          1           0        4.860006    5.219699    0.751237
     69          1           0        7.230080   -0.295007    2.736810
     70          1           0        2.154011   -2.700889   -3.633124
     71          1           0        0.612961   -0.399591   -4.021865
     72          1           0        3.194072   -1.441213   -5.276412
     73          1           0        3.103215    0.333245   -5.043916
     74          1           0        1.887701   -0.495836   -6.064382
     75          1           0       -0.172667   -1.547581   -2.256856
     76          1           0        0.700472   -2.736687   -1.382265
     77          1           0        0.268517   -4.189095   -3.612832
     78          1           0       -1.040671   -3.114021   -3.975522
     79          1           0        0.140943    5.716691   -2.233747
     80          1           0       -0.307828    4.044078   -2.514029
     81          1           0        0.756340    4.915538   -3.666827
     82          1           0        4.384017    7.229940   -0.060947
     83          1           0        3.348358    6.573137    1.331204
     84          1           0        3.034172    8.124936    0.604254
     85          1           0        5.490692    4.283178    3.068917
     86          1           0        7.805957    2.216408    2.874563
     87          1           0        7.226913    5.788175    2.417569
     88          1           0        7.278189    4.939976    0.875351
     89          1           0        8.374393    4.444502    1.939160
     90          1           0        5.577402    1.378603    4.381746
     91          1           0        5.833119    3.015960    4.869904
     92          1           0        7.444781    2.328760    6.171247
     93          1           0        8.505787    1.685950    4.841449
     94          1           0        7.283213    0.612780    5.621418
     95          1           0        6.991894   -4.043059    2.321522
     96          1           0        7.205774   -2.539635    3.242574
     97          1           0        8.206035   -2.947777    1.881962
     98          1           0        3.960954   -4.083968   -2.235506
     99          1           0        0.490565   -6.815690   -2.286569
    100          1           0        0.350114   -6.190118   -0.615608
    101          1           0        1.582152   -7.351532   -0.976274
    102          1           0       -1.679254   -5.244172    0.696060
    103          1           0       -2.849195   -5.755567   -0.580207
    104          1           0       -3.041015   -3.010282    0.412679
    105          1           0       -6.033606   -5.852502    0.426382
    106          1           0       -5.466070   -5.743584    2.064042
    107          1           0       -4.511511   -6.610350    0.870856
    108          1           0       -6.555663   -3.564623    0.888679
    109          1           0       -5.262797   -2.372384    0.609808
    110          1           0       -5.218458   -1.733825    2.756921
    111          1           0       -4.995010   -3.387170    3.295531
    112          1           0       -7.114280   -3.657549    4.023238
    113          1           0       -7.831214   -3.221323    2.589880
    114          1           0       -6.759930   -0.943340    4.153390
    115          1           0       -7.914787   -1.162413    5.976162
    116          1           0       -8.377517   -2.796126    5.665582
    117          1           0       -9.518188   -1.538156    5.256826
    118          1           0       -9.522260   -0.407896    3.425986
    119          1           0       -8.873150   -1.186385    2.044295
    120          1           0       -7.718719    1.272447    3.454078
    121          1           0       -8.898241    1.189111    2.306296
    122          1           0       -6.610620   -0.329714    1.333242
    123          1           0       -6.081187    1.282001    1.895294
    124          1           0       -8.478559    1.686104    0.393220
    125          1           0       -7.843618    0.879206   -1.881129
    126          1           0       -8.344198   -0.279410   -0.762294
    127          1           0       -6.608155   -0.116929   -1.081991
    128          1           0       -6.385128    2.773758   -1.298226
    129          1           0       -5.914088    2.993718    0.465856
    130          1           0       -6.958877    4.630759    0.506137
    131          1           0       -8.323235    3.723141    0.794694
    132          1           0       -7.972934    3.951025   -2.153533
    133          1           0       -7.636458    5.453104   -1.378284
    134          1           0      -10.155765    4.565526   -0.153708
    135          1           0      -10.876173    4.358469   -3.001247
    136          1           0      -11.423427    3.577405   -1.452593
    137          1           0      -10.079146    2.936633   -2.255859
    138          1           0       -9.164155    6.963986   -1.540974
    139          1           0      -10.570081    6.728826   -0.527917
    140          1           0      -10.680317    6.283018   -2.262678
 ---------------------------------------------------------------------

 SCF Done:  E(RZINDO/S) =  -474.074965513     A.U. after   20 cycles

 Excitation energies and oscillator strengths:

 Excited State   1:      Singlet-A      1.2305 eV 1007.58 nm  f=0.5847  <S**2>=0.000
     175 ->178        -0.20373
     176 ->177         0.65895
 This state for optimization and/or second-order correction.
 Total Energy, E(CIS/TDA) =  -474.029744744
 Copying the excited state density for this state as the 1-particle RhoCI density.

 Excited State   2:      Singlet-A      1.8791 eV  659.82 nm  f=0.0404  <S**2>=0.000
     175 ->177         0.54266
     176 ->178         0.42914

 Excited State   3:      Singlet-A      2.9590 eV  419.00 nm  f=0.3746  <S**2>=0.000
     168 ->177        -0.22329
     168 ->178        -0.10295
     168 ->179        -0.25916
     168 ->180        -0.16690
     168 ->185        -0.14402
     171 ->177        -0.14368
     172 ->177         0.10749
     175 ->177        -0.23378
     176 ->178         0.33142
     176 ->179         0.23874

 Excited State   4:      Singlet-A      3.0110 eV  411.78 nm  f=0.6176  <S**2>=0.000
     168 ->177         0.25564
     168 ->178         0.10758
     168 ->179         0.28223
     168 ->180         0.18262
     168 ->185         0.14589
     175 ->177        -0.27639
     176 ->178         0.37066
     176 ->179         0.12097

 Excited State   5:      Singlet-A      3.0812 eV  402.39 nm  f=0.3072  <S**2>=0.000
     173 ->177         0.11777
     175 ->177         0.17184
     176 ->178        -0.18490
     176 ->179         0.58067
     176 ->180        -0.12650

 The electronic state is 1-A.
 Alpha  occ. eigenvalues --   -1.83952  -1.80145  -1.78328  -1.72095  -1.70651
 Alpha  occ. eigenvalues --   -1.69322  -1.65536  -1.60867  -1.59431  -1.58664
 Alpha  occ. eigenvalues --   -1.54000  -1.50330  -1.47895  -1.47703  -1.46307
 Alpha  occ. eigenvalues --   -1.44587  -1.43227  -1.40579  -1.38729  -1.37032
 Alpha  occ. eigenvalues --   -1.35488  -1.33931  -1.33092  -1.31082  -1.28383
 Alpha  occ. eigenvalues --   -1.28006  -1.25738  -1.22962  -1.19874  -1.17394
 Alpha  occ. eigenvalues --   -1.17168  -1.14829  -1.14621  -1.14245  -1.13385
 Alpha  occ. eigenvalues --   -1.12989  -1.10160  -1.08729  -1.05945  -1.03272
 Alpha  occ. eigenvalues --   -1.01979  -1.00782  -0.99179  -0.98355  -0.96530
 Alpha  occ. eigenvalues --   -0.95939  -0.94812  -0.94428  -0.92932  -0.92699
 Alpha  occ. eigenvalues --   -0.91894  -0.91169  -0.89071  -0.88121  -0.86067
 Alpha  occ. eigenvalues --   -0.85969  -0.84036  -0.83840  -0.82291  -0.79963
 Alpha  occ. eigenvalues --   -0.79579  -0.78952  -0.77363  -0.77038  -0.76370
 Alpha  occ. eigenvalues --   -0.74747  -0.74306  -0.73844  -0.73269  -0.72987
 Alpha  occ. eigenvalues --   -0.72489  -0.72080  -0.71918  -0.71599  -0.71211
 Alpha  occ. eigenvalues --   -0.70455  -0.69369  -0.69038  -0.68093  -0.67936
 Alpha  occ. eigenvalues --   -0.67442  -0.67214  -0.66040  -0.65632  -0.65015
 Alpha  occ. eigenvalues --   -0.64896  -0.64439  -0.64264  -0.63770  -0.63541
 Alpha  occ. eigenvalues --   -0.63111  -0.62976  -0.62855  -0.62484  -0.62262
 Alpha  occ. eigenvalues --   -0.62106  -0.61844  -0.60883  -0.60535  -0.59737
 Alpha  occ. eigenvalues --   -0.59489  -0.58876  -0.58563  -0.58233  -0.57975
 Alpha  occ. eigenvalues --   -0.57876  -0.57552  -0.57061  -0.56680  -0.56525
 Alpha  occ. eigenvalues --   -0.56302  -0.56068  -0.55481  -0.55238  -0.55166
 Alpha  occ. eigenvalues --   -0.54889  -0.54423  -0.53547  -0.53415  -0.53100
 Alpha  occ. eigenvalues --   -0.52547  -0.52379  -0.52271  -0.51988  -0.51609
 Alpha  occ. eigenvalues --   -0.51309  -0.50612  -0.50502  -0.50188  -0.49835
 Alpha  occ. eigenvalues --   -0.49622  -0.49536  -0.49242  -0.49047  -0.48774
 Alpha  occ. eigenvalues --   -0.48322  -0.48055  -0.47935  -0.47757  -0.47576
 Alpha  occ. eigenvalues --   -0.47338  -0.47043  -0.46968  -0.46774  -0.46650
 Alpha  occ. eigenvalues --   -0.46223  -0.45955  -0.45632  -0.45602  -0.45404
 Alpha  occ. eigenvalues --   -0.45346  -0.45014  -0.44906  -0.43887  -0.43616
 Alpha  occ. eigenvalues --   -0.43211  -0.42886  -0.42075  -0.42066  -0.41853
 Alpha  occ. eigenvalues --   -0.41166  -0.40821  -0.40322  -0.39363  -0.38554
 Alpha  occ. eigenvalues --   -0.38097  -0.37487  -0.35923  -0.35273  -0.35064
 Alpha  occ. eigenvalues --   -0.33561  -0.32645  -0.32252  -0.31069  -0.26876
 Alpha  occ. eigenvalues --   -0.22189
 Alpha virt. eigenvalues --   -0.08985  -0.02805  -0.00805   0.01393   0.02026
 Alpha virt. eigenvalues --    0.02441   0.02575   0.02993   0.04546   0.05671
 Alpha virt. eigenvalues --    0.05931   0.06466   0.06880   0.07295   0.07462

 Mulliken charges:
               1
     1  Mg   0.430678
     2  C   -0.039610
     3  C   -0.100619
     4  C   -0.063306
     5  C   -0.070777
     6  N   -0.280906
     7  C    0.122626
     8  C    0.013237
     9  C    0.002007
    10  C    0.117530
    11  C   -0.045126
    12  C   -0.020371
    13  C    0.014774
    14  C    0.470054
    15  O   -0.528618
    16  O   -0.279408
    17  N   -0.315595
    18  C    0.101635
    19  C    0.037936
    20  C   -0.076185
    21  C    0.115602
    22  C   -0.033952
    23  C    0.332066
    24  O   -0.491828
    25  C   -0.043943
    26  N   -0.270155
    27  C    0.120465
    28  C    0.003923
    29  C   -0.001353
    30  C    0.138979
    31  C   -0.057128
    32  C   -0.034804
    33  C   -0.062242
    34  N   -0.357929
    35  C    0.110743
    36  C    0.051971
    37  C   -0.041010
    38  C    0.120655
    39  C   -0.045374
    40  C    0.340155
    41  O   -0.506950
    42  C    0.053088
    43  C    0.481895
    44  O   -0.502873
    45  O   -0.293849
    46  C    0.077137
    47  C    0.108290
    48  C   -0.094544
    49  C   -0.002635
    50  C   -0.040513
    51  C   -0.025322
    52  C   -0.032528
    53  C   -0.044188
    54  C   -0.005252
    55  C   -0.063557
    56  C   -0.024050
    57  C   -0.042510
    58  C   -0.027247
    59  C   -0.007627
    60  C   -0.052047
    61  C   -0.047953
    62  C   -0.036926
    63  C   -0.035182
    64  C   -0.020978
    65  C   -0.063875
    66  C   -0.060338
    67  H    0.033480
    68  H    0.018846
    69  H    0.024799
    70  H    0.016414
    71  H    0.027268
    72  H    0.029145
    73  H    0.028186
    74  H    0.026629
    75  H    0.018362
    76  H    0.045689
    77  H    0.041404
    78  H    0.052639
    79  H    0.034066
    80  H    0.025507
    81  H    0.034996
    82  H    0.041798
    83  H    0.035840
    84  H    0.024878
    85  H    0.037484
    86  H    0.034608
    87  H    0.026974
    88  H    0.015481
    89  H    0.029264
    90  H    0.022160
    91  H    0.023423
    92  H    0.023688
    93  H    0.030257
    94  H    0.026847
    95  H    0.028688
    96  H    0.029920
    97  H    0.024591
    98  H    0.057732
    99  H    0.041727
   100  H    0.050800
   101  H    0.034301
   102  H    0.048477
   103  H    0.056642
   104  H    0.022293
   105  H    0.024004
   106  H    0.020582
   107  H    0.029152
   108  H    0.022903
   109  H    0.020314
   110  H    0.026328
   111  H    0.021430
   112  H    0.015155
   113  H    0.017610
   114  H    0.027391
   115  H    0.012600
   116  H    0.019733
   117  H    0.024233
   118  H    0.011872
   119  H    0.024140
   120  H    0.015678
   121  H    0.004168
   122  H    0.025988
   123  H    0.019277
   124  H    0.023145
   125  H    0.012807
   126  H    0.006422
   127  H    0.017886
   128  H    0.035636
   129  H    0.022467
   130  H    0.002230
   131  H    0.020475
   132  H    0.022762
   133  H    0.013399
   134  H    0.022968
   135  H    0.026878
   136  H    0.012703
   137  H    0.015550
   138  H    0.025181
   139  H    0.015397
   140  H    0.021967
 Sum of Mulliken charges =   0.00000

 Dipole moment (field-independent basis, Debye):
    X=              4.0935    Y=              3.2921    Z=              0.7561  Tot=              5.3072
 N-N= 4.484420954583D+03 E-N= 0.000000000000D+00  KE=-9.643209892668D+03
 Leave Link  601 at Tue May  3 23:16:01 2022, MaxMem=  6710886400 cpu:               0.7 elap:               0.0
 (Enter /sw/apps/gaussian-16.0/g16/l9999.exe)
 1\1\GINC-BP1-COMPUTE174\SP\RZINDO CIS\STO-3G\C55H74Mg1N4O6\OF15641\03-
 May-2022\0\\#p ZINDO=(nstates=5)\\step_1051_chromophore_20 ZINDO\\0,1\
 Mg,0,7.183,56.583,41.475\C,0,5.963,53.182,41.109\C,0,10.147,55.548,39.
 991\C,0,7.928,59.678,41.6\C,0,3.811,57.301,42.572\N,0,7.925,54.59,40.7
 62\C,0,7.313,53.334,40.678\C,0,8.265,52.306,40.037\C,0,9.654,52.903,40
 .317\C,0,9.224,54.441,40.35\C,0,10.393,52.422,41.598\C,0,7.941,51.935,
 38.548\C,0,8.271,50.542,38.009\C,0,7.473,49.996,36.818\O,0,7.54,48.862

 Normal termination of Gaussian 16 at Tue May  3 23:16:01 2022.
