 Gaussian 16, Revision A.03,
 Gaussian 16:  ES64L-G16RevA.03 25-Dec-2016

 ------------------------------
 #p blyp/Def2SVP td=(nstates=5)
 ------------------------------

 --------------------------------------------------
 step_1401_chromophore_7 TDDFT with blyp functional
 --------------------------------------------------
 Symbolic Z-matrix:
 Charge =  0 Multiplicity = 1

                         Standard orientation:
 ---------------------------------------------------------------------
 Center     Atomic      Atomic             Coordinates (Angstroms)
 Number     Number       Type             X           Y           Z
 ---------------------------------------------------------------------
      1         12           0        6.201716    0.548171    0.292501
      2          6           0        3.910870   -2.025913    0.422168
      3          6           0        4.221619    1.993087   -2.138611
      4          6           0        8.515647    3.042722   -0.083026
      5          6           0        8.452005   -1.183627    2.020380
      6          7           0        4.321218    0.014383   -0.703397
      7          6           0        3.483844   -1.044000   -0.396504
      8          6           0        2.127339   -1.073499   -1.152953
      9          6           0        2.259009    0.295091   -1.994436
     10          6           0        3.664073    0.834658   -1.568630
     11          6           0        2.020586    0.101006   -3.508726
     12          6           0        0.853890   -1.078588   -0.293595
     13          6           0       -0.473574   -0.933739   -1.065384
     14          6           0       -1.448901   -2.083549   -0.910397
     15          8           0       -1.430470   -3.153743   -1.499866
     16          8           0       -2.597798   -1.644773   -0.289740
     17          7           0        6.259976    2.302482   -0.788354
     18          6           0        5.390831    2.684831   -1.815668
     19          6           0        5.799147    3.984513   -2.382823
     20          6           0        6.975376    4.432648   -1.687339
     21          6           0        7.305861    3.199827   -0.782042
     22          6           0        5.070278    4.663667   -3.539113
     23          6           0        7.784311    5.744044   -1.868928
     24          8           0        8.827063    6.014458   -1.266509
     25          6           0        7.321184    6.730230   -2.833702
     26          7           0        8.252164    0.788714    0.790987
     27          6           0        8.900838    1.967121    0.719644
     28          6           0       10.161762    2.038003    1.579420
     29          6           0       10.108599    0.690898    2.376576
     30          6           0        8.824132    0.066004    1.753117
     31          6           0       11.440323    2.211903    0.581240
     32          6           0        9.931878    0.768583    3.945440
     33          6           0       10.473266   -0.326764    4.786808
     34          7           0        6.225342   -1.218971    1.088184
     35          6           0        7.226930   -1.812791    1.757554
     36          6           0        6.861956   -3.143476    2.140459
     37          6           0        5.523942   -3.274212    1.647402
     38          6           0        5.171315   -2.070560    1.034743
     39          6           0        7.712216   -4.117099    2.938198
     40          6           0        4.437963   -4.149759    1.588295
     41          8           0        4.221099   -5.273323    2.107341
     42          6           0        3.255172   -3.376056    0.846422
     43          6           0        2.850895   -4.215016   -0.320913
     44          8           0        3.490664   -4.454694   -1.342577
     45          8           0        1.599789   -4.671569   -0.054275
     46          6           0        0.930257   -5.508372   -1.151433
     47          6           0       -3.831788   -2.374578   -0.535450
     48          6           0       -4.802161   -1.410333   -1.204990
     49          6           0       -5.937377   -1.637132   -1.878268
     50          6           0       -6.531055   -3.039093   -2.161863
     51          6           0       -6.791676   -0.500804   -2.411484
     52          6           0       -8.110099   -0.232332   -1.610875
     53          6           0       -9.298896   -0.390811   -2.523048
     54          6           0      -10.442804   -1.394041   -2.093886
     55          6           0      -10.427805   -2.632922   -2.952819
     56          6           0      -11.833992   -0.720978   -2.204935
     57          6           0      -11.977454    0.138413   -0.904063
     58          6           0      -13.147786    1.200931   -1.009325
     59          6           0      -14.310727    0.870308    0.167699
     60          6           0      -15.587151    0.326000   -0.525403
     61          6           0      -14.659118    2.181556    0.928637
     62          6           0      -14.497990    1.982773    2.472745
     63          6           0      -13.831578    3.142160    3.202727
     64          6           0      -14.063281    2.993020    4.772293
     65          6           0      -14.988037    4.184266    5.325498
     66          6           0      -12.785635    3.012965    5.577372
     67          1           0        3.529375    2.448292   -2.849657
     68          1           0        9.215763    3.861674   -0.261289
     69          1           0        9.134112   -1.759654    2.648932
     70          1           0        2.126850   -1.958823   -1.789464
     71          1           0        1.613314    1.094933   -1.632221
     72          1           0        3.009520    0.066860   -3.966496
     73          1           0        1.454108    0.963338   -3.859659
     74          1           0        1.388777   -0.776099   -3.653981
     75          1           0        0.699153   -0.459997    0.590859
     76          1           0        0.926830   -2.031768    0.231489
     77          1           0       -0.357429   -0.686642   -2.120995
     78          1           0       -1.072323   -0.083111   -0.739293
     79          1           0        5.769781    4.956783   -4.322575
     80          1           0        4.580501    5.586211   -3.224813
     81          1           0        4.415845    3.877561   -3.915759
     82          1           0        7.893270    7.632350   -2.616285
     83          1           0        6.312097    6.910006   -2.463467
     84          1           0        7.427226    6.585296   -3.909078
     85          1           0        9.986142    2.906730    2.214094
     86          1           0       10.919601   -0.013242    2.188948
     87          1           0       11.038096    1.791899   -0.340235
     88          1           0       12.249476    1.552838    0.896397
     89          1           0       11.662722    3.258709    0.372617
     90          1           0        8.897779    0.718749    4.286576
     91          1           0       10.352088    1.632710    4.459134
     92          1           0        9.773400   -0.545904    5.593796
     93          1           0       11.384051   -0.065881    5.325855
     94          1           0       10.898240   -1.163348    4.231651
     95          1           0        8.587862   -3.739841    3.465191
     96          1           0        8.025167   -4.871311    2.215904
     97          1           0        7.113020   -4.684705    3.649702
     98          1           0        2.428118   -3.276471    1.548932
     99          1           0        1.680617   -6.183214   -1.563759
    100          1           0        0.506204   -4.947801   -1.984685
    101          1           0        0.251513   -6.308080   -0.853507
    102          1           0       -4.263412   -2.427815    0.464161
    103          1           0       -3.894486   -3.383616   -0.940682
    104          1           0       -4.509668   -0.362054   -1.140070
    105          1           0       -6.870712   -3.029038   -3.198655
    106          1           0       -7.385415   -3.235678   -1.513699
    107          1           0       -5.871188   -3.892337   -2.006045
    108          1           0       -6.909013   -0.643270   -3.485234
    109          1           0       -6.145508    0.375568   -2.455444
    110          1           0       -8.019809    0.767548   -1.188917
    111          1           0       -7.968960   -0.829556   -0.710269
    112          1           0       -9.078890   -0.652521   -3.558131
    113          1           0       -9.663814    0.635502   -2.558779
    114          1           0      -10.302698   -1.748749   -1.072420
    115          1           0      -10.901549   -2.526518   -3.928199
    116          1           0      -11.012334   -3.375043   -2.409249
    117          1           0       -9.486405   -3.122182   -3.203883
    118          1           0      -12.533599   -1.556774   -2.179082
    119          1           0      -11.892942   -0.070493   -3.077324
    120          1           0      -11.021599    0.617296   -0.691806
    121          1           0      -12.200175   -0.503965   -0.051146
    122          1           0      -13.584315    1.186679   -2.008251
    123          1           0      -12.698785    2.192155   -0.956540
    124          1           0      -13.953380    0.126963    0.880644
    125          1           0      -16.430548    0.181866    0.149958
    126          1           0      -15.329326   -0.682394   -0.849754
    127          1           0      -15.851109    0.925997   -1.395861
    128          1           0      -15.692553    2.511974    0.825040
    129          1           0      -13.978130    2.993216    0.672355
    130          1           0      -13.932456    1.064782    2.635851
    131          1           0      -15.513964    1.771093    2.807940
    132          1           0      -14.191835    4.063715    2.745569
    133          1           0      -12.760863    3.109102    3.001699
    134          1           0      -14.699495    2.121078    4.920513
    135          1           0      -14.427498    4.977926    5.820397
    136          1           0      -15.594926    3.716323    6.100017
    137          1           0      -15.661600    4.594808    4.573890
    138          1           0      -12.073642    2.268415    5.222035
    139          1           0      -13.071264    2.886210    6.621722
    140          1           0      -12.287841    3.962477    5.382626
 ---------------------------------------------------------------------

 SCF Done:  E(RB-LYP) =  -3007.35485127     A.U. after   20 cycles

 Excitation energies and oscillator strengths:

 Excited State   1:      Singlet-A      1.7185 eV  721.47 nm  f=0.0053  <S**2>=0.000
     244 -> 247        0.61747
     245 -> 247        0.34050
 This state for optimization and/or second-order correction.
 Total Energy, E(TD-HF/TD-DFT) =  -3007.29169813
 Copying the excited state density for this state as the 1-particle RhoCI density.

 Excited State   2:      Singlet-A      1.8066 eV  686.28 nm  f=0.3057  <S**2>=0.000
     245 -> 248       -0.14329
     245 -> 249        0.10211
     246 -> 247        0.68988
     246 <- 247       -0.14681

 Excited State   3:      Singlet-A      2.0734 eV  597.97 nm  f=0.0924  <S**2>=0.000
     244 -> 247       -0.32267
     245 -> 247        0.56443
     246 -> 248        0.20007
     246 -> 249       -0.14452

 Excited State   4:      Singlet-A      2.1592 eV  574.22 nm  f=0.0003  <S**2>=0.000
     243 -> 247        0.70386

 Excited State   5:      Singlet-A      2.4489 eV  506.29 nm  f=0.0002  <S**2>=0.000
     241 -> 247        0.70704

 The electronic state is 1-A.
 Alpha  occ. eigenvalues --  -46.25819 -18.82344 -18.81485 -18.76981 -18.76099
 Alpha  occ. eigenvalues --  -18.75530 -18.74506 -14.03309 -14.02876 -14.01783
 Alpha  occ. eigenvalues --  -14.00337 -10.04363 -10.02897 -10.00591  -9.98464
 Alpha  occ. eigenvalues --   -9.98278  -9.96785  -9.96735  -9.96493  -9.96323
 Alpha  occ. eigenvalues --   -9.96237  -9.95970  -9.95219  -9.94923  -9.94680
 Alpha  occ. eigenvalues --   -9.94631  -9.94483  -9.94314  -9.94305  -9.94075
 Alpha  occ. eigenvalues --   -9.94019  -9.93989  -9.93602  -9.93544  -9.93274
 Alpha  occ. eigenvalues --   -9.93209  -9.92887  -9.92880  -9.92835  -9.92791
 Alpha  occ. eigenvalues --   -9.92790  -9.92659  -9.92489  -9.92292  -9.92181
 Alpha  occ. eigenvalues --   -9.92167  -9.92106  -9.92000  -9.91966  -9.91887
 Alpha  occ. eigenvalues --   -9.91753  -9.91726  -9.91652  -9.91528  -9.91440
 Alpha  occ. eigenvalues --   -9.91419  -9.91339  -9.91333  -9.91000  -9.90985
 Alpha  occ. eigenvalues --   -9.90952  -9.90730  -9.90654  -9.90621  -9.90510
 Alpha  occ. eigenvalues --   -9.90469  -2.90862  -1.71260  -1.70756  -1.70585
 Alpha  occ. eigenvalues --   -0.98214  -0.96056  -0.91626  -0.89932  -0.88619
 Alpha  occ. eigenvalues --   -0.87986  -0.87483  -0.86399  -0.85383  -0.84197
 Alpha  occ. eigenvalues --   -0.75339  -0.73667  -0.73157  -0.72441  -0.72309
 Alpha  occ. eigenvalues --   -0.71830  -0.71814  -0.71173  -0.70540  -0.70071
 Alpha  occ. eigenvalues --   -0.69483  -0.69397  -0.68148  -0.67886  -0.67022
 Alpha  occ. eigenvalues --   -0.66584  -0.66363  -0.65661  -0.64961  -0.64578
 Alpha  occ. eigenvalues --   -0.64303  -0.62803  -0.62394  -0.61767  -0.60733
 Alpha  occ. eigenvalues --   -0.60353  -0.59923  -0.59611  -0.59152  -0.58792
 Alpha  occ. eigenvalues --   -0.58333  -0.57566  -0.56818  -0.56097  -0.54235
 Alpha  occ. eigenvalues --   -0.54167  -0.53478  -0.52869  -0.52236  -0.51981
 Alpha  occ. eigenvalues --   -0.51422  -0.50866  -0.50699  -0.50238  -0.50062
 Alpha  occ. eigenvalues --   -0.49996  -0.49565  -0.48891  -0.47795  -0.46472
 Alpha  occ. eigenvalues --   -0.46399  -0.45735  -0.45163  -0.45068  -0.44441
 Alpha  occ. eigenvalues --   -0.43998  -0.43231  -0.42852  -0.42416  -0.41892
 Alpha  occ. eigenvalues --   -0.41747  -0.41601  -0.41524  -0.41253  -0.41114
 Alpha  occ. eigenvalues --   -0.40837  -0.40395  -0.40246  -0.40167  -0.39858
 Alpha  occ. eigenvalues --   -0.39683  -0.39566  -0.39271  -0.39219  -0.38900
 Alpha  occ. eigenvalues --   -0.38804  -0.38522  -0.38295  -0.38198  -0.38012
 Alpha  occ. eigenvalues --   -0.37891  -0.37837  -0.37794  -0.37619  -0.37433
 Alpha  occ. eigenvalues --   -0.37277  -0.37110  -0.36796  -0.36664  -0.36569
 Alpha  occ. eigenvalues --   -0.36305  -0.36123  -0.35664  -0.35605  -0.35488
 Alpha  occ. eigenvalues --   -0.35104  -0.35008  -0.34911  -0.34846  -0.34784
 Alpha  occ. eigenvalues --   -0.34363  -0.34223  -0.33977  -0.33936  -0.33742
 Alpha  occ. eigenvalues --   -0.33674  -0.33488  -0.33385  -0.33337  -0.33153
 Alpha  occ. eigenvalues --   -0.32957  -0.32831  -0.32656  -0.32248  -0.32172
 Alpha  occ. eigenvalues --   -0.31837  -0.31649  -0.31619  -0.31443  -0.31357
 Alpha  occ. eigenvalues --   -0.31284  -0.30972  -0.30843  -0.30748  -0.30551
 Alpha  occ. eigenvalues --   -0.30405  -0.30138  -0.29934  -0.29883  -0.29832
 Alpha  occ. eigenvalues --   -0.29754  -0.29555  -0.29440  -0.29194  -0.28931
 Alpha  occ. eigenvalues --   -0.28702  -0.28253  -0.28002  -0.27828  -0.27583
 Alpha  occ. eigenvalues --   -0.27559  -0.27378  -0.27203  -0.27141  -0.26665
 Alpha  occ. eigenvalues --   -0.26483  -0.26457  -0.26078  -0.25751  -0.25447
 Alpha  occ. eigenvalues --   -0.24815  -0.24467  -0.24319  -0.23963  -0.23789
 Alpha  occ. eigenvalues --   -0.22853  -0.22352  -0.21853  -0.21136  -0.20819
 Alpha  occ. eigenvalues --   -0.20463  -0.20224  -0.19271  -0.17772  -0.17314
 Alpha  occ. eigenvalues --   -0.15773
 Alpha virt. eigenvalues --   -0.11464  -0.06932  -0.06115  -0.04566  -0.04049
 Alpha virt. eigenvalues --   -0.02130  -0.01565  -0.01436  -0.01177   0.00306
 Alpha virt. eigenvalues --    0.01777   0.01907   0.02313   0.02460   0.03354

 Mulliken charges:
               1
     1  Mg   0.724400
     2  C    0.036699
     3  C   -0.096390
     4  C   -0.055095
     5  C   -0.089921
     6  N   -0.213872
     7  C   -0.079885
     8  C    0.033141
     9  C   -0.010847
    10  C    0.001231
    11  C    0.134123
    12  C    0.095759
    13  C    0.120069
    14  C    0.087330
    15  O   -0.191003
    16  O   -0.273462
    17  N   -0.305346
    18  C    0.193750
    19  C   -0.162188
    20  C    0.004467
    21  C    0.091840
    22  C    0.175396
    23  C   -0.056451
    24  O   -0.168899
    25  C    0.133394
    26  N   -0.203095
    27  C    0.021083
    28  C    0.034984
    29  C    0.071585
    30  C    0.032895
    31  C    0.114770
    32  C    0.093612
    33  C    0.046597
    34  N   -0.299664
    35  C    0.119571
    36  C   -0.160566
    37  C    0.154703
    38  C    0.063411
    39  C    0.175655
    40  C   -0.091445
    41  O   -0.174949
    42  C    0.047157
    43  C    0.123619
    44  O   -0.193958
    45  O   -0.272736
    46  C    0.212392
    47  C    0.354642
    48  C   -0.127495
    49  C   -0.157008
    50  C    0.121871
    51  C    0.107097
    52  C    0.109769
    53  C    0.128114
    54  C   -0.062815
    55  C    0.099842
    56  C    0.106397
    57  C    0.032719
    58  C    0.101822
    59  C   -0.073096
    60  C    0.097559
    61  C    0.128356
    62  C   -0.012988
    63  C    0.119162
    64  C   -0.073243
    65  C    0.064892
    66  C    0.117576
    67  H   -0.066951
    68  H   -0.051374
    69  H   -0.080634
    70  H    0.012978
    71  H   -0.019345
    72  H    0.007031
    73  H   -0.013660
    74  H    0.014305
    75  H   -0.028032
    76  H   -0.004768
    77  H   -0.002060
    78  H   -0.014607
    79  H   -0.000105
    80  H    0.008881
    81  H   -0.005001
    82  H   -0.013160
    83  H   -0.002079
    84  H    0.031367
    85  H   -0.016323
    86  H   -0.023306
    87  H   -0.004963
    88  H   -0.001525
    89  H    0.024518
    90  H   -0.019755
    91  H   -0.021519
    92  H   -0.006719
    93  H   -0.028695
    94  H   -0.013470
    95  H   -0.007594
    96  H    0.003190
    97  H    0.002579
    98  H    0.009000
    99  H    0.000733
   100  H    0.033443
   101  H    0.010481
   102  H   -0.013608
   103  H    0.013387
   104  H   -0.043030
   105  H    0.002533
   106  H    0.005029
   107  H   -0.018878
   108  H   -0.028560
   109  H   -0.052690
   110  H   -0.032553
   111  H   -0.024435
   112  H   -0.029204
   113  H   -0.036908
   114  H   -0.040366
   115  H   -0.025054
   116  H   -0.024446
   117  H   -0.028211
   118  H   -0.032650
   119  H   -0.020846
   120  H   -0.030635
   121  H   -0.032542
   122  H   -0.032515
   123  H   -0.031652
   124  H   -0.017141
   125  H   -0.016064
   126  H   -0.026996
   127  H   -0.004625
   128  H   -0.032680
   129  H   -0.034174
   130  H   -0.031774
   131  H   -0.028156
   132  H   -0.029209
   133  H   -0.042952
   134  H   -0.027003
   135  H   -0.014996
   136  H   -0.021426
   137  H   -0.013568
   138  H   -0.018745
   139  H   -0.009192
   140  H   -0.013361
 Sum of Mulliken charges =  -0.00000

 Dipole moment (field-independent basis, Debye):
    X=             -3.1454    Y=              5.0527    Z=             -0.6677  Tot=              5.9891
 Quadrupole moment (field-independent basis, Debye-Ang):
   XX=           -382.4700   YY=           -437.3360   ZZ=           -394.3094
   XY=             14.6726   XZ=             15.1693   YZ=             -4.5077

 Normal termination of Gaussian 16 at Thu Apr 28 03:51:03 2022.
