 Gaussian 16, Revision A.03,
 Gaussian 16:  ES64L-G16RevA.03 25-Dec-2016

 -----------------------------------
 #p cam-b3lyp/Def2SVP td=(nstates=5)
 -----------------------------------

 -------------------------------------------------------
 step_1401_chromophore_7 TDDFT with cam-b3lyp functional
 -------------------------------------------------------
 Symbolic Z-matrix:
 Charge =  0 Multiplicity = 1

                         Standard orientation:
 ---------------------------------------------------------------------
 Center     Atomic      Atomic             Coordinates (Angstroms)
 Number     Number       Type             X           Y           Z
 ---------------------------------------------------------------------
      1         12           0        6.201716    0.548171    0.292501
      2          6           0        3.910870   -2.025913    0.422168
      3          6           0        4.221619    1.993087   -2.138611
      4          6           0        8.515647    3.042722   -0.083026
      5          6           0        8.452005   -1.183627    2.020380
      6          7           0        4.321218    0.014383   -0.703397
      7          6           0        3.483844   -1.044000   -0.396504
      8          6           0        2.127339   -1.073499   -1.152953
      9          6           0        2.259009    0.295091   -1.994436
     10          6           0        3.664073    0.834658   -1.568630
     11          6           0        2.020586    0.101006   -3.508726
     12          6           0        0.853890   -1.078588   -0.293595
     13          6           0       -0.473574   -0.933739   -1.065384
     14          6           0       -1.448901   -2.083549   -0.910397
     15          8           0       -1.430470   -3.153743   -1.499866
     16          8           0       -2.597798   -1.644773   -0.289740
     17          7           0        6.259976    2.302482   -0.788354
     18          6           0        5.390831    2.684831   -1.815668
     19          6           0        5.799147    3.984513   -2.382823
     20          6           0        6.975376    4.432648   -1.687339
     21          6           0        7.305861    3.199827   -0.782042
     22          6           0        5.070278    4.663667   -3.539113
     23          6           0        7.784311    5.744044   -1.868928
     24          8           0        8.827063    6.014458   -1.266509
     25          6           0        7.321184    6.730230   -2.833702
     26          7           0        8.252164    0.788714    0.790987
     27          6           0        8.900838    1.967121    0.719644
     28          6           0       10.161762    2.038003    1.579420
     29          6           0       10.108599    0.690898    2.376576
     30          6           0        8.824132    0.066004    1.753117
     31          6           0       11.440323    2.211903    0.581240
     32          6           0        9.931878    0.768583    3.945440
     33          6           0       10.473266   -0.326764    4.786808
     34          7           0        6.225342   -1.218971    1.088184
     35          6           0        7.226930   -1.812791    1.757554
     36          6           0        6.861956   -3.143476    2.140459
     37          6           0        5.523942   -3.274212    1.647402
     38          6           0        5.171315   -2.070560    1.034743
     39          6           0        7.712216   -4.117099    2.938198
     40          6           0        4.437963   -4.149759    1.588295
     41          8           0        4.221099   -5.273323    2.107341
     42          6           0        3.255172   -3.376056    0.846422
     43          6           0        2.850895   -4.215016   -0.320913
     44          8           0        3.490664   -4.454694   -1.342577
     45          8           0        1.599789   -4.671569   -0.054275
     46          6           0        0.930257   -5.508372   -1.151433
     47          6           0       -3.831788   -2.374578   -0.535450
     48          6           0       -4.802161   -1.410333   -1.204990
     49          6           0       -5.937377   -1.637132   -1.878268
     50          6           0       -6.531055   -3.039093   -2.161863
     51          6           0       -6.791676   -0.500804   -2.411484
     52          6           0       -8.110099   -0.232332   -1.610875
     53          6           0       -9.298896   -0.390811   -2.523048
     54          6           0      -10.442804   -1.394041   -2.093886
     55          6           0      -10.427805   -2.632922   -2.952819
     56          6           0      -11.833992   -0.720978   -2.204935
     57          6           0      -11.977454    0.138413   -0.904063
     58          6           0      -13.147786    1.200931   -1.009325
     59          6           0      -14.310727    0.870308    0.167699
     60          6           0      -15.587151    0.326000   -0.525403
     61          6           0      -14.659118    2.181556    0.928637
     62          6           0      -14.497990    1.982773    2.472745
     63          6           0      -13.831578    3.142160    3.202727
     64          6           0      -14.063281    2.993020    4.772293
     65          6           0      -14.988037    4.184266    5.325498
     66          6           0      -12.785635    3.012965    5.577372
     67          1           0        3.529375    2.448292   -2.849657
     68          1           0        9.215763    3.861674   -0.261289
     69          1           0        9.134112   -1.759654    2.648932
     70          1           0        2.126850   -1.958823   -1.789464
     71          1           0        1.613314    1.094933   -1.632221
     72          1           0        3.009520    0.066860   -3.966496
     73          1           0        1.454108    0.963338   -3.859659
     74          1           0        1.388777   -0.776099   -3.653981
     75          1           0        0.699153   -0.459997    0.590859
     76          1           0        0.926830   -2.031768    0.231489
     77          1           0       -0.357429   -0.686642   -2.120995
     78          1           0       -1.072323   -0.083111   -0.739293
     79          1           0        5.769781    4.956783   -4.322575
     80          1           0        4.580501    5.586211   -3.224813
     81          1           0        4.415845    3.877561   -3.915759
     82          1           0        7.893270    7.632350   -2.616285
     83          1           0        6.312097    6.910006   -2.463467
     84          1           0        7.427226    6.585296   -3.909078
     85          1           0        9.986142    2.906730    2.214094
     86          1           0       10.919601   -0.013242    2.188948
     87          1           0       11.038096    1.791899   -0.340235
     88          1           0       12.249476    1.552838    0.896397
     89          1           0       11.662722    3.258709    0.372617
     90          1           0        8.897779    0.718749    4.286576
     91          1           0       10.352088    1.632710    4.459134
     92          1           0        9.773400   -0.545904    5.593796
     93          1           0       11.384051   -0.065881    5.325855
     94          1           0       10.898240   -1.163348    4.231651
     95          1           0        8.587862   -3.739841    3.465191
     96          1           0        8.025167   -4.871311    2.215904
     97          1           0        7.113020   -4.684705    3.649702
     98          1           0        2.428118   -3.276471    1.548932
     99          1           0        1.680617   -6.183214   -1.563759
    100          1           0        0.506204   -4.947801   -1.984685
    101          1           0        0.251513   -6.308080   -0.853507
    102          1           0       -4.263412   -2.427815    0.464161
    103          1           0       -3.894486   -3.383616   -0.940682
    104          1           0       -4.509668   -0.362054   -1.140070
    105          1           0       -6.870712   -3.029038   -3.198655
    106          1           0       -7.385415   -3.235678   -1.513699
    107          1           0       -5.871188   -3.892337   -2.006045
    108          1           0       -6.909013   -0.643270   -3.485234
    109          1           0       -6.145508    0.375568   -2.455444
    110          1           0       -8.019809    0.767548   -1.188917
    111          1           0       -7.968960   -0.829556   -0.710269
    112          1           0       -9.078890   -0.652521   -3.558131
    113          1           0       -9.663814    0.635502   -2.558779
    114          1           0      -10.302698   -1.748749   -1.072420
    115          1           0      -10.901549   -2.526518   -3.928199
    116          1           0      -11.012334   -3.375043   -2.409249
    117          1           0       -9.486405   -3.122182   -3.203883
    118          1           0      -12.533599   -1.556774   -2.179082
    119          1           0      -11.892942   -0.070493   -3.077324
    120          1           0      -11.021599    0.617296   -0.691806
    121          1           0      -12.200175   -0.503965   -0.051146
    122          1           0      -13.584315    1.186679   -2.008251
    123          1           0      -12.698785    2.192155   -0.956540
    124          1           0      -13.953380    0.126963    0.880644
    125          1           0      -16.430548    0.181866    0.149958
    126          1           0      -15.329326   -0.682394   -0.849754
    127          1           0      -15.851109    0.925997   -1.395861
    128          1           0      -15.692553    2.511974    0.825040
    129          1           0      -13.978130    2.993216    0.672355
    130          1           0      -13.932456    1.064782    2.635851
    131          1           0      -15.513964    1.771093    2.807940
    132          1           0      -14.191835    4.063715    2.745569
    133          1           0      -12.760863    3.109102    3.001699
    134          1           0      -14.699495    2.121078    4.920513
    135          1           0      -14.427498    4.977926    5.820397
    136          1           0      -15.594926    3.716323    6.100017
    137          1           0      -15.661600    4.594808    4.573890
    138          1           0      -12.073642    2.268415    5.222035
    139          1           0      -13.071264    2.886210    6.621722
    140          1           0      -12.287841    3.962477    5.382626
 ---------------------------------------------------------------------

 SCF Done:  E(RCAM-B3LYP) =  -3007.14616674     A.U. after   17 cycles

 Excitation energies and oscillator strengths:

 Excited State   1:      Singlet-A      1.7943 eV  690.97 nm  f=0.3819  <S**2>=0.000
     245 -> 248       -0.15448
     246 -> 247        0.68916
 This state for optimization and/or second-order correction.
 Total Energy, E(TD-HF/TD-DFT) =  -3007.08022564
 Copying the excited state density for this state as the 1-particle RhoCI density.

 Excited State   2:      Singlet-A      2.3266 eV  532.90 nm  f=0.1289  <S**2>=0.000
     245 -> 247        0.63772
     246 -> 248        0.27403

 Excited State   3:      Singlet-A      3.4571 eV  358.64 nm  f=0.0138  <S**2>=0.000
     243 -> 247        0.52300
     243 -> 249       -0.27384
     243 -> 250        0.29003
     244 -> 247       -0.15653

 Excited State   4:      Singlet-A      3.5439 eV  349.85 nm  f=0.2162  <S**2>=0.000
     240 -> 247       -0.12271
     241 -> 247        0.38151
     243 -> 247       -0.15253
     244 -> 247       -0.35118
     245 -> 247        0.16004
     246 -> 248       -0.38277

 Excited State   5:      Singlet-A      3.5653 eV  347.75 nm  f=0.1178  <S**2>=0.000
     240 -> 247       -0.13299
     244 -> 247        0.54367
     245 -> 247        0.11842
     246 -> 248       -0.38182

 The electronic state is 1-A.
 Alpha  occ. eigenvalues --  -46.87219 -19.25161 -19.24289 -19.19998 -19.19945
 Alpha  occ. eigenvalues --  -19.18402 -19.16990 -14.42299 -14.41615 -14.40587
 Alpha  occ. eigenvalues --  -14.38329 -10.39676 -10.38149 -10.36421 -10.33301
 Alpha  occ. eigenvalues --  -10.32222 -10.31995 -10.31807 -10.31723 -10.31112
 Alpha  occ. eigenvalues --  -10.30454 -10.30345 -10.30052 -10.29311 -10.28991
 Alpha  occ. eigenvalues --  -10.28770 -10.28568 -10.28355 -10.28291 -10.28097
 Alpha  occ. eigenvalues --  -10.28039 -10.27977 -10.27728 -10.27451 -10.27365
 Alpha  occ. eigenvalues --  -10.27278 -10.26911 -10.26856 -10.26764 -10.26708
 Alpha  occ. eigenvalues --  -10.26652 -10.26647 -10.26505 -10.26085 -10.25979
 Alpha  occ. eigenvalues --  -10.25958 -10.25928 -10.25678 -10.25649 -10.25628
 Alpha  occ. eigenvalues --  -10.25450 -10.25444 -10.25252 -10.25086 -10.25082
 Alpha  occ. eigenvalues --  -10.25040 -10.24964 -10.24949 -10.24670 -10.24544
 Alpha  occ. eigenvalues --  -10.24539 -10.24349 -10.24267 -10.24237 -10.24177
 Alpha  occ. eigenvalues --  -10.23775  -3.16184  -1.91050  -1.90643  -1.90520
 Alpha  occ. eigenvalues --   -1.16650  -1.14404  -1.10620  -1.07783  -1.06329
 Alpha  occ. eigenvalues --   -1.05691  -1.05109  -1.03760  -1.03010  -1.02070
 Alpha  occ. eigenvalues --   -0.92147  -0.90509  -0.89981  -0.89205  -0.89049
 Alpha  occ. eigenvalues --   -0.88519  -0.88483  -0.87891  -0.87632  -0.86591
 Alpha  occ. eigenvalues --   -0.85932  -0.85450  -0.84420  -0.83957  -0.83438
 Alpha  occ. eigenvalues --   -0.82917  -0.82440  -0.81639  -0.80693  -0.80348
 Alpha  occ. eigenvalues --   -0.80119  -0.78588  -0.78330  -0.77224  -0.76081
 Alpha  occ. eigenvalues --   -0.75606  -0.75157  -0.74906  -0.74403  -0.73993
 Alpha  occ. eigenvalues --   -0.73407  -0.72444  -0.71771  -0.70974  -0.68818
 Alpha  occ. eigenvalues --   -0.68518  -0.67887  -0.67583  -0.66622  -0.65967
 Alpha  occ. eigenvalues --   -0.65647  -0.65061  -0.64875  -0.64151  -0.64068
 Alpha  occ. eigenvalues --   -0.63773  -0.63522  -0.62812  -0.61324  -0.60337
 Alpha  occ. eigenvalues --   -0.59941  -0.59178  -0.58489  -0.58336  -0.57830
 Alpha  occ. eigenvalues --   -0.57339  -0.56580  -0.56210  -0.55723  -0.55068
 Alpha  occ. eigenvalues --   -0.54769  -0.54660  -0.54292  -0.54161  -0.54080
 Alpha  occ. eigenvalues --   -0.53925  -0.53295  -0.53115  -0.52974  -0.52869
 Alpha  occ. eigenvalues --   -0.52548  -0.52174  -0.51774  -0.51607  -0.51476
 Alpha  occ. eigenvalues --   -0.51154  -0.51036  -0.50883  -0.50829  -0.50525
 Alpha  occ. eigenvalues --   -0.50460  -0.50259  -0.50057  -0.49923  -0.49814
 Alpha  occ. eigenvalues --   -0.49623  -0.49389  -0.49231  -0.49130  -0.48661
 Alpha  occ. eigenvalues --   -0.48595  -0.48178  -0.48087  -0.47880  -0.47787
 Alpha  occ. eigenvalues --   -0.47464  -0.47105  -0.46887  -0.46748  -0.46543
 Alpha  occ. eigenvalues --   -0.46192  -0.45874  -0.45843  -0.45706  -0.45585
 Alpha  occ. eigenvalues --   -0.45362  -0.45184  -0.45139  -0.44938  -0.44836
 Alpha  occ. eigenvalues --   -0.44688  -0.44451  -0.44217  -0.44127  -0.43747
 Alpha  occ. eigenvalues --   -0.43689  -0.43447  -0.42954  -0.42938  -0.42801
 Alpha  occ. eigenvalues --   -0.42750  -0.42549  -0.42466  -0.42348  -0.42060
 Alpha  occ. eigenvalues --   -0.41886  -0.41491  -0.41204  -0.41040  -0.41004
 Alpha  occ. eigenvalues --   -0.40966  -0.40700  -0.40511  -0.40235  -0.40028
 Alpha  occ. eigenvalues --   -0.39895  -0.39434  -0.39211  -0.38920  -0.38813
 Alpha  occ. eigenvalues --   -0.38454  -0.38229  -0.38216  -0.37996  -0.37797
 Alpha  occ. eigenvalues --   -0.37283  -0.37213  -0.36785  -0.36518  -0.36023
 Alpha  occ. eigenvalues --   -0.35888  -0.35662  -0.34962  -0.34739  -0.33967
 Alpha  occ. eigenvalues --   -0.33417  -0.33058  -0.32895  -0.32394  -0.31626
 Alpha  occ. eigenvalues --   -0.30877  -0.30037  -0.29310  -0.28880  -0.24302
 Alpha  occ. eigenvalues --   -0.21176
 Alpha virt. eigenvalues --   -0.08413  -0.01422   0.00035   0.02403   0.02724
 Alpha virt. eigenvalues --    0.03737   0.05640   0.06328   0.06473   0.07140
 Alpha virt. eigenvalues --    0.08124   0.08444   0.08573   0.09188   0.09482

 Mulliken charges:
               1
     1  Mg   0.859666
     2  C    0.010312
     3  C   -0.116549
     4  C   -0.077248
     5  C   -0.087131
     6  N   -0.283630
     7  C   -0.042224
     8  C   -0.010430
     9  C   -0.068303
    10  C    0.032057
    11  C    0.072705
    12  C    0.046990
    13  C    0.044486
    14  C    0.174862
    15  O   -0.231934
    16  O   -0.340331
    17  N   -0.394844
    18  C    0.206149
    19  C   -0.165023
    20  C   -0.056729
    21  C    0.125063
    22  C    0.120201
    23  C    0.027814
    24  O   -0.204885
    25  C    0.043770
    26  N   -0.272887
    27  C    0.041413
    28  C   -0.022050
    29  C    0.016004
    30  C    0.039534
    31  C    0.057635
    32  C    0.040641
    33  C   -0.016087
    34  N   -0.394874
    35  C    0.118059
    36  C   -0.159244
    37  C    0.067835
    38  C    0.093751
    39  C    0.126171
    40  C    0.005199
    41  O   -0.219368
    42  C   -0.024903
    43  C    0.209895
    44  O   -0.232379
    45  O   -0.337229
    46  C    0.175916
    47  C    0.315556
    48  C   -0.145642
    49  C   -0.181929
    50  C    0.066942
    51  C    0.051396
    52  C    0.050186
    53  C    0.067480
    54  C   -0.118666
    55  C    0.042278
    56  C    0.052345
    57  C   -0.015880
    58  C    0.051940
    59  C   -0.130201
    60  C    0.044300
    61  C    0.072661
    62  C   -0.058209
    63  C    0.061241
    64  C   -0.132574
    65  C    0.008628
    66  C    0.056506
    67  H   -0.031904
    68  H   -0.010086
    69  H   -0.047408
    70  H    0.045210
    71  H    0.014832
    72  H    0.033862
    73  H    0.010572
    74  H    0.037991
    75  H    0.006055
    76  H    0.023461
    77  H    0.028068
    78  H    0.022602
    79  H    0.028495
    80  H    0.038130
    81  H    0.023797
    82  H    0.026041
    83  H    0.024648
    84  H    0.061231
    85  H    0.019005
    86  H    0.011398
    87  H    0.020415
    88  H    0.024443
    89  H    0.046531
    90  H    0.009887
    91  H    0.005903
    92  H    0.018771
    93  H   -0.003756
    94  H    0.008201
    95  H    0.013515
    96  H    0.027002
    97  H    0.027436
    98  H    0.051597
    99  H    0.026943
   100  H    0.055021
   101  H    0.034158
   102  H    0.017017
   103  H    0.044086
   104  H   -0.009345
   105  H    0.023313
   106  H    0.026422
   107  H    0.006439
   108  H    0.000505
   109  H   -0.020475
   110  H   -0.001994
   111  H    0.004585
   112  H   -0.000265
   113  H   -0.007104
   114  H   -0.008613
   115  H   -0.000107
   116  H    0.000712
   117  H   -0.004558
   118  H   -0.004196
   119  H    0.006205
   120  H   -0.004293
   121  H   -0.005039
   122  H   -0.004841
   123  H   -0.003202
   124  H    0.011336
   125  H    0.007695
   126  H   -0.003443
   127  H    0.017552
   128  H   -0.003300
   129  H   -0.005921
   130  H   -0.005633
   131  H   -0.002180
   132  H   -0.001248
   133  H   -0.013659
   134  H    0.004240
   135  H    0.008570
   136  H    0.002261
   137  H    0.010077
   138  H    0.005798
   139  H    0.014929
   140  H    0.009404
 Sum of Mulliken charges =  -0.00000

 Dipole moment (field-independent basis, Debye):
    X=             -3.2016    Y=              6.8535    Z=             -1.7020  Tot=              7.7536
 Quadrupole moment (field-independent basis, Debye-Ang):
   XX=           -382.8426   YY=           -432.7199   ZZ=           -392.6236
   XY=             26.2239   XZ=             10.3589   YZ=             -6.8699

 Normal termination of Gaussian 16 at Thu Apr 28 02:52:24 2022.
