 Gaussian 16, Revision A.03,
 Gaussian 16:  ES64L-G16RevA.03 25-Dec-2016

 ---------------------------------
 #p PBE1PBE/Def2SVP td=(nstates=5)
 ---------------------------------

 -----------------------------------------------------
 step_1401_chromophore_7 TDDFT with PBE1PBE functional
 -----------------------------------------------------
 Symbolic Z-matrix:
 Charge =  0 Multiplicity = 1

                         Standard orientation:
 ---------------------------------------------------------------------
 Center     Atomic      Atomic             Coordinates (Angstroms)
 Number     Number       Type             X           Y           Z
 ---------------------------------------------------------------------
      1         12           0        6.201716    0.548171    0.292501
      2          6           0        3.910870   -2.025913    0.422168
      3          6           0        4.221619    1.993087   -2.138611
      4          6           0        8.515647    3.042722   -0.083026
      5          6           0        8.452005   -1.183627    2.020380
      6          7           0        4.321218    0.014383   -0.703397
      7          6           0        3.483844   -1.044000   -0.396504
      8          6           0        2.127339   -1.073499   -1.152953
      9          6           0        2.259009    0.295091   -1.994436
     10          6           0        3.664073    0.834658   -1.568630
     11          6           0        2.020586    0.101006   -3.508726
     12          6           0        0.853890   -1.078588   -0.293595
     13          6           0       -0.473574   -0.933739   -1.065384
     14          6           0       -1.448901   -2.083549   -0.910397
     15          8           0       -1.430470   -3.153743   -1.499866
     16          8           0       -2.597798   -1.644773   -0.289740
     17          7           0        6.259976    2.302482   -0.788354
     18          6           0        5.390831    2.684831   -1.815668
     19          6           0        5.799147    3.984513   -2.382823
     20          6           0        6.975376    4.432648   -1.687339
     21          6           0        7.305861    3.199827   -0.782042
     22          6           0        5.070278    4.663667   -3.539113
     23          6           0        7.784311    5.744044   -1.868928
     24          8           0        8.827063    6.014458   -1.266509
     25          6           0        7.321184    6.730230   -2.833702
     26          7           0        8.252164    0.788714    0.790987
     27          6           0        8.900838    1.967121    0.719644
     28          6           0       10.161762    2.038003    1.579420
     29          6           0       10.108599    0.690898    2.376576
     30          6           0        8.824132    0.066004    1.753117
     31          6           0       11.440323    2.211903    0.581240
     32          6           0        9.931878    0.768583    3.945440
     33          6           0       10.473266   -0.326764    4.786808
     34          7           0        6.225342   -1.218971    1.088184
     35          6           0        7.226930   -1.812791    1.757554
     36          6           0        6.861956   -3.143476    2.140459
     37          6           0        5.523942   -3.274212    1.647402
     38          6           0        5.171315   -2.070560    1.034743
     39          6           0        7.712216   -4.117099    2.938198
     40          6           0        4.437963   -4.149759    1.588295
     41          8           0        4.221099   -5.273323    2.107341
     42          6           0        3.255172   -3.376056    0.846422
     43          6           0        2.850895   -4.215016   -0.320913
     44          8           0        3.490664   -4.454694   -1.342577
     45          8           0        1.599789   -4.671569   -0.054275
     46          6           0        0.930257   -5.508372   -1.151433
     47          6           0       -3.831788   -2.374578   -0.535450
     48          6           0       -4.802161   -1.410333   -1.204990
     49          6           0       -5.937377   -1.637132   -1.878268
     50          6           0       -6.531055   -3.039093   -2.161863
     51          6           0       -6.791676   -0.500804   -2.411484
     52          6           0       -8.110099   -0.232332   -1.610875
     53          6           0       -9.298896   -0.390811   -2.523048
     54          6           0      -10.442804   -1.394041   -2.093886
     55          6           0      -10.427805   -2.632922   -2.952819
     56          6           0      -11.833992   -0.720978   -2.204935
     57          6           0      -11.977454    0.138413   -0.904063
     58          6           0      -13.147786    1.200931   -1.009325
     59          6           0      -14.310727    0.870308    0.167699
     60          6           0      -15.587151    0.326000   -0.525403
     61          6           0      -14.659118    2.181556    0.928637
     62          6           0      -14.497990    1.982773    2.472745
     63          6           0      -13.831578    3.142160    3.202727
     64          6           0      -14.063281    2.993020    4.772293
     65          6           0      -14.988037    4.184266    5.325498
     66          6           0      -12.785635    3.012965    5.577372
     67          1           0        3.529375    2.448292   -2.849657
     68          1           0        9.215763    3.861674   -0.261289
     69          1           0        9.134112   -1.759654    2.648932
     70          1           0        2.126850   -1.958823   -1.789464
     71          1           0        1.613314    1.094933   -1.632221
     72          1           0        3.009520    0.066860   -3.966496
     73          1           0        1.454108    0.963338   -3.859659
     74          1           0        1.388777   -0.776099   -3.653981
     75          1           0        0.699153   -0.459997    0.590859
     76          1           0        0.926830   -2.031768    0.231489
     77          1           0       -0.357429   -0.686642   -2.120995
     78          1           0       -1.072323   -0.083111   -0.739293
     79          1           0        5.769781    4.956783   -4.322575
     80          1           0        4.580501    5.586211   -3.224813
     81          1           0        4.415845    3.877561   -3.915759
     82          1           0        7.893270    7.632350   -2.616285
     83          1           0        6.312097    6.910006   -2.463467
     84          1           0        7.427226    6.585296   -3.909078
     85          1           0        9.986142    2.906730    2.214094
     86          1           0       10.919601   -0.013242    2.188948
     87          1           0       11.038096    1.791899   -0.340235
     88          1           0       12.249476    1.552838    0.896397
     89          1           0       11.662722    3.258709    0.372617
     90          1           0        8.897779    0.718749    4.286576
     91          1           0       10.352088    1.632710    4.459134
     92          1           0        9.773400   -0.545904    5.593796
     93          1           0       11.384051   -0.065881    5.325855
     94          1           0       10.898240   -1.163348    4.231651
     95          1           0        8.587862   -3.739841    3.465191
     96          1           0        8.025167   -4.871311    2.215904
     97          1           0        7.113020   -4.684705    3.649702
     98          1           0        2.428118   -3.276471    1.548932
     99          1           0        1.680617   -6.183214   -1.563759
    100          1           0        0.506204   -4.947801   -1.984685
    101          1           0        0.251513   -6.308080   -0.853507
    102          1           0       -4.263412   -2.427815    0.464161
    103          1           0       -3.894486   -3.383616   -0.940682
    104          1           0       -4.509668   -0.362054   -1.140070
    105          1           0       -6.870712   -3.029038   -3.198655
    106          1           0       -7.385415   -3.235678   -1.513699
    107          1           0       -5.871188   -3.892337   -2.006045
    108          1           0       -6.909013   -0.643270   -3.485234
    109          1           0       -6.145508    0.375568   -2.455444
    110          1           0       -8.019809    0.767548   -1.188917
    111          1           0       -7.968960   -0.829556   -0.710269
    112          1           0       -9.078890   -0.652521   -3.558131
    113          1           0       -9.663814    0.635502   -2.558779
    114          1           0      -10.302698   -1.748749   -1.072420
    115          1           0      -10.901549   -2.526518   -3.928199
    116          1           0      -11.012334   -3.375043   -2.409249
    117          1           0       -9.486405   -3.122182   -3.203883
    118          1           0      -12.533599   -1.556774   -2.179082
    119          1           0      -11.892942   -0.070493   -3.077324
    120          1           0      -11.021599    0.617296   -0.691806
    121          1           0      -12.200175   -0.503965   -0.051146
    122          1           0      -13.584315    1.186679   -2.008251
    123          1           0      -12.698785    2.192155   -0.956540
    124          1           0      -13.953380    0.126963    0.880644
    125          1           0      -16.430548    0.181866    0.149958
    126          1           0      -15.329326   -0.682394   -0.849754
    127          1           0      -15.851109    0.925997   -1.395861
    128          1           0      -15.692553    2.511974    0.825040
    129          1           0      -13.978130    2.993216    0.672355
    130          1           0      -13.932456    1.064782    2.635851
    131          1           0      -15.513964    1.771093    2.807940
    132          1           0      -14.191835    4.063715    2.745569
    133          1           0      -12.760863    3.109102    3.001699
    134          1           0      -14.699495    2.121078    4.920513
    135          1           0      -14.427498    4.977926    5.820397
    136          1           0      -15.594926    3.716323    6.100017
    137          1           0      -15.661600    4.594808    4.573890
    138          1           0      -12.073642    2.268415    5.222035
    139          1           0      -13.071264    2.886210    6.621722
    140          1           0      -12.287841    3.962477    5.382626
 ---------------------------------------------------------------------

 SCF Done:  E(RPBE1PBE) =  -3005.33186988     A.U. after   16 cycles

 Excitation energies and oscillator strengths:

 Excited State   1:      Singlet-A      1.8737 eV  661.72 nm  f=0.3712  <S**2>=0.000
     245 -> 248       -0.14885
     246 -> 247        0.69498
     246 <- 247       -0.10400
 This state for optimization and/or second-order correction.
 Total Energy, E(TD-HF/TD-DFT) =  -3005.26301395
 Copying the excited state density for this state as the 1-particle RhoCI density.

 Excited State   2:      Singlet-A      2.3030 eV  538.37 nm  f=0.1254  <S**2>=0.000
     245 -> 247        0.65102
     246 -> 248        0.24177
     246 -> 249       -0.10691

 Excited State   3:      Singlet-A      2.8480 eV  435.34 nm  f=0.0003  <S**2>=0.000
     244 -> 247        0.67051
     244 -> 249       -0.15458
     244 -> 250       -0.12128

 Excited State   4:      Singlet-A      3.1073 eV  399.01 nm  f=0.0083  <S**2>=0.000
     243 -> 247        0.68980

 Excited State   5:      Singlet-A      3.2271 eV  384.20 nm  f=0.0013  <S**2>=0.000
     239 -> 247       -0.11404
     240 -> 247        0.47109
     240 -> 248        0.13189
     240 -> 249        0.13713
     241 -> 247        0.44329

 The electronic state is 1-A.
 Alpha  occ. eigenvalues --  -46.90669 -19.25896 -19.25059 -19.20242 -19.19793
 Alpha  occ. eigenvalues --  -19.18762 -19.17684 -14.41780 -14.41149 -14.40084
 Alpha  occ. eigenvalues --  -14.38245 -10.36702 -10.35286 -10.33179 -10.30806
 Alpha  occ. eigenvalues --  -10.29664 -10.29283 -10.29173 -10.28890 -10.28531
 Alpha  occ. eigenvalues --  -10.28044 -10.27666 -10.27609 -10.27030 -10.26610
 Alpha  occ. eigenvalues --  -10.26595 -10.26257 -10.26236 -10.26208 -10.26122
 Alpha  occ. eigenvalues --  -10.25845 -10.25542 -10.25229 -10.25183 -10.25094
 Alpha  occ. eigenvalues --  -10.25058 -10.24837 -10.24741 -10.24546 -10.24263
 Alpha  occ. eigenvalues --  -10.24090 -10.24066 -10.23713 -10.23658 -10.23638
 Alpha  occ. eigenvalues --  -10.23603 -10.23387 -10.23347 -10.23213 -10.23185
 Alpha  occ. eigenvalues --  -10.23072 -10.23060 -10.23042 -10.22788 -10.22666
 Alpha  occ. eigenvalues --  -10.22657 -10.22608 -10.22493 -10.22213 -10.21971
 Alpha  occ. eigenvalues --  -10.21926 -10.21901 -10.21801 -10.21758 -10.21747
 Alpha  occ. eigenvalues --  -10.21631  -3.13200  -1.86009  -1.85578  -1.85464
 Alpha  occ. eigenvalues --   -1.11477  -1.09273  -1.04990  -1.02649  -1.01414
 Alpha  occ. eigenvalues --   -1.00638  -0.99815  -0.98612  -0.97653  -0.96491
 Alpha  occ. eigenvalues --   -0.86745  -0.84635  -0.84154  -0.83448  -0.83173
 Alpha  occ. eigenvalues --   -0.82750  -0.82607  -0.82151  -0.81659  -0.80682
 Alpha  occ. eigenvalues --   -0.80196  -0.80003  -0.78606  -0.78288  -0.77539
 Alpha  occ. eigenvalues --   -0.77134  -0.76602  -0.75920  -0.75025  -0.74733
 Alpha  occ. eigenvalues --   -0.74266  -0.72682  -0.72558  -0.71560  -0.70237
 Alpha  occ. eigenvalues --   -0.70011  -0.69525  -0.68985  -0.68544  -0.68196
 Alpha  occ. eigenvalues --   -0.67743  -0.66958  -0.66138  -0.65292  -0.63259
 Alpha  occ. eigenvalues --   -0.63079  -0.62174  -0.61870  -0.60831  -0.60418
 Alpha  occ. eigenvalues --   -0.60082  -0.59562  -0.59055  -0.58675  -0.58293
 Alpha  occ. eigenvalues --   -0.58231  -0.57709  -0.57008  -0.56020  -0.54712
 Alpha  occ. eigenvalues --   -0.54364  -0.53760  -0.53157  -0.52953  -0.52437
 Alpha  occ. eigenvalues --   -0.51890  -0.51116  -0.50668  -0.50303  -0.49617
 Alpha  occ. eigenvalues --   -0.49325  -0.49132  -0.48766  -0.48588  -0.48490
 Alpha  occ. eigenvalues --   -0.48246  -0.47727  -0.47674  -0.47489  -0.47259
 Alpha  occ. eigenvalues --   -0.47176  -0.46649  -0.46312  -0.46226  -0.46051
 Alpha  occ. eigenvalues --   -0.45738  -0.45618  -0.45398  -0.45159  -0.45099
 Alpha  occ. eigenvalues --   -0.44924  -0.44914  -0.44700  -0.44492  -0.44393
 Alpha  occ. eigenvalues --   -0.44171  -0.43860  -0.43753  -0.43725  -0.43290
 Alpha  occ. eigenvalues --   -0.43159  -0.42808  -0.42728  -0.42613  -0.42353
 Alpha  occ. eigenvalues --   -0.42175  -0.41647  -0.41596  -0.41432  -0.41195
 Alpha  occ. eigenvalues --   -0.41094  -0.40607  -0.40555  -0.40323  -0.40301
 Alpha  occ. eigenvalues --   -0.40197  -0.40031  -0.39899  -0.39616  -0.39511
 Alpha  occ. eigenvalues --   -0.39392  -0.39220  -0.39132  -0.38704  -0.38425
 Alpha  occ. eigenvalues --   -0.38345  -0.38202  -0.37905  -0.37709  -0.37677
 Alpha  occ. eigenvalues --   -0.37593  -0.37329  -0.37252  -0.37121  -0.36858
 Alpha  occ. eigenvalues --   -0.36671  -0.36305  -0.36212  -0.35944  -0.35801
 Alpha  occ. eigenvalues --   -0.35747  -0.35651  -0.35253  -0.35193  -0.34931
 Alpha  occ. eigenvalues --   -0.34689  -0.34363  -0.34022  -0.33812  -0.33572
 Alpha  occ. eigenvalues --   -0.33217  -0.33161  -0.32951  -0.32850  -0.32804
 Alpha  occ. eigenvalues --   -0.32314  -0.32109  -0.31624  -0.31577  -0.30942
 Alpha  occ. eigenvalues --   -0.30858  -0.30713  -0.30009  -0.29937  -0.28941
 Alpha  occ. eigenvalues --   -0.28759  -0.28113  -0.27962  -0.27325  -0.26593
 Alpha  occ. eigenvalues --   -0.26200  -0.25339  -0.24970  -0.24476  -0.21128
 Alpha  occ. eigenvalues --   -0.18729
 Alpha virt. eigenvalues --   -0.11005  -0.05087  -0.04020  -0.02040  -0.00851
 Alpha virt. eigenvalues --    0.00070   0.01321   0.01654   0.01890   0.03279
 Alpha virt. eigenvalues --    0.04507   0.04947   0.05219   0.05308   0.06355

 Mulliken charges:
               1
     1  Mg   1.017308
     2  C   -0.002263
     3  C   -0.107540
     4  C   -0.054154
     5  C   -0.070086
     6  N   -0.390361
     7  C    0.030188
     8  C   -0.081310
     9  C   -0.139638
    10  C    0.070127
    11  C    0.010255
    12  C   -0.002339
    13  C   -0.035980
    14  C    0.247997
    15  O   -0.266288
    16  O   -0.372620
    17  N   -0.506275
    18  C    0.216177
    19  C   -0.188994
    20  C   -0.094448
    21  C    0.144666
    22  C    0.058895
    23  C    0.070808
    24  O   -0.244767
    25  C   -0.029441
    26  N   -0.373211
    27  C    0.059867
    28  C   -0.093876
    29  C   -0.062044
    30  C    0.070040
    31  C   -0.002600
    32  C   -0.014070
    33  C   -0.084502
    34  N   -0.535587
    35  C    0.142480
    36  C   -0.167375
    37  C    0.011514
    38  C    0.153584
    39  C    0.074868
    40  C    0.096492
    41  O   -0.260653
    42  C   -0.134415
    43  C    0.302665
    44  O   -0.267915
    45  O   -0.368897
    46  C    0.120507
    47  C    0.270103
    48  C   -0.155099
    49  C   -0.231001
    50  C    0.009883
    51  C   -0.007140
    52  C   -0.009332
    53  C    0.012607
    54  C   -0.207389
    55  C   -0.018996
    56  C   -0.006791
    57  C   -0.078152
    58  C    0.004912
    59  C   -0.217763
    60  C   -0.017872
    61  C    0.021006
    62  C   -0.119401
    63  C    0.005950
    64  C   -0.223597
    65  C   -0.050732
    66  C   -0.009733
    67  H    0.000111
    68  H    0.022215
    69  H   -0.010428
    70  H    0.082746
    71  H    0.052104
    72  H    0.062118
    73  H    0.037889
    74  H    0.062808
    75  H    0.037347
    76  H    0.061725
    77  H    0.062631
    78  H    0.054959
    79  H    0.055567
    80  H    0.063608
    81  H    0.050035
    82  H    0.052864
    83  H    0.052385
    84  H    0.084441
    85  H    0.055509
    86  H    0.047673
    87  H    0.050070
    88  H    0.051309
    89  H    0.072813
    90  H    0.042184
    91  H    0.039432
    92  H    0.046096
    93  H    0.025406
    94  H    0.032915
    95  H    0.040440
    96  H    0.057721
    97  H    0.056676
    98  H    0.086933
    99  H    0.048215
   100  H    0.077839
   101  H    0.055535
   102  H    0.047197
   103  H    0.069100
   104  H    0.020612
   105  H    0.049296
   106  H    0.053900
   107  H    0.033702
   108  H    0.032570
   109  H    0.012179
   110  H    0.030219
   111  H    0.036444
   112  H    0.031139
   113  H    0.025282
   114  H    0.028825
   115  H    0.027966
   116  H    0.029607
   117  H    0.025630
   118  H    0.029534
   119  H    0.038055
   120  H    0.030197
   121  H    0.027892
   122  H    0.026106
   123  H    0.027621
   124  H    0.045941
   125  H    0.036170
   126  H    0.026512
   127  H    0.044632
   128  H    0.029089
   129  H    0.027109
   130  H    0.027500
   131  H    0.030620
   132  H    0.030231
   133  H    0.019754
   134  H    0.040714
   135  H    0.035436
   136  H    0.030553
   137  H    0.037391
   138  H    0.034579
   139  H    0.043176
   140  H    0.037375
 Sum of Mulliken charges =  -0.00000

 Dipole moment (field-independent basis, Debye):
    X=             -3.2056    Y=              5.9659    Z=             -1.1419  Tot=              6.8682
 Quadrupole moment (field-independent basis, Debye-Ang):
   XX=           -377.0264   YY=           -430.7832   ZZ=           -389.4048
   XY=             20.4069   XZ=             15.3102   YZ=             -6.8103

 Normal termination of Gaussian 16 at Thu Apr 28 03:12:56 2022.
