 Gaussian 16, Revision A.03,
 Gaussian 16:  ES64L-G16RevA.03 25-Dec-2016

 --------------------------------
 #p wB97XD/Def2SVP td=(nstates=5)
 --------------------------------

 ----------------------------------------------------
 step_1401_chromophore_7 TDDFT with wB97XD functional
 ----------------------------------------------------
 Symbolic Z-matrix:
 Charge =  0 Multiplicity = 1

                         Standard orientation:
 ---------------------------------------------------------------------
 Center     Atomic      Atomic             Coordinates (Angstroms)
 Number     Number       Type             X           Y           Z
 ---------------------------------------------------------------------
      1         12           0        6.201716    0.548171    0.292501
      2          6           0        3.910870   -2.025913    0.422168
      3          6           0        4.221619    1.993087   -2.138611
      4          6           0        8.515647    3.042722   -0.083026
      5          6           0        8.452005   -1.183627    2.020380
      6          7           0        4.321218    0.014383   -0.703397
      7          6           0        3.483844   -1.044000   -0.396504
      8          6           0        2.127339   -1.073499   -1.152953
      9          6           0        2.259009    0.295091   -1.994436
     10          6           0        3.664073    0.834658   -1.568630
     11          6           0        2.020586    0.101006   -3.508726
     12          6           0        0.853890   -1.078588   -0.293595
     13          6           0       -0.473574   -0.933739   -1.065384
     14          6           0       -1.448901   -2.083549   -0.910397
     15          8           0       -1.430470   -3.153743   -1.499866
     16          8           0       -2.597798   -1.644773   -0.289740
     17          7           0        6.259976    2.302482   -0.788354
     18          6           0        5.390831    2.684831   -1.815668
     19          6           0        5.799147    3.984513   -2.382823
     20          6           0        6.975376    4.432648   -1.687339
     21          6           0        7.305861    3.199827   -0.782042
     22          6           0        5.070278    4.663667   -3.539113
     23          6           0        7.784311    5.744044   -1.868928
     24          8           0        8.827063    6.014458   -1.266509
     25          6           0        7.321184    6.730230   -2.833702
     26          7           0        8.252164    0.788714    0.790987
     27          6           0        8.900838    1.967121    0.719644
     28          6           0       10.161762    2.038003    1.579420
     29          6           0       10.108599    0.690898    2.376576
     30          6           0        8.824132    0.066004    1.753117
     31          6           0       11.440323    2.211903    0.581240
     32          6           0        9.931878    0.768583    3.945440
     33          6           0       10.473266   -0.326764    4.786808
     34          7           0        6.225342   -1.218971    1.088184
     35          6           0        7.226930   -1.812791    1.757554
     36          6           0        6.861956   -3.143476    2.140459
     37          6           0        5.523942   -3.274212    1.647402
     38          6           0        5.171315   -2.070560    1.034743
     39          6           0        7.712216   -4.117099    2.938198
     40          6           0        4.437963   -4.149759    1.588295
     41          8           0        4.221099   -5.273323    2.107341
     42          6           0        3.255172   -3.376056    0.846422
     43          6           0        2.850895   -4.215016   -0.320913
     44          8           0        3.490664   -4.454694   -1.342577
     45          8           0        1.599789   -4.671569   -0.054275
     46          6           0        0.930257   -5.508372   -1.151433
     47          6           0       -3.831788   -2.374578   -0.535450
     48          6           0       -4.802161   -1.410333   -1.204990
     49          6           0       -5.937377   -1.637132   -1.878268
     50          6           0       -6.531055   -3.039093   -2.161863
     51          6           0       -6.791676   -0.500804   -2.411484
     52          6           0       -8.110099   -0.232332   -1.610875
     53          6           0       -9.298896   -0.390811   -2.523048
     54          6           0      -10.442804   -1.394041   -2.093886
     55          6           0      -10.427805   -2.632922   -2.952819
     56          6           0      -11.833992   -0.720978   -2.204935
     57          6           0      -11.977454    0.138413   -0.904063
     58          6           0      -13.147786    1.200931   -1.009325
     59          6           0      -14.310727    0.870308    0.167699
     60          6           0      -15.587151    0.326000   -0.525403
     61          6           0      -14.659118    2.181556    0.928637
     62          6           0      -14.497990    1.982773    2.472745
     63          6           0      -13.831578    3.142160    3.202727
     64          6           0      -14.063281    2.993020    4.772293
     65          6           0      -14.988037    4.184266    5.325498
     66          6           0      -12.785635    3.012965    5.577372
     67          1           0        3.529375    2.448292   -2.849657
     68          1           0        9.215763    3.861674   -0.261289
     69          1           0        9.134112   -1.759654    2.648932
     70          1           0        2.126850   -1.958823   -1.789464
     71          1           0        1.613314    1.094933   -1.632221
     72          1           0        3.009520    0.066860   -3.966496
     73          1           0        1.454108    0.963338   -3.859659
     74          1           0        1.388777   -0.776099   -3.653981
     75          1           0        0.699153   -0.459997    0.590859
     76          1           0        0.926830   -2.031768    0.231489
     77          1           0       -0.357429   -0.686642   -2.120995
     78          1           0       -1.072323   -0.083111   -0.739293
     79          1           0        5.769781    4.956783   -4.322575
     80          1           0        4.580501    5.586211   -3.224813
     81          1           0        4.415845    3.877561   -3.915759
     82          1           0        7.893270    7.632350   -2.616285
     83          1           0        6.312097    6.910006   -2.463467
     84          1           0        7.427226    6.585296   -3.909078
     85          1           0        9.986142    2.906730    2.214094
     86          1           0       10.919601   -0.013242    2.188948
     87          1           0       11.038096    1.791899   -0.340235
     88          1           0       12.249476    1.552838    0.896397
     89          1           0       11.662722    3.258709    0.372617
     90          1           0        8.897779    0.718749    4.286576
     91          1           0       10.352088    1.632710    4.459134
     92          1           0        9.773400   -0.545904    5.593796
     93          1           0       11.384051   -0.065881    5.325855
     94          1           0       10.898240   -1.163348    4.231651
     95          1           0        8.587862   -3.739841    3.465191
     96          1           0        8.025167   -4.871311    2.215904
     97          1           0        7.113020   -4.684705    3.649702
     98          1           0        2.428118   -3.276471    1.548932
     99          1           0        1.680617   -6.183214   -1.563759
    100          1           0        0.506204   -4.947801   -1.984685
    101          1           0        0.251513   -6.308080   -0.853507
    102          1           0       -4.263412   -2.427815    0.464161
    103          1           0       -3.894486   -3.383616   -0.940682
    104          1           0       -4.509668   -0.362054   -1.140070
    105          1           0       -6.870712   -3.029038   -3.198655
    106          1           0       -7.385415   -3.235678   -1.513699
    107          1           0       -5.871188   -3.892337   -2.006045
    108          1           0       -6.909013   -0.643270   -3.485234
    109          1           0       -6.145508    0.375568   -2.455444
    110          1           0       -8.019809    0.767548   -1.188917
    111          1           0       -7.968960   -0.829556   -0.710269
    112          1           0       -9.078890   -0.652521   -3.558131
    113          1           0       -9.663814    0.635502   -2.558779
    114          1           0      -10.302698   -1.748749   -1.072420
    115          1           0      -10.901549   -2.526518   -3.928199
    116          1           0      -11.012334   -3.375043   -2.409249
    117          1           0       -9.486405   -3.122182   -3.203883
    118          1           0      -12.533599   -1.556774   -2.179082
    119          1           0      -11.892942   -0.070493   -3.077324
    120          1           0      -11.021599    0.617296   -0.691806
    121          1           0      -12.200175   -0.503965   -0.051146
    122          1           0      -13.584315    1.186679   -2.008251
    123          1           0      -12.698785    2.192155   -0.956540
    124          1           0      -13.953380    0.126963    0.880644
    125          1           0      -16.430548    0.181866    0.149958
    126          1           0      -15.329326   -0.682394   -0.849754
    127          1           0      -15.851109    0.925997   -1.395861
    128          1           0      -15.692553    2.511974    0.825040
    129          1           0      -13.978130    2.993216    0.672355
    130          1           0      -13.932456    1.064782    2.635851
    131          1           0      -15.513964    1.771093    2.807940
    132          1           0      -14.191835    4.063715    2.745569
    133          1           0      -12.760863    3.109102    3.001699
    134          1           0      -14.699495    2.121078    4.920513
    135          1           0      -14.427498    4.977926    5.820397
    136          1           0      -15.594926    3.716323    6.100017
    137          1           0      -15.661600    4.594808    4.573890
    138          1           0      -12.073642    2.268415    5.222035
    139          1           0      -13.071264    2.886210    6.621722
    140          1           0      -12.287841    3.962477    5.382626
 ---------------------------------------------------------------------

 SCF Done:  E(RwB97XD) =  -3007.84236106     A.U. after   18 cycles

 Excitation energies and oscillator strengths:

 Excited State   1:      Singlet-A      1.7782 eV  697.26 nm  f=0.3807  <S**2>=0.000
     245 -> 248        0.15647
     246 -> 247        0.68701
 This state for optimization and/or second-order correction.
 Total Energy, E(TD-HF/TD-DFT) =  -3007.77701484
 Copying the excited state density for this state as the 1-particle RhoCI density.

 Excited State   2:      Singlet-A      2.2823 eV  543.25 nm  f=0.1258  <S**2>=0.000
     245 -> 247        0.63468
     246 -> 248       -0.27510

 Excited State   3:      Singlet-A      3.5274 eV  351.49 nm  f=0.0371  <S**2>=0.000
     243 -> 247        0.44997
     243 -> 249        0.27626
     243 -> 250        0.31514
     244 -> 247       -0.21149
     244 -> 249       -0.10386
     244 -> 250       -0.10413
     246 -> 248        0.15781

 Excited State   4:      Singlet-A      3.5567 eV  348.60 nm  f=0.2211  <S**2>=0.000
     240 -> 247       -0.20687
     241 -> 247        0.42695
     243 -> 247       -0.15573
     245 -> 247        0.15109
     246 -> 248        0.42940

 Excited State   5:      Singlet-A      3.6369 eV  340.91 nm  f=0.0665  <S**2>=0.000
     241 -> 247       -0.18376
     243 -> 247        0.19534
     244 -> 247        0.57129
     246 -> 248        0.26643

 The electronic state is 1-A.
 Alpha  occ. eigenvalues --  -46.93588 -19.30411 -19.29476 -19.25067 -19.24914
 Alpha  occ. eigenvalues --  -19.23310 -19.21987 -14.46923 -14.46191 -14.45263
 Alpha  occ. eigenvalues --  -14.42869 -10.43472 -10.41957 -10.40474 -10.37252
 Alpha  occ. eigenvalues --  -10.36181 -10.36114 -10.35930 -10.35919 -10.35191
 Alpha  occ. eigenvalues --  -10.34741 -10.34101 -10.34019 -10.33563 -10.32897
 Alpha  occ. eigenvalues --  -10.32843 -10.32645 -10.32419 -10.32334 -10.32133
 Alpha  occ. eigenvalues --  -10.31962 -10.31852 -10.31627 -10.31430 -10.31375
 Alpha  occ. eigenvalues --  -10.31374 -10.30970 -10.30860 -10.30768 -10.30608
 Alpha  occ. eigenvalues --  -10.30594 -10.30543 -10.30523 -10.30171 -10.29877
 Alpha  occ. eigenvalues --  -10.29875 -10.29804 -10.29666 -10.29581 -10.29553
 Alpha  occ. eigenvalues --  -10.29412 -10.29394 -10.29047 -10.29035 -10.29023
 Alpha  occ. eigenvalues --  -10.28975 -10.28890 -10.28754 -10.28575 -10.28366
 Alpha  occ. eigenvalues --  -10.28343 -10.28167 -10.28161 -10.28096 -10.28076
 Alpha  occ. eigenvalues --  -10.27706  -3.19936  -1.93503  -1.93073  -1.92953
 Alpha  occ. eigenvalues --   -1.18827  -1.16530  -1.12923  -1.09972  -1.08470
 Alpha  occ. eigenvalues --   -1.07846  -1.07103  -1.05754  -1.05046  -1.04163
 Alpha  occ. eigenvalues --   -0.94075  -0.92300  -0.91808  -0.91163  -0.90839
 Alpha  occ. eigenvalues --   -0.90345  -0.90276  -0.89854  -0.89629  -0.88363
 Alpha  occ. eigenvalues --   -0.87831  -0.87330  -0.86281  -0.85824  -0.85401
 Alpha  occ. eigenvalues --   -0.84855  -0.84272  -0.83539  -0.82582  -0.82289
 Alpha  occ. eigenvalues --   -0.81934  -0.80620  -0.80220  -0.79121  -0.77912
 Alpha  occ. eigenvalues --   -0.77511  -0.77102  -0.76687  -0.76226  -0.75844
 Alpha  occ. eigenvalues --   -0.75321  -0.74397  -0.73735  -0.72918  -0.70803
 Alpha  occ. eigenvalues --   -0.70424  -0.69777  -0.69604  -0.68478  -0.67853
 Alpha  occ. eigenvalues --   -0.67614  -0.67072  -0.66715  -0.66071  -0.65946
 Alpha  occ. eigenvalues --   -0.65728  -0.65362  -0.64644  -0.63313  -0.62392
 Alpha  occ. eigenvalues --   -0.61855  -0.61123  -0.60478  -0.60285  -0.59791
 Alpha  occ. eigenvalues --   -0.59291  -0.58492  -0.58255  -0.57683  -0.57022
 Alpha  occ. eigenvalues --   -0.56688  -0.56562  -0.56183  -0.56152  -0.55980
 Alpha  occ. eigenvalues --   -0.55860  -0.55243  -0.55030  -0.54878  -0.54700
 Alpha  occ. eigenvalues --   -0.54485  -0.54043  -0.53666  -0.53510  -0.53377
 Alpha  occ. eigenvalues --   -0.53035  -0.52973  -0.52870  -0.52737  -0.52466
 Alpha  occ. eigenvalues --   -0.52390  -0.52172  -0.51952  -0.51827  -0.51715
 Alpha  occ. eigenvalues --   -0.51528  -0.51381  -0.51118  -0.51037  -0.50530
 Alpha  occ. eigenvalues --   -0.50466  -0.50070  -0.50035  -0.49855  -0.49738
 Alpha  occ. eigenvalues --   -0.49368  -0.49046  -0.48768  -0.48620  -0.48422
 Alpha  occ. eigenvalues --   -0.48095  -0.47793  -0.47734  -0.47559  -0.47542
 Alpha  occ. eigenvalues --   -0.47293  -0.47081  -0.47038  -0.46763  -0.46719
 Alpha  occ. eigenvalues --   -0.46583  -0.46324  -0.46120  -0.46066  -0.45674
 Alpha  occ. eigenvalues --   -0.45602  -0.45353  -0.44879  -0.44808  -0.44779
 Alpha  occ. eigenvalues --   -0.44655  -0.44525  -0.44390  -0.44265  -0.44001
 Alpha  occ. eigenvalues --   -0.43768  -0.43383  -0.43142  -0.42909  -0.42897
 Alpha  occ. eigenvalues --   -0.42843  -0.42571  -0.42352  -0.42140  -0.41912
 Alpha  occ. eigenvalues --   -0.41745  -0.41345  -0.41060  -0.40822  -0.40645
 Alpha  occ. eigenvalues --   -0.40285  -0.40179  -0.40030  -0.39869  -0.39696
 Alpha  occ. eigenvalues --   -0.39418  -0.39122  -0.38628  -0.38425  -0.37920
 Alpha  occ. eigenvalues --   -0.37788  -0.37648  -0.36807  -0.36696  -0.35860
 Alpha  occ. eigenvalues --   -0.35583  -0.34903  -0.34887  -0.34462  -0.33806
 Alpha  occ. eigenvalues --   -0.33123  -0.32054  -0.31227  -0.30961  -0.26272
 Alpha  occ. eigenvalues --   -0.23028
 Alpha virt. eigenvalues --   -0.06717   0.00517   0.02043   0.04546   0.05807
 Alpha virt. eigenvalues --    0.06032   0.08077   0.08602   0.08637   0.09745
 Alpha virt. eigenvalues --    0.10771   0.11764   0.11962   0.12025   0.12909

 Mulliken charges:
               1
     1  Mg   1.003480
     2  C   -0.002046
     3  C   -0.128345
     4  C   -0.082964
     5  C   -0.082558
     6  N   -0.355256
     7  C   -0.005394
     8  C   -0.052480
     9  C   -0.118152
    10  C    0.061241
    11  C    0.021390
    12  C    0.011093
    13  C   -0.017856
    14  C    0.234846
    15  O   -0.262657
    16  O   -0.371262
    17  N   -0.477995
    18  C    0.220882
    19  C   -0.179636
    20  C   -0.092508
    21  C    0.147426
    22  C    0.072742
    23  C    0.073480
    24  O   -0.235622
    25  C   -0.020239
    26  N   -0.341581
    27  C    0.060990
    28  C   -0.076690
    29  C   -0.035274
    30  C    0.058424
    31  C    0.009921
    32  C   -0.001736
    33  C   -0.071222
    34  N   -0.493213
    35  C    0.129439
    36  C   -0.170820
    37  C    0.017904
    38  C    0.130515
    39  C    0.085047
    40  C    0.078421
    41  O   -0.255173
    42  C   -0.094091
    43  C    0.274479
    44  O   -0.261745
    45  O   -0.366967
    46  C    0.137163
    47  C    0.284187
    48  C   -0.164841
    49  C   -0.212702
    50  C    0.021447
    51  C    0.010107
    52  C    0.003080
    53  C    0.025152
    54  C   -0.174522
    55  C   -0.004556
    56  C    0.008720
    57  C   -0.058420
    58  C    0.015571
    59  C   -0.186003
    60  C   -0.003744
    61  C    0.032430
    62  C   -0.098459
    63  C    0.016932
    64  C   -0.194649
    65  C   -0.038827
    66  C    0.004985
    67  H   -0.007628
    68  H    0.016292
    69  H   -0.026959
    70  H    0.071274
    71  H    0.041165
    72  H    0.056507
    73  H    0.032908
    74  H    0.058483
    75  H    0.032753
    76  H    0.044625
    77  H    0.053290
    78  H    0.049380
    79  H    0.051253
    80  H    0.061399
    81  H    0.046808
    82  H    0.053115
    83  H    0.044978
    84  H    0.083435
    85  H    0.047021
    86  H    0.037393
    87  H    0.041536
    88  H    0.047808
    89  H    0.068140
    90  H    0.033175
    91  H    0.031167
    92  H    0.041622
    93  H    0.018808
    94  H    0.026638
    95  H    0.034111
    96  H    0.049921
    97  H    0.050600
    98  H    0.081672
    99  H    0.043735
   100  H    0.073378
   101  H    0.052299
   102  H    0.041844
   103  H    0.064947
   104  H    0.016554
   105  H    0.042631
   106  H    0.046424
   107  H    0.029167
   108  H    0.023288
   109  H    0.004909
   110  H    0.024387
   111  H    0.026509
   112  H    0.021266
   113  H    0.016737
   114  H    0.016165
   115  H    0.021600
   116  H    0.023136
   117  H    0.016441
   118  H    0.020509
   119  H    0.029007
   120  H    0.018685
   121  H    0.017675
   122  H    0.016766
   123  H    0.020694
   124  H    0.031965
   125  H    0.030215
   126  H    0.018951
   127  H    0.038141
   128  H    0.021768
   129  H    0.015837
   130  H    0.016431
   131  H    0.020715
   132  H    0.021713
   133  H    0.011279
   134  H    0.029651
   135  H    0.029231
   136  H    0.024121
   137  H    0.031587
   138  H    0.028496
   139  H    0.037458
   140  H    0.029703
 Sum of Mulliken charges =  -0.00000

 Dipole moment (field-independent basis, Debye):
    X=             -3.2527    Y=              7.1636    Z=             -1.8414  Tot=              8.0801
 Quadrupole moment (field-independent basis, Debye-Ang):
   XX=           -377.9294   YY=           -428.3114   ZZ=           -388.8795
   XY=             28.2615   XZ=             10.3807   YZ=             -7.6782

 Normal termination of Gaussian 16 at Thu Apr 28 03:39:07 2022.
