 Gaussian 16, Revision A.03,
 Gaussian 16:  ES64L-G16RevA.03 25-Dec-2016

 --------------------
 #p ZINDO=(nstates=5)
 --------------------

 -----------------------------
 step_1401_chromophore_7 ZINDO
 -----------------------------
 Symbolic Z-matrix:
 Charge =  0 Multiplicity = 1

                         Standard orientation:
 ---------------------------------------------------------------------
 Center     Atomic      Atomic             Coordinates (Angstroms)
 Number     Number       Type             X           Y           Z
 ---------------------------------------------------------------------
      1         12           0        6.201716    0.548171    0.292501
      2          6           0        3.910870   -2.025913    0.422168
      3          6           0        4.221619    1.993087   -2.138611
      4          6           0        8.515647    3.042722   -0.083026
      5          6           0        8.452005   -1.183627    2.020380
      6          7           0        4.321218    0.014383   -0.703397
      7          6           0        3.483844   -1.044000   -0.396504
      8          6           0        2.127339   -1.073499   -1.152953
      9          6           0        2.259009    0.295091   -1.994436
     10          6           0        3.664073    0.834658   -1.568630
     11          6           0        2.020586    0.101006   -3.508726
     12          6           0        0.853890   -1.078588   -0.293595
     13          6           0       -0.473574   -0.933739   -1.065384
     14          6           0       -1.448901   -2.083549   -0.910397
     15          8           0       -1.430470   -3.153743   -1.499866
     16          8           0       -2.597798   -1.644773   -0.289740
     17          7           0        6.259976    2.302482   -0.788354
     18          6           0        5.390831    2.684831   -1.815668
     19          6           0        5.799147    3.984513   -2.382823
     20          6           0        6.975376    4.432648   -1.687339
     21          6           0        7.305861    3.199827   -0.782042
     22          6           0        5.070278    4.663667   -3.539113
     23          6           0        7.784311    5.744044   -1.868928
     24          8           0        8.827063    6.014458   -1.266509
     25          6           0        7.321184    6.730230   -2.833702
     26          7           0        8.252164    0.788714    0.790987
     27          6           0        8.900838    1.967121    0.719644
     28          6           0       10.161762    2.038003    1.579420
     29          6           0       10.108599    0.690898    2.376576
     30          6           0        8.824132    0.066004    1.753117
     31          6           0       11.440323    2.211903    0.581240
     32          6           0        9.931878    0.768583    3.945440
     33          6           0       10.473266   -0.326764    4.786808
     34          7           0        6.225342   -1.218971    1.088184
     35          6           0        7.226930   -1.812791    1.757554
     36          6           0        6.861956   -3.143476    2.140459
     37          6           0        5.523942   -3.274212    1.647402
     38          6           0        5.171315   -2.070560    1.034743
     39          6           0        7.712216   -4.117099    2.938198
     40          6           0        4.437963   -4.149759    1.588295
     41          8           0        4.221099   -5.273323    2.107341
     42          6           0        3.255172   -3.376056    0.846422
     43          6           0        2.850895   -4.215016   -0.320913
     44          8           0        3.490664   -4.454694   -1.342577
     45          8           0        1.599789   -4.671569   -0.054275
     46          6           0        0.930257   -5.508372   -1.151433
     47          6           0       -3.831788   -2.374578   -0.535450
     48          6           0       -4.802161   -1.410333   -1.204990
     49          6           0       -5.937377   -1.637132   -1.878268
     50          6           0       -6.531055   -3.039093   -2.161863
     51          6           0       -6.791676   -0.500804   -2.411484
     52          6           0       -8.110099   -0.232332   -1.610875
     53          6           0       -9.298896   -0.390811   -2.523048
     54          6           0      -10.442804   -1.394041   -2.093886
     55          6           0      -10.427805   -2.632922   -2.952819
     56          6           0      -11.833992   -0.720978   -2.204935
     57          6           0      -11.977454    0.138413   -0.904063
     58          6           0      -13.147786    1.200931   -1.009325
     59          6           0      -14.310727    0.870308    0.167699
     60          6           0      -15.587151    0.326000   -0.525403
     61          6           0      -14.659118    2.181556    0.928637
     62          6           0      -14.497990    1.982773    2.472745
     63          6           0      -13.831578    3.142160    3.202727
     64          6           0      -14.063281    2.993020    4.772293
     65          6           0      -14.988037    4.184266    5.325498
     66          6           0      -12.785635    3.012965    5.577372
     67          1           0        3.529375    2.448292   -2.849657
     68          1           0        9.215763    3.861674   -0.261289
     69          1           0        9.134112   -1.759654    2.648932
     70          1           0        2.126850   -1.958823   -1.789464
     71          1           0        1.613314    1.094933   -1.632221
     72          1           0        3.009520    0.066860   -3.966496
     73          1           0        1.454108    0.963338   -3.859659
     74          1           0        1.388777   -0.776099   -3.653981
     75          1           0        0.699153   -0.459997    0.590859
     76          1           0        0.926830   -2.031768    0.231489
     77          1           0       -0.357429   -0.686642   -2.120995
     78          1           0       -1.072323   -0.083111   -0.739293
     79          1           0        5.769781    4.956783   -4.322575
     80          1           0        4.580501    5.586211   -3.224813
     81          1           0        4.415845    3.877561   -3.915759
     82          1           0        7.893270    7.632350   -2.616285
     83          1           0        6.312097    6.910006   -2.463467
     84          1           0        7.427226    6.585296   -3.909078
     85          1           0        9.986142    2.906730    2.214094
     86          1           0       10.919601   -0.013242    2.188948
     87          1           0       11.038096    1.791899   -0.340235
     88          1           0       12.249476    1.552838    0.896397
     89          1           0       11.662722    3.258709    0.372617
     90          1           0        8.897779    0.718749    4.286576
     91          1           0       10.352088    1.632710    4.459134
     92          1           0        9.773400   -0.545904    5.593796
     93          1           0       11.384051   -0.065881    5.325855
     94          1           0       10.898240   -1.163348    4.231651
     95          1           0        8.587862   -3.739841    3.465191
     96          1           0        8.025167   -4.871311    2.215904
     97          1           0        7.113020   -4.684705    3.649702
     98          1           0        2.428118   -3.276471    1.548932
     99          1           0        1.680617   -6.183214   -1.563759
    100          1           0        0.506204   -4.947801   -1.984685
    101          1           0        0.251513   -6.308080   -0.853507
    102          1           0       -4.263412   -2.427815    0.464161
    103          1           0       -3.894486   -3.383616   -0.940682
    104          1           0       -4.509668   -0.362054   -1.140070
    105          1           0       -6.870712   -3.029038   -3.198655
    106          1           0       -7.385415   -3.235678   -1.513699
    107          1           0       -5.871188   -3.892337   -2.006045
    108          1           0       -6.909013   -0.643270   -3.485234
    109          1           0       -6.145508    0.375568   -2.455444
    110          1           0       -8.019809    0.767548   -1.188917
    111          1           0       -7.968960   -0.829556   -0.710269
    112          1           0       -9.078890   -0.652521   -3.558131
    113          1           0       -9.663814    0.635502   -2.558779
    114          1           0      -10.302698   -1.748749   -1.072420
    115          1           0      -10.901549   -2.526518   -3.928199
    116          1           0      -11.012334   -3.375043   -2.409249
    117          1           0       -9.486405   -3.122182   -3.203883
    118          1           0      -12.533599   -1.556774   -2.179082
    119          1           0      -11.892942   -0.070493   -3.077324
    120          1           0      -11.021599    0.617296   -0.691806
    121          1           0      -12.200175   -0.503965   -0.051146
    122          1           0      -13.584315    1.186679   -2.008251
    123          1           0      -12.698785    2.192155   -0.956540
    124          1           0      -13.953380    0.126963    0.880644
    125          1           0      -16.430548    0.181866    0.149958
    126          1           0      -15.329326   -0.682394   -0.849754
    127          1           0      -15.851109    0.925997   -1.395861
    128          1           0      -15.692553    2.511974    0.825040
    129          1           0      -13.978130    2.993216    0.672355
    130          1           0      -13.932456    1.064782    2.635851
    131          1           0      -15.513964    1.771093    2.807940
    132          1           0      -14.191835    4.063715    2.745569
    133          1           0      -12.760863    3.109102    3.001699
    134          1           0      -14.699495    2.121078    4.920513
    135          1           0      -14.427498    4.977926    5.820397
    136          1           0      -15.594926    3.716323    6.100017
    137          1           0      -15.661600    4.594808    4.573890
    138          1           0      -12.073642    2.268415    5.222035
    139          1           0      -13.071264    2.886210    6.621722
    140          1           0      -12.287841    3.962477    5.382626
 ---------------------------------------------------------------------

 SCF Done:  E(RZINDO/S) =  -474.146146910     A.U. after   19 cycles

 Excitation energies and oscillator strengths:

 Excited State   1:      Singlet-A      1.3935 eV  889.71 nm  f=0.5065  <S**2>=0.000
     175 ->178         0.13452
     176 ->177         0.67745
 This state for optimization and/or second-order correction.
 Total Energy, E(CIS/TDA) =  -474.094935382
 Copying the excited state density for this state as the 1-particle RhoCI density.

 Excited State   2:      Singlet-A      2.0021 eV  619.26 nm  f=0.0420  <S**2>=0.000
     175 ->177         0.53345
     176 ->178        -0.41007
     176 ->179         0.10560

 Excited State   3:      Singlet-A      2.9381 eV  421.99 nm  f=0.0349  <S**2>=0.000
     166 ->177         0.15373
     166 ->179        -0.21375
     167 ->177         0.24396
     167 ->178        -0.14489
     167 ->179        -0.32561
     167 ->181         0.12178
     167 ->183        -0.10544
     167 ->184        -0.10859
     168 ->177        -0.12685
     168 ->179         0.15705
     170 ->177        -0.10511
     176 ->178        -0.13852

 Excited State   4:      Singlet-A      2.9881 eV  414.93 nm  f=0.6993  <S**2>=0.000
     171 ->177         0.11970
     171 ->179         0.11222
     171 ->181         0.16850
     175 ->177         0.32817
     176 ->178         0.47686
     176 ->179         0.10831

 Excited State   5:      Singlet-A      3.0109 eV  411.79 nm  f=0.1822  <S**2>=0.000
     171 ->177         0.22710
     171 ->179         0.24049
     171 ->180         0.16101
     171 ->181         0.36607
     171 ->185        -0.16073
     171 ->188         0.14096
     171 ->190        -0.11694
     175 ->177        -0.17760
     176 ->178        -0.22498

 The electronic state is 1-A.
 Alpha  occ. eigenvalues --   -1.86052  -1.81861  -1.78803  -1.73292  -1.69620
 Alpha  occ. eigenvalues --   -1.69144  -1.64194  -1.60813  -1.60024  -1.55772
 Alpha  occ. eigenvalues --   -1.53952  -1.50739  -1.49084  -1.48103  -1.45736
 Alpha  occ. eigenvalues --   -1.44608  -1.42382  -1.40692  -1.40230  -1.37421
 Alpha  occ. eigenvalues --   -1.36115  -1.33745  -1.32404  -1.31617  -1.28879
 Alpha  occ. eigenvalues --   -1.28164  -1.25500  -1.23444  -1.21801  -1.18248
 Alpha  occ. eigenvalues --   -1.17527  -1.15430  -1.14726  -1.13908  -1.13355
 Alpha  occ. eigenvalues --   -1.12061  -1.11514  -1.10399  -1.04425  -1.03468
 Alpha  occ. eigenvalues --   -1.02741  -1.00681  -0.99295  -0.97922  -0.96243
 Alpha  occ. eigenvalues --   -0.95521  -0.95274  -0.94236  -0.93316  -0.92371
 Alpha  occ. eigenvalues --   -0.91515  -0.90507  -0.88915  -0.88059  -0.86877
 Alpha  occ. eigenvalues --   -0.86672  -0.84638  -0.83528  -0.81717  -0.80116
 Alpha  occ. eigenvalues --   -0.79545  -0.78497  -0.76957  -0.75969  -0.75298
 Alpha  occ. eigenvalues --   -0.74869  -0.74293  -0.73841  -0.73295  -0.73058
 Alpha  occ. eigenvalues --   -0.72556  -0.72375  -0.71885  -0.71472  -0.70994
 Alpha  occ. eigenvalues --   -0.70856  -0.69238  -0.68518  -0.68233  -0.67802
 Alpha  occ. eigenvalues --   -0.67524  -0.67239  -0.66284  -0.66130  -0.65499
 Alpha  occ. eigenvalues --   -0.65097  -0.64683  -0.64134  -0.63903  -0.63073
 Alpha  occ. eigenvalues --   -0.62789  -0.62567  -0.62265  -0.61863  -0.61503
 Alpha  occ. eigenvalues --   -0.61312  -0.61182  -0.60642  -0.60243  -0.60090
 Alpha  occ. eigenvalues --   -0.59740  -0.59479  -0.59321  -0.58884  -0.58678
 Alpha  occ. eigenvalues --   -0.58414  -0.57804  -0.57598  -0.56790  -0.56216
 Alpha  occ. eigenvalues --   -0.55738  -0.55392  -0.55286  -0.54936  -0.54813
 Alpha  occ. eigenvalues --   -0.53913  -0.53758  -0.53505  -0.52979  -0.52491
 Alpha  occ. eigenvalues --   -0.51900  -0.51782  -0.51682  -0.51360  -0.51095
 Alpha  occ. eigenvalues --   -0.50932  -0.50774  -0.50704  -0.50463  -0.50276
 Alpha  occ. eigenvalues --   -0.49903  -0.49738  -0.49586  -0.49194  -0.48682
 Alpha  occ. eigenvalues --   -0.48542  -0.48426  -0.47965  -0.47819  -0.47615
 Alpha  occ. eigenvalues --   -0.47455  -0.47336  -0.47228  -0.47223  -0.46956
 Alpha  occ. eigenvalues --   -0.46864  -0.46376  -0.46071  -0.45764  -0.45639
 Alpha  occ. eigenvalues --   -0.45222  -0.44780  -0.44318  -0.44000  -0.43901
 Alpha  occ. eigenvalues --   -0.43620  -0.43287  -0.42916  -0.42010  -0.41594
 Alpha  occ. eigenvalues --   -0.41389  -0.40896  -0.40363  -0.39361  -0.38768
 Alpha  occ. eigenvalues --   -0.37369  -0.37134  -0.36855  -0.34877  -0.34601
 Alpha  occ. eigenvalues --   -0.33103  -0.32960  -0.32253  -0.30902  -0.27145
 Alpha  occ. eigenvalues --   -0.22018
 Alpha virt. eigenvalues --   -0.08130  -0.01941  -0.01111   0.01145   0.01310
 Alpha virt. eigenvalues --    0.02649   0.03330   0.03934   0.04390   0.05198
 Alpha virt. eigenvalues --    0.05338   0.06685   0.07396   0.07592   0.07784

 Mulliken charges:
               1
     1  Mg   0.428365
     2  C   -0.018819
     3  C   -0.092109
     4  C   -0.087719
     5  C   -0.057726
     6  N   -0.282514
     7  C    0.084123
     8  C    0.006580
     9  C   -0.006813
    10  C    0.175494
    11  C   -0.049268
    12  C   -0.022001
    13  C    0.006086
    14  C    0.466524
    15  O   -0.512130
    16  O   -0.271264
    17  N   -0.338687
    18  C    0.152181
    19  C    0.029167
    20  C   -0.051254
    21  C    0.158987
    22  C   -0.043391
    23  C    0.347001
    24  O   -0.514345
    25  C   -0.029764
    26  N   -0.267104
    27  C    0.192394
    28  C    0.000284
    29  C    0.000193
    30  C    0.088843
    31  C   -0.055807
    32  C   -0.033572
    33  C   -0.058169
    34  N   -0.307810
    35  C    0.070772
    36  C   -0.009053
    37  C   -0.054149
    38  C    0.091360
    39  C   -0.040243
    40  C    0.325270
    41  O   -0.558139
    42  C    0.047553
    43  C    0.496564
    44  O   -0.534874
    45  O   -0.263008
    46  C    0.059073
    47  C    0.106688
    48  C   -0.084562
    49  C   -0.015254
    50  C   -0.048326
    51  C   -0.028094
    52  C   -0.024076
    53  C   -0.028610
    54  C   -0.010781
    55  C   -0.058061
    56  C   -0.034925
    57  C   -0.046498
    58  C   -0.053877
    59  C   -0.017249
    60  C   -0.056110
    61  C   -0.045042
    62  C   -0.043182
    63  C   -0.034108
    64  C   -0.017955
    65  C   -0.067891
    66  C   -0.047757
    67  H    0.019940
    68  H    0.044370
    69  H    0.016354
    70  H    0.055213
    71  H    0.029150
    72  H    0.034083
    73  H    0.015153
    74  H    0.033076
    75  H    0.031941
    76  H    0.022278
    77  H    0.045126
    78  H    0.025435
    79  H    0.030700
    80  H    0.040123
    81  H    0.032466
    82  H    0.032406
    83  H    0.035446
    84  H    0.054113
    85  H    0.039333
    86  H    0.038358
    87  H    0.021840
    88  H    0.032899
    89  H    0.038333
    90  H    0.023137
    91  H    0.017979
    92  H    0.024495
    93  H    0.002931
    94  H    0.022948
    95  H    0.024249
    96  H    0.029810
    97  H    0.028971
    98  H    0.058494
    99  H    0.036254
   100  H    0.053513
   101  H    0.043472
   102  H    0.031503
   103  H    0.072894
   104  H    0.025189
   105  H    0.024145
   106  H    0.026501
   107  H    0.023401
   108  H    0.022270
   109  H    0.008286
   110  H    0.016364
   111  H    0.027788
   112  H    0.025244
   113  H    0.012777
   114  H    0.023242
   115  H    0.014150
   116  H    0.006930
   117  H    0.015125
   118  H    0.024755
   119  H    0.032005
   120  H    0.021062
   121  H    0.020460
   122  H    0.021266
   123  H    0.021370
   124  H    0.035632
   125  H    0.019465
   126  H    0.007359
   127  H    0.025436
   128  H    0.022478
   129  H    0.019072
   130  H    0.016073
   131  H    0.015695
   132  H    0.023626
   133  H    0.015988
   134  H    0.026120
   135  H    0.022047
   136  H    0.010766
   137  H    0.020594
   138  H    0.014278
   139  H    0.022850
   140  H    0.019993
 Sum of Mulliken charges =  -0.00000

 Dipole moment (field-independent basis, Debye):
    X=             -4.6715    Y=             12.5656    Z=             -3.6686  Tot=             13.8988
 N-N= 4.162848700179D+03 E-N= 0.000000000000D+00  KE=-9.000115750977D+03
 Leave Link  601 at Thu Apr 28 03:51:11 2022, MaxMem=  6710886400 cpu:               0.8 elap:               0.0
 (Enter /sw/apps/gaussian-16.0/g16/l9999.exe)
 1\1\GINC-BP1-COMPUTE132\SP\RZINDO CIS\STO-3G\C55H74Mg1N4O6\OF15641\28-
 Apr-2022\0\\#p ZINDO=(nstates=5)\\step_1401_chromophore_7 ZINDO\\0,1\M
 g,0,26.5,-0.442,29.118\C,0,28.129,-0.897,32.123\C,0,23.53,-0.6,30.871\
 C,0,24.771,-0.219,26.172\C,0,29.259,-1.062,27.371\N,0,25.948,-0.72,31.
 223\C,0,26.801,-0.765,32.312\C,0,26.116,-0.792,33.706\C,0,24.574,-0.67
 9,33.25\C,0,24.673,-0.622,31.69\C,0,23.682,-1.79,33.848\C,0,26.491,0.3
 31,34.685\C,0,25.672,0.38,35.991\C,0,26.471,0.228,37.27\O,0,26.873,-0.

 Normal termination of Gaussian 16 at Thu Apr 28 03:51:11 2022.
