 Gaussian 16, Revision A.03,
 Gaussian 16:  ES64L-G16RevA.03 25-Dec-2016

 ------------------------------
 #p blyp/Def2SVP td=(nstates=5)
 ------------------------------

 --------------------------------------------------
 step_851_chromophore_27 TDDFT with blyp functional
 --------------------------------------------------
 Symbolic Z-matrix:
 Charge =  0 Multiplicity = 1

                         Standard orientation:
 ---------------------------------------------------------------------
 Center     Atomic      Atomic             Coordinates (Angstroms)
 Number     Number       Type             X           Y           Z
 ---------------------------------------------------------------------
      1         12           0       -4.390030    0.947419   -0.006811
      2          6           0       -3.824636   -2.505855    0.377791
      3          6           0       -0.922788    1.391170    0.169873
      4          6           0       -4.928052    4.101861   -0.248292
      5          6           0       -7.817569    0.286057    0.034359
      6          7           0       -2.514280   -0.402236    0.237643
      7          6           0       -2.585724   -1.755605    0.340956
      8          6           0       -1.265927   -2.388968    0.284358
      9          6           0       -0.377239   -1.153477    0.570641
     10          6           0       -1.254867    0.045854    0.218042
     11          6           0        0.114149   -1.043265    2.052416
     12          6           0       -0.960483   -3.099476   -1.000917
     13          6           0       -0.162032   -4.359338   -0.818085
     14          6           0        1.138622   -4.440351   -1.642791
     15          8           0        1.276761   -4.323188   -2.831675
     16          8           0        2.206331   -4.595974   -0.835466
     17          7           0       -3.156523    2.533677   -0.163241
     18          6           0       -1.736082    2.577946   -0.027248
     19          6           0       -1.284769    3.954490   -0.100820
     20          6           0       -2.457786    4.717817   -0.385604
     21          6           0       -3.599855    3.771966   -0.322091
     22          6           0        0.158097    4.491849    0.132896
     23          6           0       -2.643703    6.162257   -0.703767
     24          8           0       -3.717356    6.711747   -0.901872
     25          6           0       -1.428246    7.028705   -0.897031
     26          7           0       -6.120572    2.043731   -0.018889
     27          6           0       -6.067673    3.395398    0.007525
     28          6           0       -7.473652    3.968302    0.027021
     29          6           0       -8.412658    2.763564   -0.041319
     30          6           0       -7.414849    1.594161   -0.043188
     31          6           0       -7.756335    5.020634    1.105201
     32          6           0       -9.183481    2.711975   -1.387181
     33          6           0      -10.296347    1.787044   -1.458202
     34          7           0       -5.615840   -0.727637    0.292854
     35          6           0       -6.975050   -0.849096    0.226393
     36          6           0       -7.318929   -2.257228    0.556662
     37          6           0       -6.097969   -2.963141    0.573784
     38          6           0       -5.119940   -1.967325    0.468636
     39          6           0       -8.675612   -2.812818    0.847409
     40          6           0       -5.491756   -4.246893    0.700869
     41          8           0       -5.936561   -5.337212    0.917728
     42          6           0       -4.007645   -4.022051    0.551805
     43          6           0       -3.422656   -4.469278    1.868454
     44          8           0       -3.687559   -3.978417    2.985868
     45          8           0       -2.518901   -5.516814    1.588565
     46          6           0       -1.551411   -5.776842    2.672667
     47          6           0        3.462251   -4.674251   -1.588860
     48          6           0        4.046565   -3.283473   -1.801796
     49          6           0        5.284726   -2.805416   -1.481616
     50          6           0        6.310479   -3.647583   -0.635927
     51          6           0        5.843099   -1.499889   -1.965969
     52          6           0        6.127102   -1.472765   -3.522780
     53          6           0        7.598178   -1.084262   -3.925801
     54          6           0        7.563646    0.466159   -4.207333
     55          6           0        7.482239    0.698470   -5.776919
     56          6           0        8.681778    1.146560   -3.504762
     57          6           0        8.209424    1.838772   -2.130982
     58          6           0        9.296647    2.328356   -1.156611
     59          6           0        9.072205    1.861550    0.291895
     60          6           0        9.306102    0.291554    0.379266
     61          6           0        9.942344    2.678370    1.332601
     62          6           0        9.387126    2.700044    2.755896
     63          6           0       10.396342    2.342793    3.876060
     64          6           0        9.866323    1.299107    4.796850
     65          6           0        8.703586    1.908610    5.621969
     66          6           0       10.996599    0.721690    5.704062
     67          1           0        0.153964    1.553680    0.259935
     68          1           0       -5.264112    5.118917   -0.038980
     69          1           0       -8.848080   -0.054835    0.153952
     70          1           0       -1.147997   -3.046173    1.146042
     71          1           0        0.584527   -1.217575    0.061335
     72          1           0        1.201483   -1.022237    2.116248
     73          1           0       -0.269954   -1.838425    2.692610
     74          1           0       -0.051483   -0.092950    2.559375
     75          1           0       -0.399446   -2.413549   -1.635783
     76          1           0       -1.856262   -3.326598   -1.580219
     77          1           0       -0.798072   -5.178212   -1.153897
     78          1           0        0.116480   -4.552856    0.217762
     79          1           0        0.776346    3.602877    0.259115
     80          1           0        0.139662    5.031881    1.079063
     81          1           0        0.666698    4.981130   -0.698314
     82          1           0       -1.024002    7.218752    0.097644
     83          1           0       -1.717904    7.994659   -1.311678
     84          1           0       -0.773066    6.619021   -1.665065
     85          1           0       -7.575906    4.383490   -0.976078
     86          1           0       -8.964649    2.659507    0.892748
     87          1           0       -6.887009    5.193247    1.739330
     88          1           0       -8.589355    4.873117    1.792059
     89          1           0       -7.985924    5.972815    0.626593
     90          1           0       -8.540588    2.606344   -2.261702
     91          1           0       -9.647930    3.696556   -1.452756
     92          1           0      -10.521998    1.128081   -0.619742
     93          1           0      -10.013990    1.165342   -2.308804
     94          1           0      -11.188282    2.370225   -1.684972
     95          1           0       -8.561598   -3.891819    0.743569
     96          1           0       -9.476638   -2.450563    0.203208
     97          1           0       -8.819759   -2.601244    1.906561
     98          1           0       -3.736911   -4.653081   -0.295493
     99          1           0       -1.032162   -6.710687    2.456179
    100          1           0       -1.965715   -5.901913    3.672808
    101          1           0       -0.849441   -4.944622    2.640934
    102          1           0        3.495423   -5.358885   -2.436798
    103          1           0        3.996601   -5.123685   -0.751732
    104          1           0        3.422708   -2.505938   -2.242395
    105          1           0        6.627398   -2.880743    0.071181
    106          1           0        7.142564   -3.784474   -1.326003
    107          1           0        5.933543   -4.557849   -0.170183
    108          1           0        6.859498   -1.336223   -1.606105
    109          1           0        5.119940   -0.709260   -1.764554
    110          1           0        5.437042   -0.841879   -4.082732
    111          1           0        5.916347   -2.484272   -3.872150
    112          1           0        7.839414   -1.519090   -4.896241
    113          1           0        8.432479   -1.335641   -3.271333
    114          1           0        6.605536    0.866911   -3.877658
    115          1           0        8.460168    0.785576   -6.250448
    116          1           0        6.910191    1.590411   -6.030976
    117          1           0        6.896731   -0.069862   -6.282925
    118          1           0        9.039400    1.960146   -4.136460
    119          1           0        9.512973    0.472427   -3.296549
    120          1           0        7.546875    1.119818   -1.649552
    121          1           0        7.563342    2.716690   -2.168391
    122          1           0        9.220326    3.415105   -1.191599
    123          1           0       10.343949    2.256503   -1.449238
    124          1           0        8.022527    1.993564    0.554108
    125          1           0        8.396453   -0.285369    0.546139
    126          1           0       10.017581    0.124071    1.187511
    127          1           0        9.679424   -0.064356   -0.580490
    128          1           0       10.042536    3.642408    0.834784
    129          1           0       10.909626    2.178027    1.283734
    130          1           0        8.409897    2.218177    2.796584
    131          1           0        9.249186    3.778708    2.826972
    132          1           0       10.670931    3.179615    4.518618
    133          1           0       11.377697    2.118734    3.459279
    134          1           0        9.527915    0.515545    4.118580
    135          1           0        7.736545    1.474933    5.370529
    136          1           0        8.728511    2.998032    5.628053
    137          1           0        8.845165    1.607616    6.659939
    138          1           0       10.792144   -0.334951    5.537290
    139          1           0       10.918200    0.985256    6.758403
    140          1           0       11.939970    0.892352    5.184431
 ---------------------------------------------------------------------

 SCF Done:  E(RB-LYP) =  -3007.34265953     A.U. after   20 cycles

 Excitation energies and oscillator strengths:

 Excited State   1:      Singlet-A      1.7131 eV  723.76 nm  f=0.0027  <S**2>=0.000
     244 -> 247        0.63017
     245 -> 247       -0.31892
 This state for optimization and/or second-order correction.
 Total Energy, E(TD-HF/TD-DFT) =  -3007.27970567
 Copying the excited state density for this state as the 1-particle RhoCI density.

 Excited State   2:      Singlet-A      1.8431 eV  672.69 nm  f=0.3185  <S**2>=0.000
     245 -> 248       -0.20020
     246 -> 247        0.68900
     246 <- 247       -0.14884

 Excited State   3:      Singlet-A      2.0439 eV  606.59 nm  f=0.0750  <S**2>=0.000
     244 -> 247        0.30203
     245 -> 247        0.57485
     246 -> 248        0.24989

 Excited State   4:      Singlet-A      2.0882 eV  593.73 nm  f=0.0020  <S**2>=0.000
     243 -> 247        0.70161

 Excited State   5:      Singlet-A      2.3213 eV  534.12 nm  f=0.0001  <S**2>=0.000
     242 -> 247        0.70708

 The electronic state is 1-A.
 Alpha  occ. eigenvalues --  -46.26463 -18.82644 -18.82091 -18.77741 -18.76376
 Alpha  occ. eigenvalues --  -18.75649 -18.74722 -14.03082 -14.02399 -14.01257
 Alpha  occ. eigenvalues --  -14.00842 -10.04778 -10.03446  -9.99085  -9.98918
 Alpha  occ. eigenvalues --   -9.98112  -9.98063  -9.96558  -9.96469  -9.96174
 Alpha  occ. eigenvalues --   -9.96134  -9.95653  -9.95508  -9.95411  -9.94523
 Alpha  occ. eigenvalues --   -9.94358  -9.94181  -9.94049  -9.93974  -9.93823
 Alpha  occ. eigenvalues --   -9.93660  -9.93619  -9.93545  -9.93436  -9.93323
 Alpha  occ. eigenvalues --   -9.93314  -9.93092  -9.93047  -9.92820  -9.92719
 Alpha  occ. eigenvalues --   -9.92416  -9.92385  -9.92371  -9.92320  -9.92319
 Alpha  occ. eigenvalues --   -9.92140  -9.92067  -9.92056  -9.91970  -9.91870
 Alpha  occ. eigenvalues --   -9.91750  -9.91720  -9.91718  -9.91617  -9.91249
 Alpha  occ. eigenvalues --   -9.91243  -9.91233  -9.91132  -9.91106  -9.91040
 Alpha  occ. eigenvalues --   -9.91027  -9.90976  -9.90859  -9.90747  -9.90697
 Alpha  occ. eigenvalues --   -9.90696  -2.91235  -1.71674  -1.71118  -1.70941
 Alpha  occ. eigenvalues --   -0.99219  -0.96469  -0.92898  -0.90989  -0.90187
 Alpha  occ. eigenvalues --   -0.89475  -0.87207  -0.86447  -0.85881  -0.84957
 Alpha  occ. eigenvalues --   -0.76145  -0.74093  -0.73612  -0.73278  -0.73116
 Alpha  occ. eigenvalues --   -0.72259  -0.71990  -0.71096  -0.70882  -0.70288
 Alpha  occ. eigenvalues --   -0.69645  -0.69419  -0.68270  -0.67900  -0.67501
 Alpha  occ. eigenvalues --   -0.66743  -0.65944  -0.65171  -0.64892  -0.64160
 Alpha  occ. eigenvalues --   -0.63599  -0.62639  -0.62498  -0.62134  -0.61199
 Alpha  occ. eigenvalues --   -0.60532  -0.60357  -0.60332  -0.60107  -0.59468
 Alpha  occ. eigenvalues --   -0.58689  -0.57754  -0.56908  -0.55862  -0.54729
 Alpha  occ. eigenvalues --   -0.54514  -0.54099  -0.52717  -0.52615  -0.51802
 Alpha  occ. eigenvalues --   -0.51617  -0.51064  -0.50849  -0.50652  -0.50063
 Alpha  occ. eigenvalues --   -0.49407  -0.49158  -0.48859  -0.48676  -0.46910
 Alpha  occ. eigenvalues --   -0.46507  -0.46073  -0.45785  -0.45390  -0.45072
 Alpha  occ. eigenvalues --   -0.44769  -0.44521  -0.43046  -0.42475  -0.42306
 Alpha  occ. eigenvalues --   -0.42249  -0.42015  -0.41646  -0.41456  -0.41429
 Alpha  occ. eigenvalues --   -0.41255  -0.41114  -0.40894  -0.40304  -0.40270
 Alpha  occ. eigenvalues --   -0.40111  -0.39856  -0.39709  -0.39685  -0.39249
 Alpha  occ. eigenvalues --   -0.38954  -0.38862  -0.38834  -0.38598  -0.38417
 Alpha  occ. eigenvalues --   -0.38241  -0.38134  -0.38016  -0.37446  -0.37226
 Alpha  occ. eigenvalues --   -0.37147  -0.37067  -0.36698  -0.36373  -0.36272
 Alpha  occ. eigenvalues --   -0.36130  -0.36089  -0.36002  -0.35580  -0.35544
 Alpha  occ. eigenvalues --   -0.35521  -0.35359  -0.35110  -0.34889  -0.34790
 Alpha  occ. eigenvalues --   -0.34589  -0.34582  -0.34285  -0.34061  -0.33982
 Alpha  occ. eigenvalues --   -0.33930  -0.33606  -0.33535  -0.33271  -0.33108
 Alpha  occ. eigenvalues --   -0.32983  -0.32883  -0.32783  -0.32433  -0.32328
 Alpha  occ. eigenvalues --   -0.32209  -0.32058  -0.31729  -0.31522  -0.31474
 Alpha  occ. eigenvalues --   -0.31407  -0.31173  -0.31093  -0.30881  -0.30762
 Alpha  occ. eigenvalues --   -0.30674  -0.30509  -0.30277  -0.30225  -0.30159
 Alpha  occ. eigenvalues --   -0.30074  -0.29790  -0.29672  -0.29139  -0.28785
 Alpha  occ. eigenvalues --   -0.28761  -0.28618  -0.28180  -0.28029  -0.27911
 Alpha  occ. eigenvalues --   -0.27737  -0.27450  -0.27192  -0.27077  -0.26690
 Alpha  occ. eigenvalues --   -0.26564  -0.26398  -0.25822  -0.25474  -0.25397
 Alpha  occ. eigenvalues --   -0.25252  -0.24754  -0.24474  -0.23998  -0.23900
 Alpha  occ. eigenvalues --   -0.23382  -0.22755  -0.22108  -0.21692  -0.20879
 Alpha  occ. eigenvalues --   -0.20735  -0.20021  -0.19047  -0.17781  -0.17207
 Alpha  occ. eigenvalues --   -0.15858
 Alpha virt. eigenvalues --   -0.11491  -0.06706  -0.06166  -0.04329  -0.03716
 Alpha virt. eigenvalues --   -0.02528  -0.01820  -0.01465  -0.00801   0.00506
 Alpha virt. eigenvalues --    0.00980   0.01577   0.01754   0.02074   0.02844

 Mulliken charges:
               1
     1  Mg   0.703485
     2  C   -0.040027
     3  C   -0.053608
     4  C   -0.023883
     5  C   -0.061926
     6  N   -0.163455
     7  C   -0.073735
     8  C    0.029992
     9  C   -0.003011
    10  C    0.018121
    11  C    0.105145
    12  C    0.162193
    13  C    0.157581
    14  C    0.019357
    15  O   -0.182178
    16  O   -0.258229
    17  N   -0.314404
    18  C    0.138614
    19  C   -0.149698
    20  C    0.046145
    21  C    0.156742
    22  C    0.177479
    23  C   -0.112842
    24  O   -0.162254
    25  C    0.146130
    26  N   -0.254294
    27  C   -0.055083
    28  C    0.064951
    29  C    0.029547
    30  C    0.049756
    31  C    0.135704
    32  C    0.072542
    33  C    0.116829
    34  N   -0.237040
    35  C    0.040176
    36  C   -0.192112
    37  C    0.089852
    38  C    0.085867
    39  C    0.174035
    40  C   -0.106103
    41  O   -0.101073
    42  C    0.123743
    43  C    0.136484
    44  O   -0.192850
    45  O   -0.291862
    46  C    0.218053
    47  C    0.350650
    48  C   -0.091876
    49  C   -0.186053
    50  C    0.138219
    51  C    0.144701
    52  C    0.046144
    53  C    0.103614
    54  C   -0.095308
    55  C    0.089083
    56  C    0.165443
    57  C    0.033078
    58  C    0.105870
    59  C   -0.127593
    60  C    0.093050
    61  C    0.087952
    62  C    0.135619
    63  C    0.086462
    64  C   -0.139686
    65  C    0.129599
    66  C    0.138762
    67  H   -0.067082
    68  H   -0.038938
    69  H   -0.074528
    70  H   -0.026011
    71  H   -0.036806
    72  H   -0.017929
    73  H    0.000173
    74  H   -0.014754
    75  H   -0.013565
    76  H   -0.021376
    77  H    0.003666
    78  H   -0.018416
    79  H   -0.034160
    80  H    0.016674
    81  H    0.010573
    82  H    0.003330
    83  H   -0.022265
    84  H    0.003849
    85  H   -0.021010
    86  H   -0.030202
    87  H   -0.002725
    88  H   -0.015394
    89  H   -0.006241
    90  H   -0.013365
    91  H   -0.025453
    92  H   -0.002573
    93  H   -0.015600
    94  H   -0.014725
    95  H    0.006143
    96  H    0.005130
    97  H    0.011309
    98  H   -0.004855
    99  H    0.014353
   100  H    0.024994
   101  H    0.007312
   102  H    0.023753
   103  H   -0.033325
   104  H   -0.039704
   105  H   -0.000901
   106  H   -0.001125
   107  H   -0.001027
   108  H   -0.017204
   109  H   -0.009989
   110  H   -0.020914
   111  H   -0.033331
   112  H   -0.038210
   113  H   -0.026387
   114  H   -0.030011
   115  H   -0.011619
   116  H   -0.022406
   117  H   -0.020336
   118  H   -0.042931
   119  H   -0.027475
   120  H   -0.033599
   121  H   -0.030812
   122  H   -0.050972
   123  H   -0.039660
   124  H   -0.041241
   125  H   -0.010458
   126  H   -0.011933
   127  H   -0.015744
   128  H   -0.038078
   129  H   -0.036291
   130  H   -0.017670
   131  H   -0.036779
   132  H   -0.045653
   133  H   -0.045566
   134  H   -0.034206
   135  H   -0.013625
   136  H   -0.008305
   137  H   -0.034240
   138  H   -0.023880
   139  H    0.000599
   140  H   -0.024862
 Sum of Mulliken charges =  -0.00000

 Dipole moment (field-independent basis, Debye):
    X=              3.5050    Y=              1.7071    Z=              0.5538  Tot=              3.9377
 Quadrupole moment (field-independent basis, Debye-Ang):
   XX=           -378.0083   YY=           -432.9989   ZZ=           -413.8185
   XY=            -21.8938   XZ=              6.5279   YZ=              3.5049

 Normal termination of Gaussian 16 at Thu May  5 12:39:17 2022.
