 Gaussian 16, Revision A.03,
 Gaussian 16:  ES64L-G16RevA.03 25-Dec-2016

 -----------------------------------
 #p cam-b3lyp/Def2SVP td=(nstates=5)
 -----------------------------------

 -------------------------------------------------------
 step_851_chromophore_27 TDDFT with cam-b3lyp functional
 -------------------------------------------------------
 Symbolic Z-matrix:
 Charge =  0 Multiplicity = 1

                         Standard orientation:
 ---------------------------------------------------------------------
 Center     Atomic      Atomic             Coordinates (Angstroms)
 Number     Number       Type             X           Y           Z
 ---------------------------------------------------------------------
      1         12           0       -4.390030    0.947419   -0.006811
      2          6           0       -3.824636   -2.505855    0.377791
      3          6           0       -0.922788    1.391170    0.169873
      4          6           0       -4.928052    4.101861   -0.248292
      5          6           0       -7.817569    0.286057    0.034359
      6          7           0       -2.514280   -0.402236    0.237643
      7          6           0       -2.585724   -1.755605    0.340956
      8          6           0       -1.265927   -2.388968    0.284358
      9          6           0       -0.377239   -1.153477    0.570641
     10          6           0       -1.254867    0.045854    0.218042
     11          6           0        0.114149   -1.043265    2.052416
     12          6           0       -0.960483   -3.099476   -1.000917
     13          6           0       -0.162032   -4.359338   -0.818085
     14          6           0        1.138622   -4.440351   -1.642791
     15          8           0        1.276761   -4.323188   -2.831675
     16          8           0        2.206331   -4.595974   -0.835466
     17          7           0       -3.156523    2.533677   -0.163241
     18          6           0       -1.736082    2.577946   -0.027248
     19          6           0       -1.284769    3.954490   -0.100820
     20          6           0       -2.457786    4.717817   -0.385604
     21          6           0       -3.599855    3.771966   -0.322091
     22          6           0        0.158097    4.491849    0.132896
     23          6           0       -2.643703    6.162257   -0.703767
     24          8           0       -3.717356    6.711747   -0.901872
     25          6           0       -1.428246    7.028705   -0.897031
     26          7           0       -6.120572    2.043731   -0.018889
     27          6           0       -6.067673    3.395398    0.007525
     28          6           0       -7.473652    3.968302    0.027021
     29          6           0       -8.412658    2.763564   -0.041319
     30          6           0       -7.414849    1.594161   -0.043188
     31          6           0       -7.756335    5.020634    1.105201
     32          6           0       -9.183481    2.711975   -1.387181
     33          6           0      -10.296347    1.787044   -1.458202
     34          7           0       -5.615840   -0.727637    0.292854
     35          6           0       -6.975050   -0.849096    0.226393
     36          6           0       -7.318929   -2.257228    0.556662
     37          6           0       -6.097969   -2.963141    0.573784
     38          6           0       -5.119940   -1.967325    0.468636
     39          6           0       -8.675612   -2.812818    0.847409
     40          6           0       -5.491756   -4.246893    0.700869
     41          8           0       -5.936561   -5.337212    0.917728
     42          6           0       -4.007645   -4.022051    0.551805
     43          6           0       -3.422656   -4.469278    1.868454
     44          8           0       -3.687559   -3.978417    2.985868
     45          8           0       -2.518901   -5.516814    1.588565
     46          6           0       -1.551411   -5.776842    2.672667
     47          6           0        3.462251   -4.674251   -1.588860
     48          6           0        4.046565   -3.283473   -1.801796
     49          6           0        5.284726   -2.805416   -1.481616
     50          6           0        6.310479   -3.647583   -0.635927
     51          6           0        5.843099   -1.499889   -1.965969
     52          6           0        6.127102   -1.472765   -3.522780
     53          6           0        7.598178   -1.084262   -3.925801
     54          6           0        7.563646    0.466159   -4.207333
     55          6           0        7.482239    0.698470   -5.776919
     56          6           0        8.681778    1.146560   -3.504762
     57          6           0        8.209424    1.838772   -2.130982
     58          6           0        9.296647    2.328356   -1.156611
     59          6           0        9.072205    1.861550    0.291895
     60          6           0        9.306102    0.291554    0.379266
     61          6           0        9.942344    2.678370    1.332601
     62          6           0        9.387126    2.700044    2.755896
     63          6           0       10.396342    2.342793    3.876060
     64          6           0        9.866323    1.299107    4.796850
     65          6           0        8.703586    1.908610    5.621969
     66          6           0       10.996599    0.721690    5.704062
     67          1           0        0.153964    1.553680    0.259935
     68          1           0       -5.264112    5.118917   -0.038980
     69          1           0       -8.848080   -0.054835    0.153952
     70          1           0       -1.147997   -3.046173    1.146042
     71          1           0        0.584527   -1.217575    0.061335
     72          1           0        1.201483   -1.022237    2.116248
     73          1           0       -0.269954   -1.838425    2.692610
     74          1           0       -0.051483   -0.092950    2.559375
     75          1           0       -0.399446   -2.413549   -1.635783
     76          1           0       -1.856262   -3.326598   -1.580219
     77          1           0       -0.798072   -5.178212   -1.153897
     78          1           0        0.116480   -4.552856    0.217762
     79          1           0        0.776346    3.602877    0.259115
     80          1           0        0.139662    5.031881    1.079063
     81          1           0        0.666698    4.981130   -0.698314
     82          1           0       -1.024002    7.218752    0.097644
     83          1           0       -1.717904    7.994659   -1.311678
     84          1           0       -0.773066    6.619021   -1.665065
     85          1           0       -7.575906    4.383490   -0.976078
     86          1           0       -8.964649    2.659507    0.892748
     87          1           0       -6.887009    5.193247    1.739330
     88          1           0       -8.589355    4.873117    1.792059
     89          1           0       -7.985924    5.972815    0.626593
     90          1           0       -8.540588    2.606344   -2.261702
     91          1           0       -9.647930    3.696556   -1.452756
     92          1           0      -10.521998    1.128081   -0.619742
     93          1           0      -10.013990    1.165342   -2.308804
     94          1           0      -11.188282    2.370225   -1.684972
     95          1           0       -8.561598   -3.891819    0.743569
     96          1           0       -9.476638   -2.450563    0.203208
     97          1           0       -8.819759   -2.601244    1.906561
     98          1           0       -3.736911   -4.653081   -0.295493
     99          1           0       -1.032162   -6.710687    2.456179
    100          1           0       -1.965715   -5.901913    3.672808
    101          1           0       -0.849441   -4.944622    2.640934
    102          1           0        3.495423   -5.358885   -2.436798
    103          1           0        3.996601   -5.123685   -0.751732
    104          1           0        3.422708   -2.505938   -2.242395
    105          1           0        6.627398   -2.880743    0.071181
    106          1           0        7.142564   -3.784474   -1.326003
    107          1           0        5.933543   -4.557849   -0.170183
    108          1           0        6.859498   -1.336223   -1.606105
    109          1           0        5.119940   -0.709260   -1.764554
    110          1           0        5.437042   -0.841879   -4.082732
    111          1           0        5.916347   -2.484272   -3.872150
    112          1           0        7.839414   -1.519090   -4.896241
    113          1           0        8.432479   -1.335641   -3.271333
    114          1           0        6.605536    0.866911   -3.877658
    115          1           0        8.460168    0.785576   -6.250448
    116          1           0        6.910191    1.590411   -6.030976
    117          1           0        6.896731   -0.069862   -6.282925
    118          1           0        9.039400    1.960146   -4.136460
    119          1           0        9.512973    0.472427   -3.296549
    120          1           0        7.546875    1.119818   -1.649552
    121          1           0        7.563342    2.716690   -2.168391
    122          1           0        9.220326    3.415105   -1.191599
    123          1           0       10.343949    2.256503   -1.449238
    124          1           0        8.022527    1.993564    0.554108
    125          1           0        8.396453   -0.285369    0.546139
    126          1           0       10.017581    0.124071    1.187511
    127          1           0        9.679424   -0.064356   -0.580490
    128          1           0       10.042536    3.642408    0.834784
    129          1           0       10.909626    2.178027    1.283734
    130          1           0        8.409897    2.218177    2.796584
    131          1           0        9.249186    3.778708    2.826972
    132          1           0       10.670931    3.179615    4.518618
    133          1           0       11.377697    2.118734    3.459279
    134          1           0        9.527915    0.515545    4.118580
    135          1           0        7.736545    1.474933    5.370529
    136          1           0        8.728511    2.998032    5.628053
    137          1           0        8.845165    1.607616    6.659939
    138          1           0       10.792144   -0.334951    5.537290
    139          1           0       10.918200    0.985256    6.758403
    140          1           0       11.939970    0.892352    5.184431
 ---------------------------------------------------------------------

 SCF Done:  E(RCAM-B3LYP) =  -3007.14699691     A.U. after   17 cycles

 Excitation energies and oscillator strengths:

 Excited State   1:      Singlet-A      1.7353 eV  714.49 nm  f=0.3954  <S**2>=0.000
     245 -> 248        0.18830
     246 -> 247        0.68406
     245 <- 248        0.10911
 This state for optimization and/or second-order correction.
 Total Energy, E(TD-HF/TD-DFT) =  -3007.08322616
 Copying the excited state density for this state as the 1-particle RhoCI density.

 Excited State   2:      Singlet-A      2.2590 eV  548.86 nm  f=0.1161  <S**2>=0.000
     245 -> 247        0.64205
     246 -> 248       -0.28771

 Excited State   3:      Singlet-A      3.4483 eV  359.55 nm  f=0.0125  <S**2>=0.000
     241 -> 247        0.10026
     243 -> 247        0.56683
     243 -> 249        0.25080
     243 -> 250        0.20219
     246 -> 248       -0.11190

 Excited State   4:      Singlet-A      3.5042 eV  353.82 nm  f=0.0243  <S**2>=0.000
     239 -> 247       -0.11650
     241 -> 247       -0.44064
     242 -> 247        0.47079
     246 -> 248       -0.16355

 Excited State   5:      Singlet-A      3.5624 eV  348.04 nm  f=0.4318  <S**2>=0.000
     241 -> 247        0.17237
     242 -> 247        0.33835
     245 -> 247        0.22163
     246 -> 248        0.53665

 The electronic state is 1-A.
 Alpha  occ. eigenvalues --  -46.87947 -19.25753 -19.24993 -19.21025 -19.19393
 Alpha  occ. eigenvalues --  -19.19133 -19.17746 -14.42143 -14.41004 -14.39653
 Alpha  occ. eigenvalues --  -14.39381 -10.40538 -10.38684 -10.34528 -10.33920
 Alpha  occ. eigenvalues --  -10.32221 -10.32205 -10.31151 -10.30615 -10.30601
 Alpha  occ. eigenvalues --  -10.30390 -10.30197 -10.29789 -10.29654 -10.29065
 Alpha  occ. eigenvalues --  -10.28809 -10.28670 -10.28631 -10.28351 -10.28134
 Alpha  occ. eigenvalues --  -10.27892 -10.27733 -10.27557 -10.27522 -10.27336
 Alpha  occ. eigenvalues --  -10.27167 -10.26926 -10.26867 -10.26564 -10.26431
 Alpha  occ. eigenvalues --  -10.26428 -10.26308 -10.26137 -10.26040 -10.26015
 Alpha  occ. eigenvalues --  -10.25882 -10.25871 -10.25840 -10.25721 -10.25628
 Alpha  occ. eigenvalues --  -10.25508 -10.25427 -10.25401 -10.25323 -10.25039
 Alpha  occ. eigenvalues --  -10.24985 -10.24907 -10.24883 -10.24842 -10.24796
 Alpha  occ. eigenvalues --  -10.24744 -10.24743 -10.24570 -10.24459 -10.24410
 Alpha  occ. eigenvalues --  -10.24353  -3.16632  -1.91543  -1.91089  -1.90938
 Alpha  occ. eigenvalues --   -1.17786  -1.15113  -1.11628  -1.09230  -1.08107
 Alpha  occ. eigenvalues --   -1.07551  -1.05064  -1.04163  -1.03505  -1.02358
 Alpha  occ. eigenvalues --   -0.93515  -0.91001  -0.90491  -0.89946  -0.89928
 Alpha  occ. eigenvalues --   -0.89004  -0.88584  -0.87727  -0.87503  -0.86908
 Alpha  occ. eigenvalues --   -0.86197  -0.85806  -0.84410  -0.84133  -0.83711
 Alpha  occ. eigenvalues --   -0.82801  -0.82024  -0.81061  -0.80776  -0.80093
 Alpha  occ. eigenvalues --   -0.79365  -0.78365  -0.78146  -0.77684  -0.76748
 Alpha  occ. eigenvalues --   -0.75866  -0.75718  -0.75597  -0.75468  -0.74769
 Alpha  occ. eigenvalues --   -0.73760  -0.72824  -0.71807  -0.70690  -0.69431
 Alpha  occ. eigenvalues --   -0.69275  -0.68651  -0.67107  -0.66996  -0.65857
 Alpha  occ. eigenvalues --   -0.65810  -0.65295  -0.64966  -0.64590  -0.64125
 Alpha  occ. eigenvalues --   -0.63374  -0.62973  -0.62822  -0.62591  -0.60631
 Alpha  occ. eigenvalues --   -0.60038  -0.59583  -0.59277  -0.58994  -0.58605
 Alpha  occ. eigenvalues --   -0.58353  -0.57900  -0.56173  -0.55609  -0.55482
 Alpha  occ. eigenvalues --   -0.55220  -0.55061  -0.54708  -0.54450  -0.54399
 Alpha  occ. eigenvalues --   -0.54140  -0.53909  -0.53560  -0.53150  -0.53014
 Alpha  occ. eigenvalues --   -0.52934  -0.52764  -0.52556  -0.52303  -0.51973
 Alpha  occ. eigenvalues --   -0.51688  -0.51519  -0.51339  -0.50970  -0.50869
 Alpha  occ. eigenvalues --   -0.50744  -0.50395  -0.50298  -0.49957  -0.49854
 Alpha  occ. eigenvalues --   -0.49588  -0.49259  -0.49147  -0.48709  -0.48433
 Alpha  occ. eigenvalues --   -0.48280  -0.48245  -0.48099  -0.47979  -0.47709
 Alpha  occ. eigenvalues --   -0.47369  -0.47299  -0.47198  -0.47182  -0.46851
 Alpha  occ. eigenvalues --   -0.46449  -0.46342  -0.46320  -0.45995  -0.45814
 Alpha  occ. eigenvalues --   -0.45751  -0.45730  -0.45334  -0.45223  -0.44851
 Alpha  occ. eigenvalues --   -0.44703  -0.44542  -0.44341  -0.44120  -0.43935
 Alpha  occ. eigenvalues --   -0.43738  -0.43492  -0.43371  -0.43240  -0.43179
 Alpha  occ. eigenvalues --   -0.42955  -0.42858  -0.42614  -0.42480  -0.42331
 Alpha  occ. eigenvalues --   -0.42088  -0.42007  -0.41953  -0.41625  -0.41453
 Alpha  occ. eigenvalues --   -0.41234  -0.41178  -0.40777  -0.40344  -0.40016
 Alpha  occ. eigenvalues --   -0.39749  -0.39636  -0.39218  -0.38985  -0.38707
 Alpha  occ. eigenvalues --   -0.38614  -0.38461  -0.38031  -0.37929  -0.37907
 Alpha  occ. eigenvalues --   -0.37432  -0.37307  -0.37040  -0.36796  -0.36373
 Alpha  occ. eigenvalues --   -0.36216  -0.35306  -0.35128  -0.35026  -0.34428
 Alpha  occ. eigenvalues --   -0.34396  -0.33861  -0.33323  -0.31497  -0.31398
 Alpha  occ. eigenvalues --   -0.30181  -0.30060  -0.29766  -0.29627  -0.23998
 Alpha  occ. eigenvalues --   -0.21169
 Alpha virt. eigenvalues --   -0.08600  -0.01561   0.00322   0.02603   0.03540
 Alpha virt. eigenvalues --    0.03984   0.04913   0.05469   0.06028   0.06772
 Alpha virt. eigenvalues --    0.07585   0.08014   0.08654   0.08702   0.09267

 Mulliken charges:
               1
     1  Mg   0.839660
     2  C   -0.065041
     3  C   -0.061398
     4  C   -0.044719
     5  C   -0.077988
     6  N   -0.226880
     7  C   -0.030080
     8  C   -0.027069
     9  C   -0.052559
    10  C    0.028507
    11  C    0.050236
    12  C    0.102043
    13  C    0.087897
    14  C    0.102922
    15  O   -0.223297
    16  O   -0.319839
    17  N   -0.403508
    18  C    0.137048
    19  C   -0.152885
    20  C   -0.030365
    21  C    0.182304
    22  C    0.126903
    23  C   -0.030994
    24  O   -0.204141
    25  C    0.062257
    26  N   -0.335240
    27  C   -0.020831
    28  C   -0.001197
    29  C   -0.026661
    30  C    0.079088
    31  C    0.071764
    32  C    0.017774
    33  C    0.047234
    34  N   -0.326247
    35  C    0.055977
    36  C   -0.185027
    37  C    0.008776
    38  C    0.128567
    39  C    0.119299
    40  C   -0.006090
    41  O   -0.138181
    42  C    0.046451
    43  C    0.225048
    44  O   -0.228506
    45  O   -0.355425
    46  C    0.178480
    47  C    0.305836
    48  C   -0.107973
    49  C   -0.206366
    50  C    0.080346
    51  C    0.086489
    52  C   -0.006091
    53  C    0.046806
    54  C   -0.151116
    55  C    0.033835
    56  C    0.107834
    57  C   -0.013477
    58  C    0.048186
    59  C   -0.175869
    60  C    0.040383
    61  C    0.041525
    62  C    0.066838
    63  C    0.034139
    64  C   -0.192926
    65  C    0.063920
    66  C    0.076346
    67  H   -0.031783
    68  H   -0.004213
    69  H   -0.039844
    70  H    0.003160
    71  H   -0.001639
    72  H    0.007115
    73  H    0.022474
    74  H    0.012539
    75  H    0.019774
    76  H    0.011702
    77  H    0.035790
    78  H    0.014964
    79  H   -0.007719
    80  H    0.042285
    81  H    0.036235
    82  H    0.030335
    83  H    0.014065
    84  H    0.030717
    85  H    0.016967
    86  H    0.006521
    87  H    0.023099
    88  H    0.010498
    89  H    0.018554
    90  H    0.016723
    91  H    0.004139
    92  H    0.019074
    93  H    0.009472
    94  H    0.010929
    95  H    0.033913
    96  H    0.029337
    97  H    0.039002
    98  H    0.039265
    99  H    0.038752
   100  H    0.051135
   101  H    0.025036
   102  H    0.054221
   103  H    0.000523
   104  H   -0.008358
   105  H    0.020915
   106  H    0.020995
   107  H    0.022733
   108  H    0.007358
   109  H    0.019564
   110  H    0.006261
   111  H   -0.001240
   112  H   -0.006194
   113  H    0.000021
   114  H    0.001010
   115  H    0.012194
   116  H    0.002402
   117  H    0.003408
   118  H   -0.011865
   119  H   -0.000420
   120  H   -0.010666
   121  H   -0.001774
   122  H   -0.020034
   123  H   -0.009959
   124  H   -0.010512
   125  H    0.009971
   126  H    0.009953
   127  H    0.004952
   128  H   -0.008530
   129  H   -0.009366
   130  H    0.009883
   131  H   -0.005037
   132  H   -0.016076
   133  H   -0.016297
   134  H   -0.004945
   135  H    0.010930
   136  H    0.015928
   137  H   -0.008523
   138  H    0.001370
   139  H    0.023741
   140  H    0.000361
 Sum of Mulliken charges =  -0.00000

 Dipole moment (field-independent basis, Debye):
    X=              3.8308    Y=              1.6240    Z=              0.6004  Tot=              4.2039
 Quadrupole moment (field-independent basis, Debye-Ang):
   XX=           -376.5727   YY=           -429.6743   ZZ=           -414.2613
   XY=            -19.8492   XZ=              6.2735   YZ=              2.9819

 Normal termination of Gaussian 16 at Thu May  5 11:40:01 2022.
