 Gaussian 16, Revision A.03,
 Gaussian 16:  ES64L-G16RevA.03 25-Dec-2016

 ---------------------------------
 #p PBE1PBE/Def2SVP td=(nstates=5)
 ---------------------------------

 -----------------------------------------------------
 step_851_chromophore_27 TDDFT with PBE1PBE functional
 -----------------------------------------------------
 Symbolic Z-matrix:
 Charge =  0 Multiplicity = 1

                         Standard orientation:
 ---------------------------------------------------------------------
 Center     Atomic      Atomic             Coordinates (Angstroms)
 Number     Number       Type             X           Y           Z
 ---------------------------------------------------------------------
      1         12           0       -4.390030    0.947419   -0.006811
      2          6           0       -3.824636   -2.505855    0.377791
      3          6           0       -0.922788    1.391170    0.169873
      4          6           0       -4.928052    4.101861   -0.248292
      5          6           0       -7.817569    0.286057    0.034359
      6          7           0       -2.514280   -0.402236    0.237643
      7          6           0       -2.585724   -1.755605    0.340956
      8          6           0       -1.265927   -2.388968    0.284358
      9          6           0       -0.377239   -1.153477    0.570641
     10          6           0       -1.254867    0.045854    0.218042
     11          6           0        0.114149   -1.043265    2.052416
     12          6           0       -0.960483   -3.099476   -1.000917
     13          6           0       -0.162032   -4.359338   -0.818085
     14          6           0        1.138622   -4.440351   -1.642791
     15          8           0        1.276761   -4.323188   -2.831675
     16          8           0        2.206331   -4.595974   -0.835466
     17          7           0       -3.156523    2.533677   -0.163241
     18          6           0       -1.736082    2.577946   -0.027248
     19          6           0       -1.284769    3.954490   -0.100820
     20          6           0       -2.457786    4.717817   -0.385604
     21          6           0       -3.599855    3.771966   -0.322091
     22          6           0        0.158097    4.491849    0.132896
     23          6           0       -2.643703    6.162257   -0.703767
     24          8           0       -3.717356    6.711747   -0.901872
     25          6           0       -1.428246    7.028705   -0.897031
     26          7           0       -6.120572    2.043731   -0.018889
     27          6           0       -6.067673    3.395398    0.007525
     28          6           0       -7.473652    3.968302    0.027021
     29          6           0       -8.412658    2.763564   -0.041319
     30          6           0       -7.414849    1.594161   -0.043188
     31          6           0       -7.756335    5.020634    1.105201
     32          6           0       -9.183481    2.711975   -1.387181
     33          6           0      -10.296347    1.787044   -1.458202
     34          7           0       -5.615840   -0.727637    0.292854
     35          6           0       -6.975050   -0.849096    0.226393
     36          6           0       -7.318929   -2.257228    0.556662
     37          6           0       -6.097969   -2.963141    0.573784
     38          6           0       -5.119940   -1.967325    0.468636
     39          6           0       -8.675612   -2.812818    0.847409
     40          6           0       -5.491756   -4.246893    0.700869
     41          8           0       -5.936561   -5.337212    0.917728
     42          6           0       -4.007645   -4.022051    0.551805
     43          6           0       -3.422656   -4.469278    1.868454
     44          8           0       -3.687559   -3.978417    2.985868
     45          8           0       -2.518901   -5.516814    1.588565
     46          6           0       -1.551411   -5.776842    2.672667
     47          6           0        3.462251   -4.674251   -1.588860
     48          6           0        4.046565   -3.283473   -1.801796
     49          6           0        5.284726   -2.805416   -1.481616
     50          6           0        6.310479   -3.647583   -0.635927
     51          6           0        5.843099   -1.499889   -1.965969
     52          6           0        6.127102   -1.472765   -3.522780
     53          6           0        7.598178   -1.084262   -3.925801
     54          6           0        7.563646    0.466159   -4.207333
     55          6           0        7.482239    0.698470   -5.776919
     56          6           0        8.681778    1.146560   -3.504762
     57          6           0        8.209424    1.838772   -2.130982
     58          6           0        9.296647    2.328356   -1.156611
     59          6           0        9.072205    1.861550    0.291895
     60          6           0        9.306102    0.291554    0.379266
     61          6           0        9.942344    2.678370    1.332601
     62          6           0        9.387126    2.700044    2.755896
     63          6           0       10.396342    2.342793    3.876060
     64          6           0        9.866323    1.299107    4.796850
     65          6           0        8.703586    1.908610    5.621969
     66          6           0       10.996599    0.721690    5.704062
     67          1           0        0.153964    1.553680    0.259935
     68          1           0       -5.264112    5.118917   -0.038980
     69          1           0       -8.848080   -0.054835    0.153952
     70          1           0       -1.147997   -3.046173    1.146042
     71          1           0        0.584527   -1.217575    0.061335
     72          1           0        1.201483   -1.022237    2.116248
     73          1           0       -0.269954   -1.838425    2.692610
     74          1           0       -0.051483   -0.092950    2.559375
     75          1           0       -0.399446   -2.413549   -1.635783
     76          1           0       -1.856262   -3.326598   -1.580219
     77          1           0       -0.798072   -5.178212   -1.153897
     78          1           0        0.116480   -4.552856    0.217762
     79          1           0        0.776346    3.602877    0.259115
     80          1           0        0.139662    5.031881    1.079063
     81          1           0        0.666698    4.981130   -0.698314
     82          1           0       -1.024002    7.218752    0.097644
     83          1           0       -1.717904    7.994659   -1.311678
     84          1           0       -0.773066    6.619021   -1.665065
     85          1           0       -7.575906    4.383490   -0.976078
     86          1           0       -8.964649    2.659507    0.892748
     87          1           0       -6.887009    5.193247    1.739330
     88          1           0       -8.589355    4.873117    1.792059
     89          1           0       -7.985924    5.972815    0.626593
     90          1           0       -8.540588    2.606344   -2.261702
     91          1           0       -9.647930    3.696556   -1.452756
     92          1           0      -10.521998    1.128081   -0.619742
     93          1           0      -10.013990    1.165342   -2.308804
     94          1           0      -11.188282    2.370225   -1.684972
     95          1           0       -8.561598   -3.891819    0.743569
     96          1           0       -9.476638   -2.450563    0.203208
     97          1           0       -8.819759   -2.601244    1.906561
     98          1           0       -3.736911   -4.653081   -0.295493
     99          1           0       -1.032162   -6.710687    2.456179
    100          1           0       -1.965715   -5.901913    3.672808
    101          1           0       -0.849441   -4.944622    2.640934
    102          1           0        3.495423   -5.358885   -2.436798
    103          1           0        3.996601   -5.123685   -0.751732
    104          1           0        3.422708   -2.505938   -2.242395
    105          1           0        6.627398   -2.880743    0.071181
    106          1           0        7.142564   -3.784474   -1.326003
    107          1           0        5.933543   -4.557849   -0.170183
    108          1           0        6.859498   -1.336223   -1.606105
    109          1           0        5.119940   -0.709260   -1.764554
    110          1           0        5.437042   -0.841879   -4.082732
    111          1           0        5.916347   -2.484272   -3.872150
    112          1           0        7.839414   -1.519090   -4.896241
    113          1           0        8.432479   -1.335641   -3.271333
    114          1           0        6.605536    0.866911   -3.877658
    115          1           0        8.460168    0.785576   -6.250448
    116          1           0        6.910191    1.590411   -6.030976
    117          1           0        6.896731   -0.069862   -6.282925
    118          1           0        9.039400    1.960146   -4.136460
    119          1           0        9.512973    0.472427   -3.296549
    120          1           0        7.546875    1.119818   -1.649552
    121          1           0        7.563342    2.716690   -2.168391
    122          1           0        9.220326    3.415105   -1.191599
    123          1           0       10.343949    2.256503   -1.449238
    124          1           0        8.022527    1.993564    0.554108
    125          1           0        8.396453   -0.285369    0.546139
    126          1           0       10.017581    0.124071    1.187511
    127          1           0        9.679424   -0.064356   -0.580490
    128          1           0       10.042536    3.642408    0.834784
    129          1           0       10.909626    2.178027    1.283734
    130          1           0        8.409897    2.218177    2.796584
    131          1           0        9.249186    3.778708    2.826972
    132          1           0       10.670931    3.179615    4.518618
    133          1           0       11.377697    2.118734    3.459279
    134          1           0        9.527915    0.515545    4.118580
    135          1           0        7.736545    1.474933    5.370529
    136          1           0        8.728511    2.998032    5.628053
    137          1           0        8.845165    1.607616    6.659939
    138          1           0       10.792144   -0.334951    5.537290
    139          1           0       10.918200    0.985256    6.758403
    140          1           0       11.939970    0.892352    5.184431
 ---------------------------------------------------------------------

 SCF Done:  E(RPBE1PBE) =  -3005.33671511     A.U. after   15 cycles

 Excitation energies and oscillator strengths:

 Excited State   1:      Singlet-A      1.8892 eV  656.28 nm  f=0.3834  <S**2>=0.000
     245 -> 248        0.18312
     246 -> 247        0.69142
     246 <- 247       -0.10618
 This state for optimization and/or second-order correction.
 Total Energy, E(TD-HF/TD-DFT) =  -3005.26728795
 Copying the excited state density for this state as the 1-particle RhoCI density.

 Excited State   2:      Singlet-A      2.2526 eV  550.41 nm  f=0.1110  <S**2>=0.000
     245 -> 247        0.65318
     246 -> 248       -0.26274

 Excited State   3:      Singlet-A      2.8492 eV  435.16 nm  f=0.0001  <S**2>=0.000
     244 -> 247        0.67752
     244 -> 249        0.14826
     244 -> 250        0.10323

 Excited State   4:      Singlet-A      3.1108 eV  398.56 nm  f=0.0003  <S**2>=0.000
     240 -> 247        0.39503
     240 -> 249       -0.13441
     241 -> 247        0.10902
     242 -> 247        0.54720

 Excited State   5:      Singlet-A      3.2195 eV  385.11 nm  f=0.0008  <S**2>=0.000
     240 -> 247        0.39138
     241 -> 247        0.41956
     242 -> 247       -0.39290

 The electronic state is 1-A.
 Alpha  occ. eigenvalues --  -46.91348 -19.26343 -19.25689 -19.21177 -19.19661
 Alpha  occ. eigenvalues --  -19.19190 -19.18070 -14.41498 -14.40653 -14.39368
 Alpha  occ. eigenvalues --  -14.38948 -10.37515 -10.35706 -10.31511 -10.31122
 Alpha  occ. eigenvalues --  -10.29621 -10.29392 -10.28815 -10.28519 -10.28282
 Alpha  occ. eigenvalues --  -10.28180 -10.27776 -10.27545 -10.27361 -10.26820
 Alpha  occ. eigenvalues --  -10.26387 -10.26308 -10.26258 -10.25940 -10.25863
 Alpha  occ. eigenvalues --  -10.25573 -10.25306 -10.25283 -10.25003 -10.24986
 Alpha  occ. eigenvalues --  -10.24787 -10.24711 -10.24487 -10.24307 -10.24135
 Alpha  occ. eigenvalues --  -10.24008 -10.23842 -10.23648 -10.23605 -10.23538
 Alpha  occ. eigenvalues --  -10.23496 -10.23483 -10.23449 -10.23418 -10.23149
 Alpha  occ. eigenvalues --  -10.23076 -10.23058 -10.23058 -10.22879 -10.22590
 Alpha  occ. eigenvalues --  -10.22455 -10.22415 -10.22318 -10.22317 -10.22306
 Alpha  occ. eigenvalues --  -10.22213 -10.22196 -10.22173 -10.21968 -10.21901
 Alpha  occ. eigenvalues --  -10.21874  -3.13610  -1.86464  -1.85986  -1.85839
 Alpha  occ. eigenvalues --   -1.12617  -1.09766  -1.06250  -1.04053  -1.02981
 Alpha  occ. eigenvalues --   -1.02275  -0.99621  -0.98772  -0.98162  -0.97103
 Alpha  occ. eigenvalues --   -0.87780  -0.85220  -0.84601  -0.84244  -0.84045
 Alpha  occ. eigenvalues --   -0.83129  -0.82969  -0.81852  -0.81796  -0.81201
 Alpha  occ. eigenvalues --   -0.80480  -0.80051  -0.78719  -0.78417  -0.77930
 Alpha  occ. eigenvalues --   -0.77007  -0.76278  -0.75350  -0.74982  -0.74349
 Alpha  occ. eigenvalues --   -0.73515  -0.72653  -0.72395  -0.71996  -0.71007
 Alpha  occ. eigenvalues --   -0.70121  -0.69902  -0.69808  -0.69579  -0.68935
 Alpha  occ. eigenvalues --   -0.68084  -0.67231  -0.66260  -0.64982  -0.63730
 Alpha  occ. eigenvalues --   -0.63609  -0.63025  -0.61499  -0.61300  -0.60278
 Alpha  occ. eigenvalues --   -0.60248  -0.59535  -0.59519  -0.59179  -0.58259
 Alpha  occ. eigenvalues --   -0.57525  -0.57500  -0.57305  -0.56793  -0.55078
 Alpha  occ. eigenvalues --   -0.54645  -0.54194  -0.53650  -0.53427  -0.53089
 Alpha  occ. eigenvalues --   -0.52732  -0.52488  -0.50745  -0.50068  -0.49995
 Alpha  occ. eigenvalues --   -0.49747  -0.49530  -0.49263  -0.49027  -0.48789
 Alpha  occ. eigenvalues --   -0.48616  -0.48421  -0.48014  -0.47752  -0.47566
 Alpha  occ. eigenvalues --   -0.47412  -0.47223  -0.47070  -0.46904  -0.46533
 Alpha  occ. eigenvalues --   -0.46207  -0.46059  -0.45883  -0.45573  -0.45479
 Alpha  occ. eigenvalues --   -0.45330  -0.44937  -0.44896  -0.44451  -0.44406
 Alpha  occ. eigenvalues --   -0.44224  -0.43853  -0.43744  -0.43281  -0.43081
 Alpha  occ. eigenvalues --   -0.42941  -0.42911  -0.42689  -0.42655  -0.42361
 Alpha  occ. eigenvalues --   -0.41953  -0.41917  -0.41818  -0.41789  -0.41526
 Alpha  occ. eigenvalues --   -0.41139  -0.41035  -0.40928  -0.40660  -0.40568
 Alpha  occ. eigenvalues --   -0.40375  -0.40353  -0.40063  -0.40019  -0.39597
 Alpha  occ. eigenvalues --   -0.39467  -0.39202  -0.38989  -0.38863  -0.38767
 Alpha  occ. eigenvalues --   -0.38492  -0.38205  -0.38136  -0.38018  -0.37964
 Alpha  occ. eigenvalues --   -0.37771  -0.37625  -0.37437  -0.37244  -0.37096
 Alpha  occ. eigenvalues --   -0.36890  -0.36835  -0.36765  -0.36527  -0.36187
 Alpha  occ. eigenvalues --   -0.36100  -0.36015  -0.35612  -0.35181  -0.34857
 Alpha  occ. eigenvalues --   -0.34508  -0.34428  -0.34103  -0.33850  -0.33728
 Alpha  occ. eigenvalues --   -0.33432  -0.33419  -0.32881  -0.32807  -0.32698
 Alpha  occ. eigenvalues --   -0.32318  -0.32238  -0.31997  -0.31784  -0.31362
 Alpha  occ. eigenvalues --   -0.31057  -0.30243  -0.29899  -0.29836  -0.29544
 Alpha  occ. eigenvalues --   -0.29372  -0.28929  -0.28676  -0.27068  -0.26250
 Alpha  occ. eigenvalues --   -0.25777  -0.25627  -0.24939  -0.24651  -0.20929
 Alpha  occ. eigenvalues --   -0.18787
 Alpha virt. eigenvalues --   -0.11073  -0.05058  -0.03892  -0.01772  -0.00694
 Alpha virt. eigenvalues --    0.00446   0.00934   0.01306   0.01969   0.03019
 Alpha virt. eigenvalues --    0.04049   0.04371   0.04724   0.04982   0.05822

 Mulliken charges:
               1
     1  Mg   0.993801
     2  C   -0.072031
     3  C   -0.068126
     4  C   -0.038250
     5  C   -0.069702
     6  N   -0.335299
     7  C    0.044508
     8  C   -0.115256
     9  C   -0.134347
    10  C    0.079191
    11  C   -0.000796
    12  C    0.058499
    13  C    0.007317
    14  C    0.173962
    15  O   -0.256405
    16  O   -0.349336
    17  N   -0.522192
    18  C    0.157515
    19  C   -0.173589
    20  C   -0.080332
    21  C    0.214964
    22  C    0.067450
    23  C    0.020297
    24  O   -0.240685
    25  C   -0.012429
    26  N   -0.441912
    27  C    0.024861
    28  C   -0.084416
    29  C   -0.108371
    30  C    0.114394
    31  C    0.013634
    32  C   -0.044084
    33  C   -0.023217
    34  N   -0.452811
    35  C    0.089263
    36  C   -0.203206
    37  C   -0.037563
    38  C    0.187415
    39  C    0.062263
    40  C    0.089135
    41  O   -0.188287
    42  C   -0.068414
    43  C    0.310715
    44  O   -0.261371
    45  O   -0.384780
    46  C    0.121000
    47  C    0.249938
    48  C   -0.108837
    49  C   -0.246825
    50  C    0.010309
    51  C    0.017316
    52  C   -0.067198
    53  C   -0.010190
    54  C   -0.234290
    55  C   -0.026314
    56  C    0.050795
    57  C   -0.076829
    58  C   -0.007561
    59  C   -0.256224
    60  C   -0.021595
    61  C   -0.011368
    62  C   -0.000614
    63  C   -0.019056
    64  C   -0.287646
    65  C    0.004493
    66  C    0.013747
    67  H    0.001166
    68  H    0.028309
    69  H   -0.003445
    70  H    0.051128
    71  H    0.035456
    72  H    0.034149
    73  H    0.049759
    74  H    0.040084
    75  H    0.051568
    76  H    0.044659
    77  H    0.068516
    78  H    0.049166
    79  H    0.022236
    80  H    0.069930
    81  H    0.061973
    82  H    0.057727
    83  H    0.042602
    84  H    0.057116
    85  H    0.055661
    86  H    0.042749
    87  H    0.050179
    88  H    0.037857
    89  H    0.045786
    90  H    0.048269
    91  H    0.039070
    92  H    0.045221
    93  H    0.038121
    94  H    0.039309
    95  H    0.062294
    96  H    0.054379
    97  H    0.067777
    98  H    0.074293
    99  H    0.060251
   100  H    0.072617
   101  H    0.046819
   102  H    0.080609
   103  H    0.030762
   104  H    0.021743
   105  H    0.050765
   106  H    0.050766
   107  H    0.048468
   108  H    0.043135
   109  H    0.051204
   110  H    0.038079
   111  H    0.032861
   112  H    0.028248
   113  H    0.030114
   114  H    0.038739
   115  H    0.039709
   116  H    0.030743
   117  H    0.030669
   118  H    0.022745
   119  H    0.031015
   120  H    0.026997
   121  H    0.030336
   122  H    0.013560
   123  H    0.021671
   124  H    0.027809
   125  H    0.037712
   126  H    0.038623
   127  H    0.033969
   128  H    0.023561
   129  H    0.022871
   130  H    0.039807
   131  H    0.029925
   132  H    0.017311
   133  H    0.014917
   134  H    0.034102
   135  H    0.038143
   136  H    0.042449
   137  H    0.019827
   138  H    0.030138
   139  H    0.049681
   140  H    0.028438
 Sum of Mulliken charges =  -0.00000

 Dipole moment (field-independent basis, Debye):
    X=              3.8193    Y=              1.9175    Z=              0.5665  Tot=              4.3110
 Quadrupole moment (field-independent basis, Debye-Ang):
   XX=           -370.9753   YY=           -426.7406   ZZ=           -411.5731
   XY=            -21.6473   XZ=              6.3620   YZ=              2.9653

 Normal termination of Gaussian 16 at Thu May  5 12:01:05 2022.
