 Gaussian 16, Revision A.03,
 Gaussian 16:  ES64L-G16RevA.03 25-Dec-2016

 --------------------------------
 #p wB97XD/Def2SVP td=(nstates=5)
 --------------------------------

 ----------------------------------------------------
 step_851_chromophore_27 TDDFT with wB97XD functional
 ----------------------------------------------------
 Symbolic Z-matrix:
 Charge =  0 Multiplicity = 1

                         Standard orientation:
 ---------------------------------------------------------------------
 Center     Atomic      Atomic             Coordinates (Angstroms)
 Number     Number       Type             X           Y           Z
 ---------------------------------------------------------------------
      1         12           0       -4.390030    0.947419   -0.006811
      2          6           0       -3.824636   -2.505855    0.377791
      3          6           0       -0.922788    1.391170    0.169873
      4          6           0       -4.928052    4.101861   -0.248292
      5          6           0       -7.817569    0.286057    0.034359
      6          7           0       -2.514280   -0.402236    0.237643
      7          6           0       -2.585724   -1.755605    0.340956
      8          6           0       -1.265927   -2.388968    0.284358
      9          6           0       -0.377239   -1.153477    0.570641
     10          6           0       -1.254867    0.045854    0.218042
     11          6           0        0.114149   -1.043265    2.052416
     12          6           0       -0.960483   -3.099476   -1.000917
     13          6           0       -0.162032   -4.359338   -0.818085
     14          6           0        1.138622   -4.440351   -1.642791
     15          8           0        1.276761   -4.323188   -2.831675
     16          8           0        2.206331   -4.595974   -0.835466
     17          7           0       -3.156523    2.533677   -0.163241
     18          6           0       -1.736082    2.577946   -0.027248
     19          6           0       -1.284769    3.954490   -0.100820
     20          6           0       -2.457786    4.717817   -0.385604
     21          6           0       -3.599855    3.771966   -0.322091
     22          6           0        0.158097    4.491849    0.132896
     23          6           0       -2.643703    6.162257   -0.703767
     24          8           0       -3.717356    6.711747   -0.901872
     25          6           0       -1.428246    7.028705   -0.897031
     26          7           0       -6.120572    2.043731   -0.018889
     27          6           0       -6.067673    3.395398    0.007525
     28          6           0       -7.473652    3.968302    0.027021
     29          6           0       -8.412658    2.763564   -0.041319
     30          6           0       -7.414849    1.594161   -0.043188
     31          6           0       -7.756335    5.020634    1.105201
     32          6           0       -9.183481    2.711975   -1.387181
     33          6           0      -10.296347    1.787044   -1.458202
     34          7           0       -5.615840   -0.727637    0.292854
     35          6           0       -6.975050   -0.849096    0.226393
     36          6           0       -7.318929   -2.257228    0.556662
     37          6           0       -6.097969   -2.963141    0.573784
     38          6           0       -5.119940   -1.967325    0.468636
     39          6           0       -8.675612   -2.812818    0.847409
     40          6           0       -5.491756   -4.246893    0.700869
     41          8           0       -5.936561   -5.337212    0.917728
     42          6           0       -4.007645   -4.022051    0.551805
     43          6           0       -3.422656   -4.469278    1.868454
     44          8           0       -3.687559   -3.978417    2.985868
     45          8           0       -2.518901   -5.516814    1.588565
     46          6           0       -1.551411   -5.776842    2.672667
     47          6           0        3.462251   -4.674251   -1.588860
     48          6           0        4.046565   -3.283473   -1.801796
     49          6           0        5.284726   -2.805416   -1.481616
     50          6           0        6.310479   -3.647583   -0.635927
     51          6           0        5.843099   -1.499889   -1.965969
     52          6           0        6.127102   -1.472765   -3.522780
     53          6           0        7.598178   -1.084262   -3.925801
     54          6           0        7.563646    0.466159   -4.207333
     55          6           0        7.482239    0.698470   -5.776919
     56          6           0        8.681778    1.146560   -3.504762
     57          6           0        8.209424    1.838772   -2.130982
     58          6           0        9.296647    2.328356   -1.156611
     59          6           0        9.072205    1.861550    0.291895
     60          6           0        9.306102    0.291554    0.379266
     61          6           0        9.942344    2.678370    1.332601
     62          6           0        9.387126    2.700044    2.755896
     63          6           0       10.396342    2.342793    3.876060
     64          6           0        9.866323    1.299107    4.796850
     65          6           0        8.703586    1.908610    5.621969
     66          6           0       10.996599    0.721690    5.704062
     67          1           0        0.153964    1.553680    0.259935
     68          1           0       -5.264112    5.118917   -0.038980
     69          1           0       -8.848080   -0.054835    0.153952
     70          1           0       -1.147997   -3.046173    1.146042
     71          1           0        0.584527   -1.217575    0.061335
     72          1           0        1.201483   -1.022237    2.116248
     73          1           0       -0.269954   -1.838425    2.692610
     74          1           0       -0.051483   -0.092950    2.559375
     75          1           0       -0.399446   -2.413549   -1.635783
     76          1           0       -1.856262   -3.326598   -1.580219
     77          1           0       -0.798072   -5.178212   -1.153897
     78          1           0        0.116480   -4.552856    0.217762
     79          1           0        0.776346    3.602877    0.259115
     80          1           0        0.139662    5.031881    1.079063
     81          1           0        0.666698    4.981130   -0.698314
     82          1           0       -1.024002    7.218752    0.097644
     83          1           0       -1.717904    7.994659   -1.311678
     84          1           0       -0.773066    6.619021   -1.665065
     85          1           0       -7.575906    4.383490   -0.976078
     86          1           0       -8.964649    2.659507    0.892748
     87          1           0       -6.887009    5.193247    1.739330
     88          1           0       -8.589355    4.873117    1.792059
     89          1           0       -7.985924    5.972815    0.626593
     90          1           0       -8.540588    2.606344   -2.261702
     91          1           0       -9.647930    3.696556   -1.452756
     92          1           0      -10.521998    1.128081   -0.619742
     93          1           0      -10.013990    1.165342   -2.308804
     94          1           0      -11.188282    2.370225   -1.684972
     95          1           0       -8.561598   -3.891819    0.743569
     96          1           0       -9.476638   -2.450563    0.203208
     97          1           0       -8.819759   -2.601244    1.906561
     98          1           0       -3.736911   -4.653081   -0.295493
     99          1           0       -1.032162   -6.710687    2.456179
    100          1           0       -1.965715   -5.901913    3.672808
    101          1           0       -0.849441   -4.944622    2.640934
    102          1           0        3.495423   -5.358885   -2.436798
    103          1           0        3.996601   -5.123685   -0.751732
    104          1           0        3.422708   -2.505938   -2.242395
    105          1           0        6.627398   -2.880743    0.071181
    106          1           0        7.142564   -3.784474   -1.326003
    107          1           0        5.933543   -4.557849   -0.170183
    108          1           0        6.859498   -1.336223   -1.606105
    109          1           0        5.119940   -0.709260   -1.764554
    110          1           0        5.437042   -0.841879   -4.082732
    111          1           0        5.916347   -2.484272   -3.872150
    112          1           0        7.839414   -1.519090   -4.896241
    113          1           0        8.432479   -1.335641   -3.271333
    114          1           0        6.605536    0.866911   -3.877658
    115          1           0        8.460168    0.785576   -6.250448
    116          1           0        6.910191    1.590411   -6.030976
    117          1           0        6.896731   -0.069862   -6.282925
    118          1           0        9.039400    1.960146   -4.136460
    119          1           0        9.512973    0.472427   -3.296549
    120          1           0        7.546875    1.119818   -1.649552
    121          1           0        7.563342    2.716690   -2.168391
    122          1           0        9.220326    3.415105   -1.191599
    123          1           0       10.343949    2.256503   -1.449238
    124          1           0        8.022527    1.993564    0.554108
    125          1           0        8.396453   -0.285369    0.546139
    126          1           0       10.017581    0.124071    1.187511
    127          1           0        9.679424   -0.064356   -0.580490
    128          1           0       10.042536    3.642408    0.834784
    129          1           0       10.909626    2.178027    1.283734
    130          1           0        8.409897    2.218177    2.796584
    131          1           0        9.249186    3.778708    2.826972
    132          1           0       10.670931    3.179615    4.518618
    133          1           0       11.377697    2.118734    3.459279
    134          1           0        9.527915    0.515545    4.118580
    135          1           0        7.736545    1.474933    5.370529
    136          1           0        8.728511    2.998032    5.628053
    137          1           0        8.845165    1.607616    6.659939
    138          1           0       10.792144   -0.334951    5.537290
    139          1           0       10.918200    0.985256    6.758403
    140          1           0       11.939970    0.892352    5.184431
 ---------------------------------------------------------------------

 SCF Done:  E(RwB97XD) =  -3007.84659879     A.U. after   17 cycles

 Excitation energies and oscillator strengths:

 Excited State   1:      Singlet-A      1.6785 eV  738.66 nm  f=0.3930  <S**2>=0.000
     245 -> 248        0.19359
     246 -> 247        0.68178
     245 <- 248        0.11801
 This state for optimization and/or second-order correction.
 Total Energy, E(TD-HF/TD-DFT) =  -3007.78491517
 Copying the excited state density for this state as the 1-particle RhoCI density.

 Excited State   2:      Singlet-A      2.2075 eV  561.66 nm  f=0.1129  <S**2>=0.000
     245 -> 247        0.64009
     246 -> 248       -0.28986

 Excited State   3:      Singlet-A      3.4840 eV  355.87 nm  f=0.0132  <S**2>=0.000
     241 -> 247        0.12863
     242 -> 247       -0.10886
     243 -> 247        0.53493
     243 -> 249        0.27934
     243 -> 250        0.23405
     246 -> 248       -0.10596

 Excited State   4:      Singlet-A      3.5199 eV  352.24 nm  f=0.0699  <S**2>=0.000
     241 -> 247        0.48292
     242 -> 247       -0.36863
     246 -> 248        0.25194

 Excited State   5:      Singlet-A      3.5788 eV  346.44 nm  f=0.4502  <S**2>=0.000
     242 -> 247        0.36479
     245 -> 247        0.22347
     246 -> 248        0.52316

 The electronic state is 1-A.
 Alpha  occ. eigenvalues --  -46.94286 -19.31015 -19.30256 -19.26020 -19.24352
 Alpha  occ. eigenvalues --  -19.24215 -19.22724 -14.46751 -14.45565 -14.44245
 Alpha  occ. eigenvalues --  -14.44002 -10.44466 -10.42500 -10.38557 -10.37829
 Alpha  occ. eigenvalues --  -10.36119 -10.36004 -10.35191 -10.34649 -10.34619
 Alpha  occ. eigenvalues --  -10.34365 -10.34284 -10.33757 -10.33622 -10.33188
 Alpha  occ. eigenvalues --  -10.32866 -10.32854 -10.32821 -10.32442 -10.32172
 Alpha  occ. eigenvalues --  -10.31913 -10.31808 -10.31618 -10.31440 -10.31256
 Alpha  occ. eigenvalues --  -10.31201 -10.30892 -10.30874 -10.30513 -10.30463
 Alpha  occ. eigenvalues --  -10.30321 -10.30283 -10.30043 -10.29930 -10.29889
 Alpha  occ. eigenvalues --  -10.29868 -10.29830 -10.29801 -10.29714 -10.29466
 Alpha  occ. eigenvalues --  -10.29460 -10.29388 -10.29325 -10.29259 -10.29131
 Alpha  occ. eigenvalues --  -10.28833 -10.28811 -10.28775 -10.28738 -10.28680
 Alpha  occ. eigenvalues --  -10.28621 -10.28555 -10.28386 -10.28378 -10.28281
 Alpha  occ. eigenvalues --  -10.28266  -3.20390  -1.93995  -1.93522  -1.93368
 Alpha  occ. eigenvalues --   -1.19989  -1.17308  -1.13905  -1.11393  -1.10329
 Alpha  occ. eigenvalues --   -1.09786  -1.07072  -1.06192  -1.05522  -1.04369
 Alpha  occ. eigenvalues --   -0.95550  -0.92872  -0.92280  -0.91776  -0.91706
 Alpha  occ. eigenvalues --   -0.90797  -0.90490  -0.89510  -0.89434  -0.88842
 Alpha  occ. eigenvalues --   -0.88133  -0.87691  -0.86285  -0.86045  -0.85579
 Alpha  occ. eigenvalues --   -0.84664  -0.83950  -0.82997  -0.82647  -0.82021
 Alpha  occ. eigenvalues --   -0.81193  -0.80305  -0.80050  -0.79599  -0.78698
 Alpha  occ. eigenvalues --   -0.77739  -0.77505  -0.77502  -0.77273  -0.76598
 Alpha  occ. eigenvalues --   -0.75688  -0.74820  -0.73778  -0.72610  -0.71351
 Alpha  occ. eigenvalues --   -0.71244  -0.70560  -0.69020  -0.68912  -0.67786
 Alpha  occ. eigenvalues --   -0.67735  -0.67156  -0.66965  -0.66612  -0.65940
 Alpha  occ. eigenvalues --   -0.65184  -0.64977  -0.64844  -0.64425  -0.62589
 Alpha  occ. eigenvalues --   -0.62015  -0.61583  -0.61191  -0.60975  -0.60593
 Alpha  occ. eigenvalues --   -0.60249  -0.59883  -0.58148  -0.57526  -0.57438
 Alpha  occ. eigenvalues --   -0.57152  -0.56980  -0.56681  -0.56397  -0.56266
 Alpha  occ. eigenvalues --   -0.56039  -0.55830  -0.55441  -0.55100  -0.54966
 Alpha  occ. eigenvalues --   -0.54829  -0.54640  -0.54450  -0.54220  -0.53885
 Alpha  occ. eigenvalues --   -0.53674  -0.53458  -0.53229  -0.52873  -0.52773
 Alpha  occ. eigenvalues --   -0.52657  -0.52277  -0.52214  -0.51909  -0.51804
 Alpha  occ. eigenvalues --   -0.51506  -0.51168  -0.51065  -0.50595  -0.50348
 Alpha  occ. eigenvalues --   -0.50193  -0.50145  -0.49969  -0.49897  -0.49625
 Alpha  occ. eigenvalues --   -0.49266  -0.49219  -0.49127  -0.49070  -0.48780
 Alpha  occ. eigenvalues --   -0.48345  -0.48218  -0.48186  -0.47939  -0.47726
 Alpha  occ. eigenvalues --   -0.47690  -0.47604  -0.47258  -0.47170  -0.46779
 Alpha  occ. eigenvalues --   -0.46639  -0.46405  -0.46191  -0.46055  -0.45843
 Alpha  occ. eigenvalues --   -0.45622  -0.45369  -0.45325  -0.45201  -0.45111
 Alpha  occ. eigenvalues --   -0.44862  -0.44737  -0.44567  -0.44370  -0.44302
 Alpha  occ. eigenvalues --   -0.43966  -0.43935  -0.43833  -0.43561  -0.43303
 Alpha  occ. eigenvalues --   -0.43132  -0.43102  -0.42649  -0.42236  -0.41880
 Alpha  occ. eigenvalues --   -0.41593  -0.41508  -0.41116  -0.40876  -0.40578
 Alpha  occ. eigenvalues --   -0.40448  -0.40366  -0.39868  -0.39828  -0.39764
 Alpha  occ. eigenvalues --   -0.39381  -0.39309  -0.39029  -0.38907  -0.38288
 Alpha  occ. eigenvalues --   -0.38065  -0.37158  -0.37096  -0.36867  -0.36373
 Alpha  occ. eigenvalues --   -0.36270  -0.35795  -0.35590  -0.33617  -0.33511
 Alpha  occ. eigenvalues --   -0.32395  -0.32197  -0.31679  -0.31667  -0.25920
 Alpha  occ. eigenvalues --   -0.22973
 Alpha virt. eigenvalues --   -0.06947   0.00352   0.02371   0.04723   0.05971
 Alpha virt. eigenvalues --    0.06744   0.07161   0.08034   0.08601   0.09298
 Alpha virt. eigenvalues --    0.10802   0.11006   0.11341   0.11770   0.12591

 Mulliken charges:
               1
     1  Mg   0.982064
     2  C   -0.074566
     3  C   -0.074552
     4  C   -0.055302
     5  C   -0.088724
     6  N   -0.294794
     7  C    0.010578
     8  C   -0.064947
     9  C   -0.106173
    10  C    0.053659
    11  C    0.007389
    12  C    0.062409
    13  C    0.026637
    14  C    0.162904
    15  O   -0.253748
    16  O   -0.349378
    17  N   -0.489664
    18  C    0.148393
    19  C   -0.167194
    20  C   -0.076908
    21  C    0.206403
    22  C    0.081458
    23  C    0.017450
    24  O   -0.235888
    25  C   -0.001449
    26  N   -0.412251
    27  C    0.011234
    28  C   -0.055608
    29  C   -0.081220
    30  C    0.107532
    31  C    0.021797
    32  C   -0.028025
    33  C   -0.012068
    34  N   -0.414929
    35  C    0.079039
    36  C   -0.198770
    37  C   -0.034762
    38  C    0.166336
    39  C    0.072429
    40  C    0.073762
    41  O   -0.176452
    42  C   -0.028475
    43  C    0.289692
    44  O   -0.256119
    45  O   -0.383744
    46  C    0.136354
    47  C    0.272829
    48  C   -0.127767
    49  C   -0.231802
    50  C    0.030007
    51  C    0.042162
    52  C   -0.048630
    53  C    0.004976
    54  C   -0.204179
    55  C   -0.014530
    56  C    0.064108
    57  C   -0.052152
    58  C    0.005652
    59  C   -0.226987
    60  C   -0.007209
    61  C    0.007297
    62  C    0.012906
    63  C   -0.001757
    64  C   -0.254274
    65  C    0.014241
    66  C    0.025487
    67  H   -0.005231
    68  H    0.019785
    69  H   -0.015349
    70  H    0.015891
    71  H    0.025858
    72  H    0.028942
    73  H    0.044012
    74  H    0.033688
    75  H    0.044074
    76  H    0.037063
    77  H    0.063490
    78  H    0.040002
    79  H    0.015421
    80  H    0.065144
    81  H    0.057617
    82  H    0.052574
    83  H    0.040721
    84  H    0.051451
    85  H    0.043810
    86  H    0.033980
    87  H    0.044314
    88  H    0.032831
    89  H    0.040551
    90  H    0.041588
    91  H    0.029246
    92  H    0.039027
    93  H    0.032171
    94  H    0.035064
    95  H    0.058373
    96  H    0.051053
    97  H    0.063157
    98  H    0.069676
    99  H    0.057653
   100  H    0.069797
   101  H    0.042353
   102  H    0.077158
   103  H    0.023877
   104  H    0.017968
   105  H    0.042795
   106  H    0.042636
   107  H    0.044143
   108  H    0.023028
   109  H    0.045356
   110  H    0.029273
   111  H    0.023289
   112  H    0.019628
   113  H    0.021536
   114  H    0.023339
   115  H    0.033985
   116  H    0.025282
   117  H    0.023923
   118  H    0.014689
   119  H    0.021661
   120  H    0.006354
   121  H    0.023706
   122  H    0.004303
   123  H    0.013786
   124  H    0.014318
   125  H    0.031529
   126  H    0.030930
   127  H    0.024561
   128  H    0.015269
   129  H    0.011032
   130  H    0.030638
   131  H    0.022183
   132  H    0.007199
   133  H    0.004827
   134  H    0.020673
   135  H    0.033217
   136  H    0.035931
   137  H    0.013073
   138  H    0.024014
   139  H    0.044647
   140  H    0.022255
 Sum of Mulliken charges =  -0.00000

 Dipole moment (field-independent basis, Debye):
    X=              3.8711    Y=              1.5851    Z=              0.6186  Tot=              4.2286
 Quadrupole moment (field-independent basis, Debye-Ang):
   XX=           -371.2197   YY=           -425.5264   ZZ=           -411.2595
   XY=            -19.5512   XZ=              6.2422   YZ=              2.7020

 Normal termination of Gaussian 16 at Thu May  5 12:27:21 2022.
