 Gaussian 16, Revision A.03,
 Gaussian 16:  ES64L-G16RevA.03 25-Dec-2016

 --------------------
 #p ZINDO=(nstates=5)
 --------------------

 -----------------------------
 step_851_chromophore_27 ZINDO
 -----------------------------
 Symbolic Z-matrix:
 Charge =  0 Multiplicity = 1

                         Standard orientation:
 ---------------------------------------------------------------------
 Center     Atomic      Atomic             Coordinates (Angstroms)
 Number     Number       Type             X           Y           Z
 ---------------------------------------------------------------------
      1         12           0       -4.390030    0.947419   -0.006811
      2          6           0       -3.824636   -2.505855    0.377791
      3          6           0       -0.922788    1.391170    0.169873
      4          6           0       -4.928052    4.101861   -0.248292
      5          6           0       -7.817569    0.286057    0.034359
      6          7           0       -2.514280   -0.402236    0.237643
      7          6           0       -2.585724   -1.755605    0.340956
      8          6           0       -1.265927   -2.388968    0.284358
      9          6           0       -0.377239   -1.153477    0.570641
     10          6           0       -1.254867    0.045854    0.218042
     11          6           0        0.114149   -1.043265    2.052416
     12          6           0       -0.960483   -3.099476   -1.000917
     13          6           0       -0.162032   -4.359338   -0.818085
     14          6           0        1.138622   -4.440351   -1.642791
     15          8           0        1.276761   -4.323188   -2.831675
     16          8           0        2.206331   -4.595974   -0.835466
     17          7           0       -3.156523    2.533677   -0.163241
     18          6           0       -1.736082    2.577946   -0.027248
     19          6           0       -1.284769    3.954490   -0.100820
     20          6           0       -2.457786    4.717817   -0.385604
     21          6           0       -3.599855    3.771966   -0.322091
     22          6           0        0.158097    4.491849    0.132896
     23          6           0       -2.643703    6.162257   -0.703767
     24          8           0       -3.717356    6.711747   -0.901872
     25          6           0       -1.428246    7.028705   -0.897031
     26          7           0       -6.120572    2.043731   -0.018889
     27          6           0       -6.067673    3.395398    0.007525
     28          6           0       -7.473652    3.968302    0.027021
     29          6           0       -8.412658    2.763564   -0.041319
     30          6           0       -7.414849    1.594161   -0.043188
     31          6           0       -7.756335    5.020634    1.105201
     32          6           0       -9.183481    2.711975   -1.387181
     33          6           0      -10.296347    1.787044   -1.458202
     34          7           0       -5.615840   -0.727637    0.292854
     35          6           0       -6.975050   -0.849096    0.226393
     36          6           0       -7.318929   -2.257228    0.556662
     37          6           0       -6.097969   -2.963141    0.573784
     38          6           0       -5.119940   -1.967325    0.468636
     39          6           0       -8.675612   -2.812818    0.847409
     40          6           0       -5.491756   -4.246893    0.700869
     41          8           0       -5.936561   -5.337212    0.917728
     42          6           0       -4.007645   -4.022051    0.551805
     43          6           0       -3.422656   -4.469278    1.868454
     44          8           0       -3.687559   -3.978417    2.985868
     45          8           0       -2.518901   -5.516814    1.588565
     46          6           0       -1.551411   -5.776842    2.672667
     47          6           0        3.462251   -4.674251   -1.588860
     48          6           0        4.046565   -3.283473   -1.801796
     49          6           0        5.284726   -2.805416   -1.481616
     50          6           0        6.310479   -3.647583   -0.635927
     51          6           0        5.843099   -1.499889   -1.965969
     52          6           0        6.127102   -1.472765   -3.522780
     53          6           0        7.598178   -1.084262   -3.925801
     54          6           0        7.563646    0.466159   -4.207333
     55          6           0        7.482239    0.698470   -5.776919
     56          6           0        8.681778    1.146560   -3.504762
     57          6           0        8.209424    1.838772   -2.130982
     58          6           0        9.296647    2.328356   -1.156611
     59          6           0        9.072205    1.861550    0.291895
     60          6           0        9.306102    0.291554    0.379266
     61          6           0        9.942344    2.678370    1.332601
     62          6           0        9.387126    2.700044    2.755896
     63          6           0       10.396342    2.342793    3.876060
     64          6           0        9.866323    1.299107    4.796850
     65          6           0        8.703586    1.908610    5.621969
     66          6           0       10.996599    0.721690    5.704062
     67          1           0        0.153964    1.553680    0.259935
     68          1           0       -5.264112    5.118917   -0.038980
     69          1           0       -8.848080   -0.054835    0.153952
     70          1           0       -1.147997   -3.046173    1.146042
     71          1           0        0.584527   -1.217575    0.061335
     72          1           0        1.201483   -1.022237    2.116248
     73          1           0       -0.269954   -1.838425    2.692610
     74          1           0       -0.051483   -0.092950    2.559375
     75          1           0       -0.399446   -2.413549   -1.635783
     76          1           0       -1.856262   -3.326598   -1.580219
     77          1           0       -0.798072   -5.178212   -1.153897
     78          1           0        0.116480   -4.552856    0.217762
     79          1           0        0.776346    3.602877    0.259115
     80          1           0        0.139662    5.031881    1.079063
     81          1           0        0.666698    4.981130   -0.698314
     82          1           0       -1.024002    7.218752    0.097644
     83          1           0       -1.717904    7.994659   -1.311678
     84          1           0       -0.773066    6.619021   -1.665065
     85          1           0       -7.575906    4.383490   -0.976078
     86          1           0       -8.964649    2.659507    0.892748
     87          1           0       -6.887009    5.193247    1.739330
     88          1           0       -8.589355    4.873117    1.792059
     89          1           0       -7.985924    5.972815    0.626593
     90          1           0       -8.540588    2.606344   -2.261702
     91          1           0       -9.647930    3.696556   -1.452756
     92          1           0      -10.521998    1.128081   -0.619742
     93          1           0      -10.013990    1.165342   -2.308804
     94          1           0      -11.188282    2.370225   -1.684972
     95          1           0       -8.561598   -3.891819    0.743569
     96          1           0       -9.476638   -2.450563    0.203208
     97          1           0       -8.819759   -2.601244    1.906561
     98          1           0       -3.736911   -4.653081   -0.295493
     99          1           0       -1.032162   -6.710687    2.456179
    100          1           0       -1.965715   -5.901913    3.672808
    101          1           0       -0.849441   -4.944622    2.640934
    102          1           0        3.495423   -5.358885   -2.436798
    103          1           0        3.996601   -5.123685   -0.751732
    104          1           0        3.422708   -2.505938   -2.242395
    105          1           0        6.627398   -2.880743    0.071181
    106          1           0        7.142564   -3.784474   -1.326003
    107          1           0        5.933543   -4.557849   -0.170183
    108          1           0        6.859498   -1.336223   -1.606105
    109          1           0        5.119940   -0.709260   -1.764554
    110          1           0        5.437042   -0.841879   -4.082732
    111          1           0        5.916347   -2.484272   -3.872150
    112          1           0        7.839414   -1.519090   -4.896241
    113          1           0        8.432479   -1.335641   -3.271333
    114          1           0        6.605536    0.866911   -3.877658
    115          1           0        8.460168    0.785576   -6.250448
    116          1           0        6.910191    1.590411   -6.030976
    117          1           0        6.896731   -0.069862   -6.282925
    118          1           0        9.039400    1.960146   -4.136460
    119          1           0        9.512973    0.472427   -3.296549
    120          1           0        7.546875    1.119818   -1.649552
    121          1           0        7.563342    2.716690   -2.168391
    122          1           0        9.220326    3.415105   -1.191599
    123          1           0       10.343949    2.256503   -1.449238
    124          1           0        8.022527    1.993564    0.554108
    125          1           0        8.396453   -0.285369    0.546139
    126          1           0       10.017581    0.124071    1.187511
    127          1           0        9.679424   -0.064356   -0.580490
    128          1           0       10.042536    3.642408    0.834784
    129          1           0       10.909626    2.178027    1.283734
    130          1           0        8.409897    2.218177    2.796584
    131          1           0        9.249186    3.778708    2.826972
    132          1           0       10.670931    3.179615    4.518618
    133          1           0       11.377697    2.118734    3.459279
    134          1           0        9.527915    0.515545    4.118580
    135          1           0        7.736545    1.474933    5.370529
    136          1           0        8.728511    2.998032    5.628053
    137          1           0        8.845165    1.607616    6.659939
    138          1           0       10.792144   -0.334951    5.537290
    139          1           0       10.918200    0.985256    6.758403
    140          1           0       11.939970    0.892352    5.184431
 ---------------------------------------------------------------------

 SCF Done:  E(RZINDO/S) =  -474.589886909     A.U. after   20 cycles

 Excitation energies and oscillator strengths:

 Excited State   1:      Singlet-A      1.2568 eV  986.50 nm  f=0.6115  <S**2>=0.000
     175 ->178         0.18783
     176 ->177         0.66311
 This state for optimization and/or second-order correction.
 Total Energy, E(CIS/TDA) =  -474.543699934
 Copying the excited state density for this state as the 1-particle RhoCI density.

 Excited State   2:      Singlet-A      1.9340 eV  641.06 nm  f=0.0439  <S**2>=0.000
     175 ->177         0.54431
     176 ->178        -0.41848

 Excited State   3:      Singlet-A      2.9234 eV  424.11 nm  f=0.0104  <S**2>=0.000
     168 ->177         0.32766
     168 ->178        -0.18251
     168 ->179        -0.32543
     168 ->181        -0.20367
     168 ->186        -0.18006
     169 ->177         0.17678
     169 ->179        -0.16369
     169 ->181        -0.10243

 Excited State   4:      Singlet-A      2.9378 eV  422.03 nm  f=0.0352  <S**2>=0.000
     170 ->177         0.29562
     170 ->179         0.29567
     170 ->180         0.32914
     170 ->181        -0.24229
     170 ->186         0.19148
     170 ->188         0.20450

 Excited State   5:      Singlet-A      2.9711 eV  417.30 nm  f=0.7460  <S**2>=0.000
     175 ->177         0.30783
     176 ->178         0.47622
     176 ->179         0.33384

 The electronic state is 1-A.
 Alpha  occ. eigenvalues --   -1.86024  -1.83840  -1.81515  -1.76700  -1.73245
 Alpha  occ. eigenvalues --   -1.71078  -1.64930  -1.62043  -1.61210  -1.58732
 Alpha  occ. eigenvalues --   -1.55594  -1.52143  -1.50404  -1.49254  -1.48884
 Alpha  occ. eigenvalues --   -1.44869  -1.43807  -1.40529  -1.38307  -1.38237
 Alpha  occ. eigenvalues --   -1.36372  -1.34148  -1.32406  -1.30525  -1.29480
 Alpha  occ. eigenvalues --   -1.26286  -1.25203  -1.21625  -1.20132  -1.18360
 Alpha  occ. eigenvalues --   -1.17104  -1.16268  -1.15757  -1.15234  -1.13556
 Alpha  occ. eigenvalues --   -1.12898  -1.12011  -1.11129  -1.05898  -1.04664
 Alpha  occ. eigenvalues --   -1.03054  -1.01805  -0.99793  -0.98167  -0.97521
 Alpha  occ. eigenvalues --   -0.96549  -0.94425  -0.93379  -0.92960  -0.92394
 Alpha  occ. eigenvalues --   -0.90566  -0.90362  -0.88997  -0.88110  -0.86741
 Alpha  occ. eigenvalues --   -0.86332  -0.84052  -0.83151  -0.82937  -0.80786
 Alpha  occ. eigenvalues --   -0.79702  -0.78405  -0.77758  -0.77025  -0.76698
 Alpha  occ. eigenvalues --   -0.76440  -0.76053  -0.75255  -0.74350  -0.73968
 Alpha  occ. eigenvalues --   -0.73778  -0.73005  -0.72456  -0.71477  -0.71095
 Alpha  occ. eigenvalues --   -0.70837  -0.69780  -0.69311  -0.68411  -0.67853
 Alpha  occ. eigenvalues --   -0.67671  -0.67167  -0.66991  -0.66737  -0.66369
 Alpha  occ. eigenvalues --   -0.66135  -0.65751  -0.64328  -0.64235  -0.63579
 Alpha  occ. eigenvalues --   -0.63471  -0.63347  -0.62557  -0.62545  -0.62158
 Alpha  occ. eigenvalues --   -0.61543  -0.60986  -0.60662  -0.60291  -0.59484
 Alpha  occ. eigenvalues --   -0.59461  -0.59009  -0.58858  -0.58311  -0.58028
 Alpha  occ. eigenvalues --   -0.57443  -0.57081  -0.56712  -0.56039  -0.55972
 Alpha  occ. eigenvalues --   -0.55782  -0.55051  -0.55022  -0.54714  -0.54507
 Alpha  occ. eigenvalues --   -0.54235  -0.53881  -0.53720  -0.53434  -0.53023
 Alpha  occ. eigenvalues --   -0.52578  -0.52169  -0.51799  -0.51631  -0.51565
 Alpha  occ. eigenvalues --   -0.51083  -0.50965  -0.50800  -0.50656  -0.50599
 Alpha  occ. eigenvalues --   -0.49962  -0.49938  -0.49595  -0.49411  -0.49134
 Alpha  occ. eigenvalues --   -0.48825  -0.48455  -0.48012  -0.47748  -0.47672
 Alpha  occ. eigenvalues --   -0.47359  -0.47084  -0.46590  -0.46496  -0.46133
 Alpha  occ. eigenvalues --   -0.45897  -0.45859  -0.45609  -0.45530  -0.45489
 Alpha  occ. eigenvalues --   -0.45331  -0.44860  -0.44485  -0.43880  -0.43745
 Alpha  occ. eigenvalues --   -0.43285  -0.43057  -0.42580  -0.42408  -0.42091
 Alpha  occ. eigenvalues --   -0.42067  -0.41921  -0.41838  -0.39476  -0.38873
 Alpha  occ. eigenvalues --   -0.38671  -0.36868  -0.35466  -0.34929  -0.33923
 Alpha  occ. eigenvalues --   -0.33268  -0.32554  -0.32355  -0.31660  -0.26657
 Alpha  occ. eigenvalues --   -0.21735
 Alpha virt. eigenvalues --   -0.08512  -0.02081  -0.00494   0.01276   0.02054
 Alpha virt. eigenvalues --    0.02310   0.03096   0.03313   0.04649   0.04976
 Alpha virt. eigenvalues --    0.06355   0.06774   0.07484   0.07659   0.08043

 Mulliken charges:
               1
     1  Mg   0.425228
     2  C   -0.058364
     3  C   -0.056553
     4  C   -0.069606
     5  C   -0.088369
     6  N   -0.269851
     7  C    0.138864
     8  C    0.013005
     9  C    0.009571
    10  C    0.106539
    11  C   -0.057730
    12  C   -0.006821
    13  C    0.006002
    14  C    0.466773
    15  O   -0.517144
    16  O   -0.267922
    17  N   -0.312612
    18  C    0.062821
    19  C    0.005788
    20  C   -0.069709
    21  C    0.164322
    22  C   -0.046316
    23  C    0.325443
    24  O   -0.537378
    25  C   -0.034663
    26  N   -0.287649
    27  C    0.132229
    28  C    0.008989
    29  C    0.000496
    30  C    0.151793
    31  C   -0.049842
    32  C   -0.013186
    33  C   -0.054700
    34  N   -0.320215
    35  C    0.114307
    36  C    0.042610
    37  C   -0.049875
    38  C    0.121125
    39  C   -0.038276
    40  C    0.352776
    41  O   -0.514264
    42  C    0.056378
    43  C    0.492040
    44  O   -0.520793
    45  O   -0.278305
    46  C    0.074835
    47  C    0.112239
    48  C   -0.091990
    49  C   -0.009831
    50  C   -0.056942
    51  C   -0.019162
    52  C   -0.036019
    53  C   -0.042586
    54  C   -0.011929
    55  C   -0.063108
    56  C   -0.023727
    57  C   -0.045670
    58  C   -0.034030
    59  C   -0.020792
    60  C   -0.064752
    61  C   -0.038338
    62  C   -0.037655
    63  C   -0.027019
    64  C   -0.009824
    65  C   -0.057785
    66  C   -0.069221
    67  H    0.020736
    68  H    0.034561
    69  H    0.028091
    70  H    0.031769
    71  H    0.022447
    72  H    0.012559
    73  H    0.024276
    74  H    0.023207
    75  H    0.030418
    76  H    0.025226
    77  H    0.040948
    78  H    0.034615
    79  H    0.013369
    80  H    0.037676
    81  H    0.038322
    82  H    0.040279
    83  H    0.027740
    84  H    0.035513
    85  H    0.032685
    86  H    0.040565
    87  H    0.024008
    88  H    0.020623
    89  H    0.018417
    90  H    0.032705
    91  H    0.008390
    92  H    0.024156
    93  H    0.014826
    94  H    0.016802
    95  H    0.032931
    96  H    0.033383
    97  H    0.042228
    98  H    0.060304
    99  H    0.030638
   100  H    0.055480
   101  H    0.034558
   102  H    0.068981
   103  H    0.018532
   104  H    0.031796
   105  H    0.025473
   106  H    0.029596
   107  H    0.036048
   108  H    0.028745
   109  H    0.031828
   110  H    0.026693
   111  H    0.011572
   112  H    0.015302
   113  H    0.030108
   114  H    0.021255
   115  H    0.021193
   116  H    0.010919
   117  H    0.016729
   118  H    0.012714
   119  H    0.026578
   120  H    0.012369
   121  H    0.022799
   122  H    0.000435
   123  H    0.023299
   124  H    0.016117
   125  H    0.017233
   126  H    0.021160
   127  H    0.018779
   128  H    0.021217
   129  H    0.016979
   130  H    0.033224
   131  H    0.011324
   132  H    0.011567
   133  H    0.012803
   134  H    0.019128
   135  H    0.020748
   136  H    0.026968
   137  H    0.008980
   138  H    0.012217
   139  H    0.036554
   140  H    0.023935
 Sum of Mulliken charges =  -0.00000

 Dipole moment (field-independent basis, Debye):
    X=              4.5904    Y=              0.4339    Z=              1.1350  Tot=              4.7485
 N-N= 4.437849660837D+03 E-N= 0.000000000000D+00  KE=-9.549977961538D+03
 Leave Link  601 at Thu May  5 12:39:23 2022, MaxMem=  6710886400 cpu:               0.8 elap:               0.0
 (Enter /sw/apps/gaussian-16.0/g16/l9999.exe)
 1\1\GINC-BP1-COMPUTE069\SP\RZINDO CIS\STO-3G\C55H74Mg1N4O6\OF15641\05-
 May-2022\0\\#p ZINDO=(nstates=5)\\step_851_chromophore_27 ZINDO\\0,1\M
 g,0,-5.405,24.681,27.176\C,0,-4.185,27.063,29.463\C,0,-6.043,22.591,29
 .91\C,0,-6.412,22.478,25.071\C,0,-4.509,26.853,24.594\N,0,-5.164,24.78
 2,29.485\C,0,-4.673,25.873,30.13\C,0,-4.807,25.767,31.585\C,0,-5.059,2
 4.244,31.708\C,0,-5.555,23.82,30.327\C,0,-3.794,23.412,32.104\C,0,-5.8
 75,26.632,32.186\C,0,-5.506,27.201,33.527\C,0,-6.513,26.921,34.661\O,0

 Normal termination of Gaussian 16 at Thu May  5 12:39:23 2022.
