 Gaussian 16, Revision A.03,
 Gaussian 16:  ES64L-G16RevA.03 25-Dec-2016

 ------------------------------
 #p blyp/Def2SVP td=(nstates=5)
 ------------------------------

 --------------------------------------------------
 step_1151_chromophore_8 TDDFT with blyp functional
 --------------------------------------------------
 Symbolic Z-matrix:
 Charge =  0 Multiplicity = 1

                         Standard orientation:
 ---------------------------------------------------------------------
 Center     Atomic      Atomic             Coordinates (Angstroms)
 Number     Number       Type             X           Y           Z
 ---------------------------------------------------------------------
      1         12           0       -4.294534   -0.934567    0.096551
      2          6           0       -3.558461    2.220530    0.835291
      3          6           0       -4.561756   -0.193464   -3.223017
      4          6           0       -4.786506   -4.194667   -0.491224
      5          6           0       -4.159731   -1.654300    3.562481
      6          7           0       -4.004051    0.828464   -1.014926
      7          6           0       -3.615462    2.003687   -0.525399
      8          6           0       -3.530535    3.048013   -1.683058
      9          6           0       -4.479479    2.414877   -2.722003
     10          6           0       -4.325728    0.926409   -2.358125
     11          6           0       -5.947191    2.822722   -2.614020
     12          6           0       -2.092042    3.266792   -2.216455
     13          6           0       -1.581026    4.705108   -2.042030
     14          6           0       -0.462571    4.973905   -1.054987
     15          8           0       -0.462077    5.799068   -0.132095
     16          8           0        0.710143    4.237836   -1.346172
     17          7           0       -4.421441   -2.075983   -1.671534
     18          6           0       -4.455559   -1.565680   -2.877706
     19          6           0       -4.575355   -2.673989   -3.834376
     20          6           0       -4.669306   -3.831634   -3.080465
     21          6           0       -4.584684   -3.427221   -1.654014
     22          6           0       -4.724007   -2.532761   -5.349569
     23          6           0       -4.881251   -5.249459   -3.628085
     24          8           0       -5.098077   -5.440642   -4.829055
     25          6           0       -4.892515   -6.505186   -2.753723
     26          7           0       -4.324141   -2.738034    1.356208
     27          6           0       -4.741067   -3.930308    0.893520
     28          6           0       -4.899348   -4.939287    2.061503
     29          6           0       -4.544359   -4.119772    3.301961
     30          6           0       -4.372451   -2.696803    2.671906
     31          6           0       -6.337632   -5.641117    2.258159
     32          6           0       -3.305660   -4.569093    4.091364
     33          6           0       -3.469958   -4.746918    5.560280
     34          7           0       -3.773197    0.052114    1.916744
     35          6           0       -3.713094   -0.355514    3.241926
     36          6           0       -3.544100    0.819791    4.079344
     37          6           0       -3.488199    1.872153    3.179209
     38          6           0       -3.582897    1.299299    1.913438
     39          6           0       -3.356057    0.918468    5.600865
     40          6           0       -3.404317    3.287538    3.059109
     41          8           0       -3.299313    4.201176    3.886692
     42          6           0       -3.297673    3.532849    1.485714
     43          6           0       -4.371460    4.531871    1.148464
     44          8           0       -5.531052    4.387674    1.459226
     45          8           0       -3.806006    5.549967    0.442856
     46          6           0       -4.810667    6.543369   -0.036727
     47          6           0        2.003890    4.523683   -0.624052
     48          6           0        2.797414    3.207728   -0.476038
     49          6           0        4.103641    3.013279   -0.558808
     50          6           0        5.164864    4.175474   -0.477501
     51          6           0        4.609824    1.600937   -0.444767
     52          6           0        5.827181    1.347941   -1.340427
     53          6           0        5.447717    0.376582   -2.456124
     54          6           0        6.400456   -0.816243   -2.609838
     55          6           0        5.855758   -1.869894   -3.627889
     56          6           0        6.521732   -1.615123   -1.239974
     57          6           0        8.018255   -1.714178   -0.723380
     58          6           0        8.194027   -1.220822    0.745044
     59          6           0        9.575793   -1.682147    1.192821
     60          6           0        9.539508   -2.588009    2.472295
     61          6           0       10.504737   -0.498128    1.272704
     62          6           0       11.486835   -0.241378    0.090747
     63          6           0       12.983002   -0.182254    0.407292
     64          6           0       13.738716   -1.511459    0.837725
     65          6           0       14.005280   -2.341290   -0.402477
     66          6           0       15.024869   -1.011043    1.482099
     67          1           0       -4.925372   -0.087345   -4.247493
     68          1           0       -5.188993   -5.179494   -0.736823
     69          1           0       -4.319013   -1.968931    4.596774
     70          1           0       -4.069815    3.933315   -1.344962
     71          1           0       -4.215578    2.546766   -3.771029
     72          1           0       -6.180337    3.077279   -3.647547
     73          1           0       -6.187868    3.652330   -1.947522
     74          1           0       -6.644049    2.055136   -2.276882
     75          1           0       -2.064738    2.984476   -3.268610
     76          1           0       -1.370979    2.634241   -1.698282
     77          1           0       -2.270601    5.443013   -1.632139
     78          1           0       -1.209605    5.068091   -3.000657
     79          1           0       -4.971093   -1.544827   -5.740924
     80          1           0       -5.447037   -3.174546   -5.852446
     81          1           0       -3.867399   -3.005897   -5.830115
     82          1           0       -5.779693   -6.529352   -2.120812
     83          1           0       -4.003163   -6.384978   -2.135281
     84          1           0       -4.825133   -7.331424   -3.461698
     85          1           0       -4.128378   -5.694088    1.903244
     86          1           0       -5.439259   -4.025160    3.916371
     87          1           0       -6.998519   -5.271429    1.474287
     88          1           0       -6.801526   -5.635399    3.243887
     89          1           0       -6.194875   -6.678498    1.955600
     90          1           0       -2.440468   -3.928358    3.923240
     91          1           0       -3.064862   -5.534770    3.648475
     92          1           0       -2.592764   -5.288515    5.915629
     93          1           0       -4.303077   -5.370123    5.884253
     94          1           0       -3.585604   -3.827024    6.132265
     95          1           0       -4.101410    1.647588    5.918449
     96          1           0       -2.337403    1.229599    5.832190
     97          1           0       -3.607354   -0.072349    5.978669
     98          1           0       -2.279332    3.825854    1.232622
     99          1           0       -5.490204    6.002506   -0.694485
    100          1           0       -4.279074    7.328451   -0.575285
    101          1           0       -5.365179    7.039118    0.760230
    102          1           0        1.967248    5.073963    0.315259
    103          1           0        2.526241    5.121317   -1.372015
    104          1           0        2.173455    2.314055   -0.497425
    105          1           0        5.588361    4.436018   -1.447456
    106          1           0        5.925995    3.805957    0.209251
    107          1           0        4.738546    5.061095   -0.007005
    108          1           0        3.820923    0.850491   -0.488538
    109          1           0        4.938951    1.552620    0.593543
    110          1           0        6.641951    0.924933   -0.753872
    111          1           0        5.992335    2.262625   -1.909605
    112          1           0        5.475805    0.953313   -3.380817
    113          1           0        4.424627    0.006106   -2.512200
    114          1           0        7.332902   -0.494606   -3.074262
    115          1           0        5.817562   -1.296602   -4.553325
    116          1           0        4.850126   -2.153396   -3.317037
    117          1           0        6.640755   -2.619237   -3.733069
    118          1           0        6.172540   -2.629451   -1.430533
    119          1           0        5.927399   -1.110465   -0.478172
    120          1           0        8.616987   -1.078777   -1.376911
    121          1           0        8.366186   -2.724418   -0.936040
    122          1           0        7.436261   -1.759469    1.314600
    123          1           0        7.983714   -0.160182    0.883258
    124          1           0       10.034918   -2.387998    0.500140
    125          1           0        9.441342   -3.612174    2.111811
    126          1           0        8.710864   -2.292971    3.115916
    127          1           0       10.458516   -2.561745    3.057632
    128          1           0       11.129049   -0.588127    2.161820
    129          1           0        9.902970    0.410424    1.295756
    130          1           0       11.120303    0.680304   -0.360760
    131          1           0       11.417376   -1.038363   -0.649861
    132          1           0       13.076046    0.532946    1.224796
    133          1           0       13.546167    0.247636   -0.421811
    134          1           0       13.246189   -2.174673    1.549057
    135          1           0       13.365044   -2.113877   -1.254154
    136          1           0       13.685890   -3.347083   -0.129630
    137          1           0       15.010815   -2.503483   -0.791847
    138          1           0       14.825760   -0.883375    2.546428
    139          1           0       15.320236    0.007284    1.228404
    140          1           0       15.896295   -1.660776    1.405779
 ---------------------------------------------------------------------

 SCF Done:  E(RB-LYP) =  -3007.35694185     A.U. after   23 cycles

 Excitation energies and oscillator strengths:

 Excited State   1:      Singlet-A      1.8200 eV  681.24 nm  f=0.0453  <S**2>=0.000
     244 -> 247        0.65026
     246 -> 247       -0.26699
 This state for optimization and/or second-order correction.
 Total Energy, E(TD-HF/TD-DFT) =  -3007.29005869
 Copying the excited state density for this state as the 1-particle RhoCI density.

 Excited State   2:      Singlet-A      1.8596 eV  666.74 nm  f=0.2168  <S**2>=0.000
     243 -> 247        0.22771
     244 -> 247        0.27136
     245 -> 248        0.16694
     246 -> 247        0.58936
     246 <- 247       -0.12306

 Excited State   3:      Singlet-A      1.8928 eV  655.02 nm  f=0.0363  <S**2>=0.000
     243 -> 247        0.66319
     246 -> 247       -0.22471

 Excited State   4:      Singlet-A      2.0208 eV  613.55 nm  f=0.0998  <S**2>=0.000
     245 -> 247        0.65224
     246 -> 248       -0.22074

 Excited State   5:      Singlet-A      2.2878 eV  541.94 nm  f=0.0000  <S**2>=0.000
     242 -> 247        0.70705

 The electronic state is 1-A.
 Alpha  occ. eigenvalues --  -46.27806 -18.82443 -18.80973 -18.76603 -18.76471
 Alpha  occ. eigenvalues --  -18.75438 -18.75112 -14.03282 -14.03267 -14.01204
 Alpha  occ. eigenvalues --  -14.00524 -10.03870 -10.03326  -9.99915  -9.98812
 Alpha  occ. eigenvalues --   -9.97907  -9.97857  -9.97099  -9.96927  -9.96300
 Alpha  occ. eigenvalues --   -9.96280  -9.95768  -9.95476  -9.95421  -9.94544
 Alpha  occ. eigenvalues --   -9.94226  -9.94223  -9.93896  -9.93786  -9.93731
 Alpha  occ. eigenvalues --   -9.93568  -9.93515  -9.93340  -9.93200  -9.93123
 Alpha  occ. eigenvalues --   -9.93078  -9.92783  -9.92757  -9.92690  -9.92645
 Alpha  occ. eigenvalues --   -9.92598  -9.92539  -9.92539  -9.92503  -9.92384
 Alpha  occ. eigenvalues --   -9.92332  -9.92196  -9.92020  -9.91836  -9.91616
 Alpha  occ. eigenvalues --   -9.91566  -9.91480  -9.91304  -9.91265  -9.91264
 Alpha  occ. eigenvalues --   -9.91217  -9.91141  -9.90927  -9.90839  -9.90833
 Alpha  occ. eigenvalues --   -9.90707  -9.90615  -9.90511  -9.90426  -9.90423
 Alpha  occ. eigenvalues --   -9.90183  -2.92361  -1.72803  -1.72212  -1.72093
 Alpha  occ. eigenvalues --   -0.97814  -0.95215  -0.90896  -0.90440  -0.89719
 Alpha  occ. eigenvalues --   -0.88323  -0.87863  -0.87413  -0.87008  -0.86303
 Alpha  occ. eigenvalues --   -0.75510  -0.73818  -0.73191  -0.73068  -0.73054
 Alpha  occ. eigenvalues --   -0.71883  -0.71797  -0.71174  -0.71028  -0.70393
 Alpha  occ. eigenvalues --   -0.69688  -0.69479  -0.67899  -0.67736  -0.67232
 Alpha  occ. eigenvalues --   -0.66495  -0.65953  -0.65084  -0.64936  -0.64541
 Alpha  occ. eigenvalues --   -0.63948  -0.62751  -0.62229  -0.61654  -0.60839
 Alpha  occ. eigenvalues --   -0.60609  -0.60514  -0.60379  -0.59552  -0.58459
 Alpha  occ. eigenvalues --   -0.58396  -0.57801  -0.56947  -0.56320  -0.54932
 Alpha  occ. eigenvalues --   -0.54230  -0.53065  -0.53048  -0.52201  -0.52071
 Alpha  occ. eigenvalues --   -0.51625  -0.51523  -0.51233  -0.50494  -0.49532
 Alpha  occ. eigenvalues --   -0.48778  -0.48641  -0.48495  -0.48459  -0.46586
 Alpha  occ. eigenvalues --   -0.46434  -0.46003  -0.45747  -0.45599  -0.44548
 Alpha  occ. eigenvalues --   -0.44291  -0.43581  -0.43312  -0.42544  -0.42260
 Alpha  occ. eigenvalues --   -0.42089  -0.41761  -0.41608  -0.41444  -0.41190
 Alpha  occ. eigenvalues --   -0.40916  -0.40673  -0.40555  -0.40219  -0.39904
 Alpha  occ. eigenvalues --   -0.39579  -0.39558  -0.39519  -0.39242  -0.38991
 Alpha  occ. eigenvalues --   -0.38858  -0.38858  -0.38750  -0.38570  -0.38217
 Alpha  occ. eigenvalues --   -0.38170  -0.37943  -0.37714  -0.37334  -0.37196
 Alpha  occ. eigenvalues --   -0.37124  -0.36842  -0.36407  -0.36274  -0.36261
 Alpha  occ. eigenvalues --   -0.36183  -0.35952  -0.35854  -0.35727  -0.35552
 Alpha  occ. eigenvalues --   -0.35308  -0.35285  -0.35219  -0.35159  -0.34885
 Alpha  occ. eigenvalues --   -0.34826  -0.34639  -0.34350  -0.34114  -0.34100
 Alpha  occ. eigenvalues --   -0.33777  -0.33601  -0.33566  -0.33510  -0.33336
 Alpha  occ. eigenvalues --   -0.33161  -0.32555  -0.32451  -0.32407  -0.32148
 Alpha  occ. eigenvalues --   -0.32007  -0.31953  -0.31627  -0.31412  -0.31333
 Alpha  occ. eigenvalues --   -0.31158  -0.31116  -0.30866  -0.30612  -0.30528
 Alpha  occ. eigenvalues --   -0.30343  -0.30153  -0.30113  -0.29962  -0.29770
 Alpha  occ. eigenvalues --   -0.29428  -0.29319  -0.29262  -0.29184  -0.28997
 Alpha  occ. eigenvalues --   -0.28956  -0.28524  -0.28308  -0.28246  -0.28095
 Alpha  occ. eigenvalues --   -0.27989  -0.27711  -0.27075  -0.26622  -0.26328
 Alpha  occ. eigenvalues --   -0.26156  -0.26054  -0.25715  -0.25638  -0.25511
 Alpha  occ. eigenvalues --   -0.25481  -0.25079  -0.24115  -0.24025  -0.23621
 Alpha  occ. eigenvalues --   -0.22835  -0.22512  -0.21750  -0.21293  -0.21091
 Alpha  occ. eigenvalues --   -0.20772  -0.19925  -0.18401  -0.18107  -0.17194
 Alpha  occ. eigenvalues --   -0.15991
 Alpha virt. eigenvalues --   -0.11518  -0.06893  -0.05808  -0.04420  -0.03221
 Alpha virt. eigenvalues --   -0.02577  -0.01632  -0.01241  -0.01154   0.00115
 Alpha virt. eigenvalues --    0.01060   0.01925   0.02328   0.02499   0.02648

 Mulliken charges:
               1
     1  Mg   0.681129
     2  C   -0.009017
     3  C   -0.055075
     4  C   -0.041520
     5  C   -0.062941
     6  N   -0.238412
     7  C   -0.066358
     8  C    0.038454
     9  C   -0.025397
    10  C    0.038165
    11  C    0.134675
    12  C    0.181256
    13  C    0.137335
    14  C    0.058209
    15  O   -0.193108
    16  O   -0.323262
    17  N   -0.238719
    18  C    0.074474
    19  C   -0.125560
    20  C    0.069147
    21  C    0.099993
    22  C    0.179043
    23  C   -0.104824
    24  O   -0.180655
    25  C    0.138180
    26  N   -0.162712
    27  C   -0.010474
    28  C    0.033837
    29  C    0.002463
    30  C   -0.032481
    31  C    0.111363
    32  C    0.143000
    33  C    0.061321
    34  N   -0.191384
    35  C    0.114230
    36  C   -0.222227
    37  C    0.122441
    38  C    0.051852
    39  C    0.184804
    40  C   -0.054079
    41  O   -0.144961
    42  C    0.054137
    43  C    0.088486
    44  O   -0.170766
    45  O   -0.257727
    46  C    0.217500
    47  C    0.321361
    48  C   -0.122062
    49  C   -0.151893
    50  C    0.134928
    51  C    0.133415
    52  C    0.111293
    53  C    0.078112
    54  C   -0.103440
    55  C    0.104082
    56  C    0.108600
    57  C    0.025686
    58  C    0.120930
    59  C   -0.072893
    60  C    0.092912
    61  C    0.131853
    62  C    0.087914
    63  C    0.058145
    64  C   -0.056050
    65  C    0.100209
    66  C    0.104883
    67  H   -0.061574
    68  H   -0.092349
    69  H   -0.062626
    70  H   -0.028615
    71  H   -0.041879
    72  H   -0.008220
    73  H   -0.001072
    74  H   -0.002391
    75  H   -0.023113
    76  H   -0.000680
    77  H    0.005308
    78  H    0.001456
    79  H   -0.016599
    80  H   -0.008307
    81  H   -0.006457
    82  H    0.034365
    83  H    0.000332
    84  H    0.000575
    85  H   -0.017693
    86  H   -0.031005
    87  H   -0.009683
    88  H    0.012074
    89  H   -0.014595
    90  H   -0.010966
    91  H   -0.035578
    92  H   -0.014080
    93  H   -0.018515
    94  H   -0.006057
    95  H    0.017905
    96  H    0.023141
    97  H   -0.020643
    98  H    0.007605
    99  H    0.008522
   100  H    0.018685
   101  H    0.027814
   102  H    0.025634
   103  H   -0.007230
   104  H   -0.037152
   105  H    0.017085
   106  H   -0.007118
   107  H   -0.007534
   108  H   -0.027656
   109  H   -0.028571
   110  H   -0.016045
   111  H   -0.022526
   112  H   -0.054878
   113  H   -0.039546
   114  H   -0.032018
   115  H   -0.031118
   116  H   -0.004514
   117  H   -0.010197
   118  H   -0.032335
   119  H   -0.025916
   120  H   -0.028799
   121  H   -0.027796
   122  H   -0.037956
   123  H   -0.015318
   124  H   -0.035264
   125  H   -0.016617
   126  H   -0.013448
   127  H   -0.022069
   128  H   -0.046328
   129  H   -0.045940
   130  H   -0.036903
   131  H   -0.038952
   132  H   -0.038163
   133  H   -0.028788
   134  H   -0.026261
   135  H   -0.017452
   136  H   -0.033804
   137  H   -0.016038
   138  H   -0.030046
   139  H   -0.018317
   140  H   -0.021017
 Sum of Mulliken charges =  -0.00000

 Dipole moment (field-independent basis, Debye):
    X=              1.2162    Y=             -2.5732    Z=             -1.0435  Tot=              3.0314
 Quadrupole moment (field-independent basis, Debye-Ang):
   XX=           -390.8070   YY=           -409.7001   ZZ=           -416.9493
   XY=              8.0071   XZ=             -1.4990   YZ=            -57.6381

 Normal termination of Gaussian 16 at Wed May  4 01:52:52 2022.
