 Gaussian 16, Revision A.03,
 Gaussian 16:  ES64L-G16RevA.03 25-Dec-2016

 -----------------------------------
 #p cam-b3lyp/Def2SVP td=(nstates=5)
 -----------------------------------

 -------------------------------------------------------
 step_1151_chromophore_8 TDDFT with cam-b3lyp functional
 -------------------------------------------------------
 Symbolic Z-matrix:
 Charge =  0 Multiplicity = 1

                         Standard orientation:
 ---------------------------------------------------------------------
 Center     Atomic      Atomic             Coordinates (Angstroms)
 Number     Number       Type             X           Y           Z
 ---------------------------------------------------------------------
      1         12           0       -4.294534   -0.934567    0.096551
      2          6           0       -3.558461    2.220530    0.835291
      3          6           0       -4.561756   -0.193464   -3.223017
      4          6           0       -4.786506   -4.194667   -0.491224
      5          6           0       -4.159731   -1.654300    3.562481
      6          7           0       -4.004051    0.828464   -1.014926
      7          6           0       -3.615462    2.003687   -0.525399
      8          6           0       -3.530535    3.048013   -1.683058
      9          6           0       -4.479479    2.414877   -2.722003
     10          6           0       -4.325728    0.926409   -2.358125
     11          6           0       -5.947191    2.822722   -2.614020
     12          6           0       -2.092042    3.266792   -2.216455
     13          6           0       -1.581026    4.705108   -2.042030
     14          6           0       -0.462571    4.973905   -1.054987
     15          8           0       -0.462077    5.799068   -0.132095
     16          8           0        0.710143    4.237836   -1.346172
     17          7           0       -4.421441   -2.075983   -1.671534
     18          6           0       -4.455559   -1.565680   -2.877706
     19          6           0       -4.575355   -2.673989   -3.834376
     20          6           0       -4.669306   -3.831634   -3.080465
     21          6           0       -4.584684   -3.427221   -1.654014
     22          6           0       -4.724007   -2.532761   -5.349569
     23          6           0       -4.881251   -5.249459   -3.628085
     24          8           0       -5.098077   -5.440642   -4.829055
     25          6           0       -4.892515   -6.505186   -2.753723
     26          7           0       -4.324141   -2.738034    1.356208
     27          6           0       -4.741067   -3.930308    0.893520
     28          6           0       -4.899348   -4.939287    2.061503
     29          6           0       -4.544359   -4.119772    3.301961
     30          6           0       -4.372451   -2.696803    2.671906
     31          6           0       -6.337632   -5.641117    2.258159
     32          6           0       -3.305660   -4.569093    4.091364
     33          6           0       -3.469958   -4.746918    5.560280
     34          7           0       -3.773197    0.052114    1.916744
     35          6           0       -3.713094   -0.355514    3.241926
     36          6           0       -3.544100    0.819791    4.079344
     37          6           0       -3.488199    1.872153    3.179209
     38          6           0       -3.582897    1.299299    1.913438
     39          6           0       -3.356057    0.918468    5.600865
     40          6           0       -3.404317    3.287538    3.059109
     41          8           0       -3.299313    4.201176    3.886692
     42          6           0       -3.297673    3.532849    1.485714
     43          6           0       -4.371460    4.531871    1.148464
     44          8           0       -5.531052    4.387674    1.459226
     45          8           0       -3.806006    5.549967    0.442856
     46          6           0       -4.810667    6.543369   -0.036727
     47          6           0        2.003890    4.523683   -0.624052
     48          6           0        2.797414    3.207728   -0.476038
     49          6           0        4.103641    3.013279   -0.558808
     50          6           0        5.164864    4.175474   -0.477501
     51          6           0        4.609824    1.600937   -0.444767
     52          6           0        5.827181    1.347941   -1.340427
     53          6           0        5.447717    0.376582   -2.456124
     54          6           0        6.400456   -0.816243   -2.609838
     55          6           0        5.855758   -1.869894   -3.627889
     56          6           0        6.521732   -1.615123   -1.239974
     57          6           0        8.018255   -1.714178   -0.723380
     58          6           0        8.194027   -1.220822    0.745044
     59          6           0        9.575793   -1.682147    1.192821
     60          6           0        9.539508   -2.588009    2.472295
     61          6           0       10.504737   -0.498128    1.272704
     62          6           0       11.486835   -0.241378    0.090747
     63          6           0       12.983002   -0.182254    0.407292
     64          6           0       13.738716   -1.511459    0.837725
     65          6           0       14.005280   -2.341290   -0.402477
     66          6           0       15.024869   -1.011043    1.482099
     67          1           0       -4.925372   -0.087345   -4.247493
     68          1           0       -5.188993   -5.179494   -0.736823
     69          1           0       -4.319013   -1.968931    4.596774
     70          1           0       -4.069815    3.933315   -1.344962
     71          1           0       -4.215578    2.546766   -3.771029
     72          1           0       -6.180337    3.077279   -3.647547
     73          1           0       -6.187868    3.652330   -1.947522
     74          1           0       -6.644049    2.055136   -2.276882
     75          1           0       -2.064738    2.984476   -3.268610
     76          1           0       -1.370979    2.634241   -1.698282
     77          1           0       -2.270601    5.443013   -1.632139
     78          1           0       -1.209605    5.068091   -3.000657
     79          1           0       -4.971093   -1.544827   -5.740924
     80          1           0       -5.447037   -3.174546   -5.852446
     81          1           0       -3.867399   -3.005897   -5.830115
     82          1           0       -5.779693   -6.529352   -2.120812
     83          1           0       -4.003163   -6.384978   -2.135281
     84          1           0       -4.825133   -7.331424   -3.461698
     85          1           0       -4.128378   -5.694088    1.903244
     86          1           0       -5.439259   -4.025160    3.916371
     87          1           0       -6.998519   -5.271429    1.474287
     88          1           0       -6.801526   -5.635399    3.243887
     89          1           0       -6.194875   -6.678498    1.955600
     90          1           0       -2.440468   -3.928358    3.923240
     91          1           0       -3.064862   -5.534770    3.648475
     92          1           0       -2.592764   -5.288515    5.915629
     93          1           0       -4.303077   -5.370123    5.884253
     94          1           0       -3.585604   -3.827024    6.132265
     95          1           0       -4.101410    1.647588    5.918449
     96          1           0       -2.337403    1.229599    5.832190
     97          1           0       -3.607354   -0.072349    5.978669
     98          1           0       -2.279332    3.825854    1.232622
     99          1           0       -5.490204    6.002506   -0.694485
    100          1           0       -4.279074    7.328451   -0.575285
    101          1           0       -5.365179    7.039118    0.760230
    102          1           0        1.967248    5.073963    0.315259
    103          1           0        2.526241    5.121317   -1.372015
    104          1           0        2.173455    2.314055   -0.497425
    105          1           0        5.588361    4.436018   -1.447456
    106          1           0        5.925995    3.805957    0.209251
    107          1           0        4.738546    5.061095   -0.007005
    108          1           0        3.820923    0.850491   -0.488538
    109          1           0        4.938951    1.552620    0.593543
    110          1           0        6.641951    0.924933   -0.753872
    111          1           0        5.992335    2.262625   -1.909605
    112          1           0        5.475805    0.953313   -3.380817
    113          1           0        4.424627    0.006106   -2.512200
    114          1           0        7.332902   -0.494606   -3.074262
    115          1           0        5.817562   -1.296602   -4.553325
    116          1           0        4.850126   -2.153396   -3.317037
    117          1           0        6.640755   -2.619237   -3.733069
    118          1           0        6.172540   -2.629451   -1.430533
    119          1           0        5.927399   -1.110465   -0.478172
    120          1           0        8.616987   -1.078777   -1.376911
    121          1           0        8.366186   -2.724418   -0.936040
    122          1           0        7.436261   -1.759469    1.314600
    123          1           0        7.983714   -0.160182    0.883258
    124          1           0       10.034918   -2.387998    0.500140
    125          1           0        9.441342   -3.612174    2.111811
    126          1           0        8.710864   -2.292971    3.115916
    127          1           0       10.458516   -2.561745    3.057632
    128          1           0       11.129049   -0.588127    2.161820
    129          1           0        9.902970    0.410424    1.295756
    130          1           0       11.120303    0.680304   -0.360760
    131          1           0       11.417376   -1.038363   -0.649861
    132          1           0       13.076046    0.532946    1.224796
    133          1           0       13.546167    0.247636   -0.421811
    134          1           0       13.246189   -2.174673    1.549057
    135          1           0       13.365044   -2.113877   -1.254154
    136          1           0       13.685890   -3.347083   -0.129630
    137          1           0       15.010815   -2.503483   -0.791847
    138          1           0       14.825760   -0.883375    2.546428
    139          1           0       15.320236    0.007284    1.228404
    140          1           0       15.896295   -1.660776    1.405779
 ---------------------------------------------------------------------

 SCF Done:  E(RCAM-B3LYP) =  -3007.15987562     A.U. after   16 cycles

 Excitation energies and oscillator strengths:

 Excited State   1:      Singlet-A      1.7642 eV  702.77 nm  f=0.3674  <S**2>=0.000
     245 -> 248       -0.17920
     246 -> 247        0.68447
     245 <- 248       -0.10421
 This state for optimization and/or second-order correction.
 Total Energy, E(TD-HF/TD-DFT) =  -3007.09504163
 Copying the excited state density for this state as the 1-particle RhoCI density.

 Excited State   2:      Singlet-A      2.2262 eV  556.94 nm  f=0.1128  <S**2>=0.000
     245 -> 247        0.64458
     246 -> 248        0.27999

 Excited State   3:      Singlet-A      3.3845 eV  366.33 nm  f=0.0002  <S**2>=0.000
     242 -> 247        0.19497
     242 -> 249       -0.12417
     242 -> 251       -0.11285
     243 -> 247        0.55691
     243 -> 249       -0.22365
     243 -> 251       -0.18086

 Excited State   4:      Singlet-A      3.5557 eV  348.70 nm  f=0.3423  <S**2>=0.000
     241 -> 247       -0.12062
     242 -> 247       -0.35936
     243 -> 247        0.15311
     245 -> 247       -0.20850
     246 -> 248        0.51390

 Excited State   5:      Singlet-A      3.5938 eV  344.99 nm  f=0.1231  <S**2>=0.000
     240 -> 247       -0.10226
     241 -> 247       -0.29499
     242 -> 247        0.50528
     243 -> 247       -0.17082
     245 -> 247       -0.11138
     246 -> 248        0.28079

 The electronic state is 1-A.
 Alpha  occ. eigenvalues --  -46.89405 -19.25367 -19.23733 -19.19588 -19.19453
 Alpha  occ. eigenvalues --  -19.18813 -19.18093 -14.42284 -14.41959 -14.39811
 Alpha  occ. eigenvalues --  -14.38852 -10.39227 -10.38621 -10.35254 -10.34004
 Alpha  occ. eigenvalues --  -10.31956 -10.31935 -10.31784 -10.31504 -10.30871
 Alpha  occ. eigenvalues --  -10.30660 -10.30003 -10.29936 -10.29435 -10.28596
 Alpha  occ. eigenvalues --  -10.28288 -10.28276 -10.28208 -10.27906 -10.27830
 Alpha  occ. eigenvalues --  -10.27767 -10.27706 -10.27487 -10.27394 -10.27161
 Alpha  occ. eigenvalues --  -10.27098 -10.26903 -10.26896 -10.26622 -10.26621
 Alpha  occ. eigenvalues --  -10.26537 -10.26460 -10.26399 -10.26395 -10.26222
 Alpha  occ. eigenvalues --  -10.26190 -10.26060 -10.25731 -10.25615 -10.25285
 Alpha  occ. eigenvalues --  -10.25245 -10.25116 -10.25059 -10.24940 -10.24930
 Alpha  occ. eigenvalues --  -10.24906 -10.24889 -10.24626 -10.24461 -10.24420
 Alpha  occ. eigenvalues --  -10.24301 -10.24227 -10.24074 -10.24026 -10.24026
 Alpha  occ. eigenvalues --  -10.23965  -3.17862  -1.92781  -1.92291  -1.92180
 Alpha  occ. eigenvalues --   -1.16308  -1.13556  -1.09424  -1.08430  -1.07784
 Alpha  occ. eigenvalues --   -1.06025  -1.05571  -1.05175  -1.04776  -1.03930
 Alpha  occ. eigenvalues --   -0.92541  -0.90683  -0.89951  -0.89821  -0.89794
 Alpha  occ. eigenvalues --   -0.88619  -0.88471  -0.87758  -0.87613  -0.86899
 Alpha  occ. eigenvalues --   -0.86295  -0.86088  -0.84086  -0.83909  -0.83426
 Alpha  occ. eigenvalues --   -0.82547  -0.82085  -0.81203  -0.80697  -0.80377
 Alpha  occ. eigenvalues --   -0.79649  -0.78326  -0.77783  -0.77295  -0.76190
 Alpha  occ. eigenvalues --   -0.75989  -0.75934  -0.75739  -0.74819  -0.73633
 Alpha  occ. eigenvalues --   -0.73437  -0.72781  -0.71890  -0.71172  -0.69524
 Alpha  occ. eigenvalues --   -0.68801  -0.67721  -0.67541  -0.66379  -0.66318
 Alpha  occ. eigenvalues --   -0.65833  -0.65751  -0.65290  -0.64527  -0.63509
 Alpha  occ. eigenvalues --   -0.62577  -0.62344  -0.62297  -0.62213  -0.60291
 Alpha  occ. eigenvalues --   -0.60108  -0.59412  -0.59170  -0.59042  -0.58057
 Alpha  occ. eigenvalues --   -0.57783  -0.56753  -0.56508  -0.55514  -0.55485
 Alpha  occ. eigenvalues --   -0.55348  -0.54863  -0.54376  -0.54256  -0.54055
 Alpha  occ. eigenvalues --   -0.53830  -0.53315  -0.53174  -0.53036  -0.52666
 Alpha  occ. eigenvalues --   -0.52360  -0.52309  -0.52005  -0.51880  -0.51775
 Alpha  occ. eigenvalues --   -0.51567  -0.51493  -0.51228  -0.50971  -0.50720
 Alpha  occ. eigenvalues --   -0.50546  -0.50177  -0.50100  -0.49740  -0.49539
 Alpha  occ. eigenvalues --   -0.49368  -0.49218  -0.48834  -0.48444  -0.48422
 Alpha  occ. eigenvalues --   -0.48228  -0.48152  -0.48082  -0.47981  -0.47784
 Alpha  occ. eigenvalues --   -0.47638  -0.47363  -0.47192  -0.47080  -0.46785
 Alpha  occ. eigenvalues --   -0.46597  -0.46510  -0.46410  -0.46209  -0.45981
 Alpha  occ. eigenvalues --   -0.45629  -0.45588  -0.45401  -0.45367  -0.45174
 Alpha  occ. eigenvalues --   -0.44817  -0.44223  -0.44091  -0.44020  -0.43758
 Alpha  occ. eigenvalues --   -0.43679  -0.43480  -0.43155  -0.43115  -0.43022
 Alpha  occ. eigenvalues --   -0.42790  -0.42498  -0.42262  -0.42040  -0.41877
 Alpha  occ. eigenvalues --   -0.41832  -0.41649  -0.41523  -0.41380  -0.41293
 Alpha  occ. eigenvalues --   -0.40748  -0.40509  -0.40488  -0.40287  -0.40075
 Alpha  occ. eigenvalues --   -0.40052  -0.39508  -0.39471  -0.39243  -0.39149
 Alpha  occ. eigenvalues --   -0.38953  -0.38592  -0.37909  -0.37511  -0.37371
 Alpha  occ. eigenvalues --   -0.37046  -0.36877  -0.36712  -0.36510  -0.36333
 Alpha  occ. eigenvalues --   -0.36110  -0.35570  -0.35403  -0.34545  -0.34437
 Alpha  occ. eigenvalues --   -0.33424  -0.33327  -0.33089  -0.31414  -0.30829
 Alpha  occ. eigenvalues --   -0.30565  -0.30282  -0.29893  -0.29673  -0.23955
 Alpha  occ. eigenvalues --   -0.21340
 Alpha virt. eigenvalues --   -0.08565  -0.01699   0.00736   0.02341   0.02677
 Alpha virt. eigenvalues --    0.04631   0.05180   0.06143   0.06450   0.06808
 Alpha virt. eigenvalues --    0.07696   0.08573   0.08716   0.08847   0.09234

 Mulliken charges:
               1
     1  Mg   0.815994
     2  C   -0.039290
     3  C   -0.071528
     4  C   -0.060598
     5  C   -0.067074
     6  N   -0.314527
     7  C   -0.017311
     8  C   -0.018843
     9  C   -0.072765
    10  C    0.056275
    11  C    0.078604
    12  C    0.126679
    13  C    0.067018
    14  C    0.144045
    15  O   -0.233670
    16  O   -0.389655
    17  N   -0.327958
    18  C    0.090901
    19  C   -0.133806
    20  C   -0.003155
    21  C    0.129040
    22  C    0.120217
    23  C   -0.024511
    24  O   -0.220073
    25  C    0.056178
    26  N   -0.231553
    27  C    0.008952
    28  C   -0.018449
    29  C   -0.055090
    30  C   -0.013769
    31  C    0.054597
    32  C    0.080326
    33  C    0.002113
    34  N   -0.281087
    35  C    0.114185
    36  C   -0.213040
    37  C    0.039379
    38  C    0.090604
    39  C    0.140341
    40  C    0.047792
    41  O   -0.185290
    42  C   -0.021662
    43  C    0.174505
    44  O   -0.208108
    45  O   -0.321418
    46  C    0.177170
    47  C    0.291319
    48  C   -0.144503
    49  C   -0.166702
    50  C    0.072758
    51  C    0.070693
    52  C    0.046943
    53  C    0.033682
    54  C   -0.156677
    55  C    0.046888
    56  C    0.050325
    57  C   -0.019027
    58  C    0.063163
    59  C   -0.133212
    60  C    0.041998
    61  C    0.073958
    62  C    0.041937
    63  C    0.001900
    64  C   -0.114169
    65  C    0.037578
    66  C    0.042189
    67  H   -0.026708
    68  H   -0.057418
    69  H   -0.028245
    70  H    0.002856
    71  H   -0.004786
    72  H    0.015664
    73  H    0.020906
    74  H    0.024359
    75  H    0.009369
    76  H    0.032281
    77  H    0.036226
    78  H    0.034406
    79  H    0.009746
    80  H    0.024045
    81  H    0.022462
    82  H    0.058857
    83  H    0.028188
    84  H    0.036820
    85  H    0.016842
    86  H    0.004421
    87  H    0.015243
    88  H    0.035928
    89  H    0.009301
    90  H    0.019949
    91  H   -0.006771
    92  H    0.011485
    93  H    0.004682
    94  H    0.014615
    95  H    0.043361
    96  H    0.048331
    97  H    0.001528
    98  H    0.047770
    99  H    0.028282
   100  H    0.042283
   101  H    0.052887
   102  H    0.055075
   103  H    0.020339
   104  H   -0.002882
   105  H    0.039880
   106  H    0.017870
   107  H    0.017302
   108  H    0.002892
   109  H    0.001618
   110  H    0.008168
   111  H    0.007643
   112  H   -0.024101
   113  H   -0.011526
   114  H   -0.001604
   115  H   -0.005903
   116  H    0.017921
   117  H    0.014022
   118  H   -0.001319
   119  H   -0.000514
   120  H   -0.003862
   121  H    0.000428
   122  H   -0.007776
   123  H    0.010335
   124  H   -0.004261
   125  H    0.006886
   126  H    0.009533
   127  H    0.001293
   128  H   -0.017261
   129  H   -0.015808
   130  H   -0.007200
   131  H   -0.015662
   132  H   -0.010294
   133  H    0.001178
   134  H    0.003077
   135  H    0.006100
   136  H   -0.009038
   137  H    0.009806
   138  H   -0.004573
   139  H    0.006637
   140  H    0.004687
 Sum of Mulliken charges =  -0.00000

 Dipole moment (field-independent basis, Debye):
    X=              0.9946    Y=             -3.1430    Z=             -1.4848  Tot=              3.6156
 Quadrupole moment (field-independent basis, Debye-Ang):
   XX=           -389.1221   YY=           -405.4423   ZZ=           -415.1808
   XY=             10.5032   XZ=              0.4780   YZ=            -59.1789

 Normal termination of Gaussian 16 at Wed May  4 00:44:11 2022.
