 Gaussian 16, Revision A.03,
 Gaussian 16:  ES64L-G16RevA.03 25-Dec-2016

 ---------------------------------
 #p PBE1PBE/Def2SVP td=(nstates=5)
 ---------------------------------

 -----------------------------------------------------
 step_1151_chromophore_8 TDDFT with PBE1PBE functional
 -----------------------------------------------------
 Symbolic Z-matrix:
 Charge =  0 Multiplicity = 1

                         Standard orientation:
 ---------------------------------------------------------------------
 Center     Atomic      Atomic             Coordinates (Angstroms)
 Number     Number       Type             X           Y           Z
 ---------------------------------------------------------------------
      1         12           0       -4.294534   -0.934567    0.096551
      2          6           0       -3.558461    2.220530    0.835291
      3          6           0       -4.561756   -0.193464   -3.223017
      4          6           0       -4.786506   -4.194667   -0.491224
      5          6           0       -4.159731   -1.654300    3.562481
      6          7           0       -4.004051    0.828464   -1.014926
      7          6           0       -3.615462    2.003687   -0.525399
      8          6           0       -3.530535    3.048013   -1.683058
      9          6           0       -4.479479    2.414877   -2.722003
     10          6           0       -4.325728    0.926409   -2.358125
     11          6           0       -5.947191    2.822722   -2.614020
     12          6           0       -2.092042    3.266792   -2.216455
     13          6           0       -1.581026    4.705108   -2.042030
     14          6           0       -0.462571    4.973905   -1.054987
     15          8           0       -0.462077    5.799068   -0.132095
     16          8           0        0.710143    4.237836   -1.346172
     17          7           0       -4.421441   -2.075983   -1.671534
     18          6           0       -4.455559   -1.565680   -2.877706
     19          6           0       -4.575355   -2.673989   -3.834376
     20          6           0       -4.669306   -3.831634   -3.080465
     21          6           0       -4.584684   -3.427221   -1.654014
     22          6           0       -4.724007   -2.532761   -5.349569
     23          6           0       -4.881251   -5.249459   -3.628085
     24          8           0       -5.098077   -5.440642   -4.829055
     25          6           0       -4.892515   -6.505186   -2.753723
     26          7           0       -4.324141   -2.738034    1.356208
     27          6           0       -4.741067   -3.930308    0.893520
     28          6           0       -4.899348   -4.939287    2.061503
     29          6           0       -4.544359   -4.119772    3.301961
     30          6           0       -4.372451   -2.696803    2.671906
     31          6           0       -6.337632   -5.641117    2.258159
     32          6           0       -3.305660   -4.569093    4.091364
     33          6           0       -3.469958   -4.746918    5.560280
     34          7           0       -3.773197    0.052114    1.916744
     35          6           0       -3.713094   -0.355514    3.241926
     36          6           0       -3.544100    0.819791    4.079344
     37          6           0       -3.488199    1.872153    3.179209
     38          6           0       -3.582897    1.299299    1.913438
     39          6           0       -3.356057    0.918468    5.600865
     40          6           0       -3.404317    3.287538    3.059109
     41          8           0       -3.299313    4.201176    3.886692
     42          6           0       -3.297673    3.532849    1.485714
     43          6           0       -4.371460    4.531871    1.148464
     44          8           0       -5.531052    4.387674    1.459226
     45          8           0       -3.806006    5.549967    0.442856
     46          6           0       -4.810667    6.543369   -0.036727
     47          6           0        2.003890    4.523683   -0.624052
     48          6           0        2.797414    3.207728   -0.476038
     49          6           0        4.103641    3.013279   -0.558808
     50          6           0        5.164864    4.175474   -0.477501
     51          6           0        4.609824    1.600937   -0.444767
     52          6           0        5.827181    1.347941   -1.340427
     53          6           0        5.447717    0.376582   -2.456124
     54          6           0        6.400456   -0.816243   -2.609838
     55          6           0        5.855758   -1.869894   -3.627889
     56          6           0        6.521732   -1.615123   -1.239974
     57          6           0        8.018255   -1.714178   -0.723380
     58          6           0        8.194027   -1.220822    0.745044
     59          6           0        9.575793   -1.682147    1.192821
     60          6           0        9.539508   -2.588009    2.472295
     61          6           0       10.504737   -0.498128    1.272704
     62          6           0       11.486835   -0.241378    0.090747
     63          6           0       12.983002   -0.182254    0.407292
     64          6           0       13.738716   -1.511459    0.837725
     65          6           0       14.005280   -2.341290   -0.402477
     66          6           0       15.024869   -1.011043    1.482099
     67          1           0       -4.925372   -0.087345   -4.247493
     68          1           0       -5.188993   -5.179494   -0.736823
     69          1           0       -4.319013   -1.968931    4.596774
     70          1           0       -4.069815    3.933315   -1.344962
     71          1           0       -4.215578    2.546766   -3.771029
     72          1           0       -6.180337    3.077279   -3.647547
     73          1           0       -6.187868    3.652330   -1.947522
     74          1           0       -6.644049    2.055136   -2.276882
     75          1           0       -2.064738    2.984476   -3.268610
     76          1           0       -1.370979    2.634241   -1.698282
     77          1           0       -2.270601    5.443013   -1.632139
     78          1           0       -1.209605    5.068091   -3.000657
     79          1           0       -4.971093   -1.544827   -5.740924
     80          1           0       -5.447037   -3.174546   -5.852446
     81          1           0       -3.867399   -3.005897   -5.830115
     82          1           0       -5.779693   -6.529352   -2.120812
     83          1           0       -4.003163   -6.384978   -2.135281
     84          1           0       -4.825133   -7.331424   -3.461698
     85          1           0       -4.128378   -5.694088    1.903244
     86          1           0       -5.439259   -4.025160    3.916371
     87          1           0       -6.998519   -5.271429    1.474287
     88          1           0       -6.801526   -5.635399    3.243887
     89          1           0       -6.194875   -6.678498    1.955600
     90          1           0       -2.440468   -3.928358    3.923240
     91          1           0       -3.064862   -5.534770    3.648475
     92          1           0       -2.592764   -5.288515    5.915629
     93          1           0       -4.303077   -5.370123    5.884253
     94          1           0       -3.585604   -3.827024    6.132265
     95          1           0       -4.101410    1.647588    5.918449
     96          1           0       -2.337403    1.229599    5.832190
     97          1           0       -3.607354   -0.072349    5.978669
     98          1           0       -2.279332    3.825854    1.232622
     99          1           0       -5.490204    6.002506   -0.694485
    100          1           0       -4.279074    7.328451   -0.575285
    101          1           0       -5.365179    7.039118    0.760230
    102          1           0        1.967248    5.073963    0.315259
    103          1           0        2.526241    5.121317   -1.372015
    104          1           0        2.173455    2.314055   -0.497425
    105          1           0        5.588361    4.436018   -1.447456
    106          1           0        5.925995    3.805957    0.209251
    107          1           0        4.738546    5.061095   -0.007005
    108          1           0        3.820923    0.850491   -0.488538
    109          1           0        4.938951    1.552620    0.593543
    110          1           0        6.641951    0.924933   -0.753872
    111          1           0        5.992335    2.262625   -1.909605
    112          1           0        5.475805    0.953313   -3.380817
    113          1           0        4.424627    0.006106   -2.512200
    114          1           0        7.332902   -0.494606   -3.074262
    115          1           0        5.817562   -1.296602   -4.553325
    116          1           0        4.850126   -2.153396   -3.317037
    117          1           0        6.640755   -2.619237   -3.733069
    118          1           0        6.172540   -2.629451   -1.430533
    119          1           0        5.927399   -1.110465   -0.478172
    120          1           0        8.616987   -1.078777   -1.376911
    121          1           0        8.366186   -2.724418   -0.936040
    122          1           0        7.436261   -1.759469    1.314600
    123          1           0        7.983714   -0.160182    0.883258
    124          1           0       10.034918   -2.387998    0.500140
    125          1           0        9.441342   -3.612174    2.111811
    126          1           0        8.710864   -2.292971    3.115916
    127          1           0       10.458516   -2.561745    3.057632
    128          1           0       11.129049   -0.588127    2.161820
    129          1           0        9.902970    0.410424    1.295756
    130          1           0       11.120303    0.680304   -0.360760
    131          1           0       11.417376   -1.038363   -0.649861
    132          1           0       13.076046    0.532946    1.224796
    133          1           0       13.546167    0.247636   -0.421811
    134          1           0       13.246189   -2.174673    1.549057
    135          1           0       13.365044   -2.113877   -1.254154
    136          1           0       13.685890   -3.347083   -0.129630
    137          1           0       15.010815   -2.503483   -0.791847
    138          1           0       14.825760   -0.883375    2.546428
    139          1           0       15.320236    0.007284    1.228404
    140          1           0       15.896295   -1.660776    1.405779
 ---------------------------------------------------------------------

 SCF Done:  E(RPBE1PBE) =  -3005.34790060     A.U. after   15 cycles

 Excitation energies and oscillator strengths:

 Excited State   1:      Singlet-A      1.9133 eV  648.03 nm  f=0.3530  <S**2>=0.000
     245 -> 248        0.17354
     246 -> 247        0.69052
     246 <- 247       -0.10244
 This state for optimization and/or second-order correction.
 Total Energy, E(TD-HF/TD-DFT) =  -3005.27758970
 Copying the excited state density for this state as the 1-particle RhoCI density.

 Excited State   2:      Singlet-A      2.2291 eV  556.20 nm  f=0.1156  <S**2>=0.000
     245 -> 247        0.65698
     246 -> 248       -0.24904

 Excited State   3:      Singlet-A      2.8534 eV  434.52 nm  f=0.0004  <S**2>=0.000
     243 -> 247        0.66832
     243 -> 249        0.14134
     243 -> 250       -0.11324
     244 -> 247       -0.10935

 Excited State   4:      Singlet-A      3.0887 eV  401.42 nm  f=0.0001  <S**2>=0.000
     242 -> 247        0.66522
     242 -> 248        0.12381
     242 -> 249       -0.16897

 Excited State   5:      Singlet-A      3.2180 eV  385.28 nm  f=0.0052  <S**2>=0.000
     241 -> 247        0.69240

 The electronic state is 1-A.
 Alpha  occ. eigenvalues --  -46.92770 -19.26043 -19.24463 -19.19856 -19.19737
 Alpha  occ. eigenvalues --  -19.18940 -19.18468 -14.41654 -14.41591 -14.39337
 Alpha  occ. eigenvalues --  -14.38502 -10.36291 -10.35694 -10.32348 -10.31262
 Alpha  occ. eigenvalues --  -10.29455 -10.29365 -10.29179 -10.29173 -10.28461
 Alpha  occ. eigenvalues --  -10.28449 -10.27781 -10.27503 -10.27323 -10.26399
 Alpha  occ. eigenvalues --  -10.26131 -10.26010 -10.25861 -10.25656 -10.25519
 Alpha  occ. eigenvalues --  -10.25400 -10.25235 -10.25119 -10.25004 -10.24951
 Alpha  occ. eigenvalues --  -10.24746 -10.24558 -10.24456 -10.24378 -10.24284
 Alpha  occ. eigenvalues --  -10.24230 -10.24021 -10.23856 -10.23706 -10.23688
 Alpha  occ. eigenvalues --  -10.23670 -10.23641 -10.23139 -10.23034 -10.22996
 Alpha  occ. eigenvalues --  -10.22811 -10.22676 -10.22600 -10.22588 -10.22497
 Alpha  occ. eigenvalues --  -10.22493 -10.22441 -10.22220 -10.21978 -10.21853
 Alpha  occ. eigenvalues --  -10.21825 -10.21789 -10.21709 -10.21567 -10.21457
 Alpha  occ. eigenvalues --  -10.21340  -3.14811  -1.87672  -1.87160  -1.87050
 Alpha  occ. eigenvalues --   -1.11103  -1.08347  -1.04064  -1.03271  -1.02649
 Alpha  occ. eigenvalues --   -1.00792  -1.00450  -0.99821  -0.99391  -0.98593
 Alpha  occ. eigenvalues --   -0.86986  -0.84798  -0.84179  -0.84073  -0.83942
 Alpha  occ. eigenvalues --   -0.82920  -0.82571  -0.82040  -0.81796  -0.81289
 Alpha  occ. eigenvalues --   -0.80517  -0.80355  -0.78322  -0.78134  -0.77690
 Alpha  occ. eigenvalues --   -0.76701  -0.76300  -0.75390  -0.75006  -0.74557
 Alpha  occ. eigenvalues --   -0.73874  -0.72589  -0.72107  -0.71539  -0.70355
 Alpha  occ. eigenvalues --   -0.70244  -0.70071  -0.70061  -0.68950  -0.67888
 Alpha  occ. eigenvalues --   -0.67803  -0.67115  -0.66312  -0.65499  -0.63872
 Alpha  occ. eigenvalues --   -0.63317  -0.62082  -0.61740  -0.60765  -0.60622
 Alpha  occ. eigenvalues --   -0.60298  -0.59918  -0.59833  -0.59110  -0.57684
 Alpha  occ. eigenvalues --   -0.56910  -0.56806  -0.56685  -0.56443  -0.54788
 Alpha  occ. eigenvalues --   -0.54696  -0.53908  -0.53727  -0.53611  -0.52652
 Alpha  occ. eigenvalues --   -0.52240  -0.51349  -0.51004  -0.50059  -0.49882
 Alpha  occ. eigenvalues --   -0.49742  -0.49438  -0.48824  -0.48648  -0.48642
 Alpha  occ. eigenvalues --   -0.48373  -0.47907  -0.47638  -0.47514  -0.47343
 Alpha  occ. eigenvalues --   -0.46948  -0.46865  -0.46505  -0.46372  -0.46209
 Alpha  occ. eigenvalues --   -0.46098  -0.45979  -0.45725  -0.45592  -0.45347
 Alpha  occ. eigenvalues --   -0.45152  -0.44684  -0.44644  -0.44373  -0.44132
 Alpha  occ. eigenvalues --   -0.43900  -0.43801  -0.43463  -0.43064  -0.43020
 Alpha  occ. eigenvalues --   -0.42811  -0.42777  -0.42733  -0.42603  -0.42444
 Alpha  occ. eigenvalues --   -0.42290  -0.42047  -0.41841  -0.41657  -0.41524
 Alpha  occ. eigenvalues --   -0.41253  -0.41169  -0.41077  -0.40923  -0.40666
 Alpha  occ. eigenvalues --   -0.40323  -0.40273  -0.40117  -0.40038  -0.39807
 Alpha  occ. eigenvalues --   -0.39520  -0.38998  -0.38810  -0.38700  -0.38530
 Alpha  occ. eigenvalues --   -0.38446  -0.38175  -0.37974  -0.37849  -0.37711
 Alpha  occ. eigenvalues --   -0.37641  -0.37380  -0.37105  -0.36894  -0.36658
 Alpha  occ. eigenvalues --   -0.36556  -0.36489  -0.36366  -0.36210  -0.36136
 Alpha  occ. eigenvalues --   -0.35605  -0.35404  -0.35255  -0.35080  -0.35019
 Alpha  occ. eigenvalues --   -0.34755  -0.34444  -0.34260  -0.34171  -0.33927
 Alpha  occ. eigenvalues --   -0.33815  -0.33348  -0.32685  -0.32531  -0.32381
 Alpha  occ. eigenvalues --   -0.31893  -0.31865  -0.31608  -0.31550  -0.31153
 Alpha  occ. eigenvalues --   -0.30950  -0.30477  -0.30380  -0.29726  -0.29459
 Alpha  occ. eigenvalues --   -0.28804  -0.28217  -0.28076  -0.27039  -0.26126
 Alpha  occ. eigenvalues --   -0.25824  -0.25481  -0.24941  -0.24913  -0.20878
 Alpha  occ. eigenvalues --   -0.18959
 Alpha virt. eigenvalues --   -0.11082  -0.05213  -0.03516  -0.01823  -0.00455
 Alpha virt. eigenvalues --    0.00137   0.01421   0.01677   0.01923   0.02963
 Alpha virt. eigenvalues --    0.03719   0.05027   0.05151   0.05483   0.05534

 Mulliken charges:
               1
     1  Mg   0.962056
     2  C   -0.052903
     3  C   -0.059987
     4  C   -0.070081
     5  C   -0.067060
     6  N   -0.413949
     7  C    0.076853
     8  C   -0.112574
     9  C   -0.150334
    10  C    0.084344
    11  C    0.025552
    12  C    0.083741
    13  C   -0.012164
    14  C    0.210042
    15  O   -0.267616
    16  O   -0.416718
    17  N   -0.450843
    18  C    0.123630
    19  C   -0.164162
    20  C   -0.061632
    21  C    0.164176
    22  C    0.066179
    23  C    0.031889
    24  O   -0.254313
    25  C   -0.024041
    26  N   -0.338708
    27  C    0.050375
    28  C   -0.094450
    29  C   -0.129127
    30  C    0.027513
    31  C   -0.003835
    32  C    0.016366
    33  C   -0.069374
    34  N   -0.411562
    35  C    0.143382
    36  C   -0.224350
    37  C   -0.006109
    38  C    0.143487
    39  C    0.083143
    40  C    0.146354
    41  O   -0.230116
    42  C   -0.138882
    43  C    0.264046
    44  O   -0.242218
    45  O   -0.352506
    46  C    0.115492
    47  C    0.250120
    48  C   -0.155395
    49  C   -0.204116
    50  C    0.006312
    51  C    0.007969
    52  C   -0.036419
    53  C   -0.007383
    54  C   -0.241336
    55  C   -0.020176
    56  C   -0.008943
    57  C   -0.076609
    58  C    0.003860
    59  C   -0.219553
    60  C   -0.017639
    61  C    0.020815
    62  C   -0.017687
    63  C   -0.062409
    64  C   -0.206585
    65  C   -0.018212
    66  C   -0.017370
    67  H    0.007319
    68  H   -0.019365
    69  H    0.004638
    70  H    0.050599
    71  H    0.030881
    72  H    0.042867
    73  H    0.049275
    74  H    0.051749
    75  H    0.041162
    76  H    0.064466
    77  H    0.071222
    78  H    0.067028
    79  H    0.034895
    80  H    0.050972
    81  H    0.050491
    82  H    0.083620
    83  H    0.056646
    84  H    0.064273
    85  H    0.053405
    86  H    0.042475
    87  H    0.043406
    88  H    0.060828
    89  H    0.037220
    90  H    0.052334
    91  H    0.027678
    92  H    0.040238
    93  H    0.032901
    94  H    0.041579
    95  H    0.070769
    96  H    0.075397
    97  H    0.030682
    98  H    0.089695
    99  H    0.051688
   100  H    0.063326
   101  H    0.075001
   102  H    0.079345
   103  H    0.048856
   104  H    0.027194
   105  H    0.065835
   106  H    0.045947
   107  H    0.045272
   108  H    0.031752
   109  H    0.036539
   110  H    0.048255
   111  H    0.043049
   112  H    0.009844
   113  H    0.019349
   114  H    0.034556
   115  H    0.023940
   116  H    0.045642
   117  H    0.043767
   118  H    0.032394
   119  H    0.035178
   120  H    0.030581
   121  H    0.031827
   122  H    0.026487
   123  H    0.039983
   124  H    0.033785
   125  H    0.034890
   126  H    0.036765
   127  H    0.028391
   128  H    0.015677
   129  H    0.017540
   130  H    0.025326
   131  H    0.017149
   132  H    0.023566
   133  H    0.034231
   134  H    0.038803
   135  H    0.033006
   136  H    0.019056
   137  H    0.036310
   138  H    0.024538
   139  H    0.033563
   140  H    0.032198
 Sum of Mulliken charges =  -0.00000

 Dipole moment (field-independent basis, Debye):
    X=              1.0122    Y=             -3.0456    Z=             -1.3122  Tot=              3.4673
 Quadrupole moment (field-independent basis, Debye-Ang):
   XX=           -386.2246   YY=           -402.2829   ZZ=           -410.9358
   XY=              9.8765   XZ=             -0.1922   YZ=            -60.4495

 Normal termination of Gaussian 16 at Wed May  4 01:03:41 2022.
