 Gaussian 16, Revision A.03,
 Gaussian 16:  ES64L-G16RevA.03 25-Dec-2016

 --------------------------------
 #p wB97XD/Def2SVP td=(nstates=5)
 --------------------------------

 ----------------------------------------------------
 step_1151_chromophore_8 TDDFT with wB97XD functional
 ----------------------------------------------------
 Symbolic Z-matrix:
 Charge =  0 Multiplicity = 1

                         Standard orientation:
 ---------------------------------------------------------------------
 Center     Atomic      Atomic             Coordinates (Angstroms)
 Number     Number       Type             X           Y           Z
 ---------------------------------------------------------------------
      1         12           0       -4.294534   -0.934567    0.096551
      2          6           0       -3.558461    2.220530    0.835291
      3          6           0       -4.561756   -0.193464   -3.223017
      4          6           0       -4.786506   -4.194667   -0.491224
      5          6           0       -4.159731   -1.654300    3.562481
      6          7           0       -4.004051    0.828464   -1.014926
      7          6           0       -3.615462    2.003687   -0.525399
      8          6           0       -3.530535    3.048013   -1.683058
      9          6           0       -4.479479    2.414877   -2.722003
     10          6           0       -4.325728    0.926409   -2.358125
     11          6           0       -5.947191    2.822722   -2.614020
     12          6           0       -2.092042    3.266792   -2.216455
     13          6           0       -1.581026    4.705108   -2.042030
     14          6           0       -0.462571    4.973905   -1.054987
     15          8           0       -0.462077    5.799068   -0.132095
     16          8           0        0.710143    4.237836   -1.346172
     17          7           0       -4.421441   -2.075983   -1.671534
     18          6           0       -4.455559   -1.565680   -2.877706
     19          6           0       -4.575355   -2.673989   -3.834376
     20          6           0       -4.669306   -3.831634   -3.080465
     21          6           0       -4.584684   -3.427221   -1.654014
     22          6           0       -4.724007   -2.532761   -5.349569
     23          6           0       -4.881251   -5.249459   -3.628085
     24          8           0       -5.098077   -5.440642   -4.829055
     25          6           0       -4.892515   -6.505186   -2.753723
     26          7           0       -4.324141   -2.738034    1.356208
     27          6           0       -4.741067   -3.930308    0.893520
     28          6           0       -4.899348   -4.939287    2.061503
     29          6           0       -4.544359   -4.119772    3.301961
     30          6           0       -4.372451   -2.696803    2.671906
     31          6           0       -6.337632   -5.641117    2.258159
     32          6           0       -3.305660   -4.569093    4.091364
     33          6           0       -3.469958   -4.746918    5.560280
     34          7           0       -3.773197    0.052114    1.916744
     35          6           0       -3.713094   -0.355514    3.241926
     36          6           0       -3.544100    0.819791    4.079344
     37          6           0       -3.488199    1.872153    3.179209
     38          6           0       -3.582897    1.299299    1.913438
     39          6           0       -3.356057    0.918468    5.600865
     40          6           0       -3.404317    3.287538    3.059109
     41          8           0       -3.299313    4.201176    3.886692
     42          6           0       -3.297673    3.532849    1.485714
     43          6           0       -4.371460    4.531871    1.148464
     44          8           0       -5.531052    4.387674    1.459226
     45          8           0       -3.806006    5.549967    0.442856
     46          6           0       -4.810667    6.543369   -0.036727
     47          6           0        2.003890    4.523683   -0.624052
     48          6           0        2.797414    3.207728   -0.476038
     49          6           0        4.103641    3.013279   -0.558808
     50          6           0        5.164864    4.175474   -0.477501
     51          6           0        4.609824    1.600937   -0.444767
     52          6           0        5.827181    1.347941   -1.340427
     53          6           0        5.447717    0.376582   -2.456124
     54          6           0        6.400456   -0.816243   -2.609838
     55          6           0        5.855758   -1.869894   -3.627889
     56          6           0        6.521732   -1.615123   -1.239974
     57          6           0        8.018255   -1.714178   -0.723380
     58          6           0        8.194027   -1.220822    0.745044
     59          6           0        9.575793   -1.682147    1.192821
     60          6           0        9.539508   -2.588009    2.472295
     61          6           0       10.504737   -0.498128    1.272704
     62          6           0       11.486835   -0.241378    0.090747
     63          6           0       12.983002   -0.182254    0.407292
     64          6           0       13.738716   -1.511459    0.837725
     65          6           0       14.005280   -2.341290   -0.402477
     66          6           0       15.024869   -1.011043    1.482099
     67          1           0       -4.925372   -0.087345   -4.247493
     68          1           0       -5.188993   -5.179494   -0.736823
     69          1           0       -4.319013   -1.968931    4.596774
     70          1           0       -4.069815    3.933315   -1.344962
     71          1           0       -4.215578    2.546766   -3.771029
     72          1           0       -6.180337    3.077279   -3.647547
     73          1           0       -6.187868    3.652330   -1.947522
     74          1           0       -6.644049    2.055136   -2.276882
     75          1           0       -2.064738    2.984476   -3.268610
     76          1           0       -1.370979    2.634241   -1.698282
     77          1           0       -2.270601    5.443013   -1.632139
     78          1           0       -1.209605    5.068091   -3.000657
     79          1           0       -4.971093   -1.544827   -5.740924
     80          1           0       -5.447037   -3.174546   -5.852446
     81          1           0       -3.867399   -3.005897   -5.830115
     82          1           0       -5.779693   -6.529352   -2.120812
     83          1           0       -4.003163   -6.384978   -2.135281
     84          1           0       -4.825133   -7.331424   -3.461698
     85          1           0       -4.128378   -5.694088    1.903244
     86          1           0       -5.439259   -4.025160    3.916371
     87          1           0       -6.998519   -5.271429    1.474287
     88          1           0       -6.801526   -5.635399    3.243887
     89          1           0       -6.194875   -6.678498    1.955600
     90          1           0       -2.440468   -3.928358    3.923240
     91          1           0       -3.064862   -5.534770    3.648475
     92          1           0       -2.592764   -5.288515    5.915629
     93          1           0       -4.303077   -5.370123    5.884253
     94          1           0       -3.585604   -3.827024    6.132265
     95          1           0       -4.101410    1.647588    5.918449
     96          1           0       -2.337403    1.229599    5.832190
     97          1           0       -3.607354   -0.072349    5.978669
     98          1           0       -2.279332    3.825854    1.232622
     99          1           0       -5.490204    6.002506   -0.694485
    100          1           0       -4.279074    7.328451   -0.575285
    101          1           0       -5.365179    7.039118    0.760230
    102          1           0        1.967248    5.073963    0.315259
    103          1           0        2.526241    5.121317   -1.372015
    104          1           0        2.173455    2.314055   -0.497425
    105          1           0        5.588361    4.436018   -1.447456
    106          1           0        5.925995    3.805957    0.209251
    107          1           0        4.738546    5.061095   -0.007005
    108          1           0        3.820923    0.850491   -0.488538
    109          1           0        4.938951    1.552620    0.593543
    110          1           0        6.641951    0.924933   -0.753872
    111          1           0        5.992335    2.262625   -1.909605
    112          1           0        5.475805    0.953313   -3.380817
    113          1           0        4.424627    0.006106   -2.512200
    114          1           0        7.332902   -0.494606   -3.074262
    115          1           0        5.817562   -1.296602   -4.553325
    116          1           0        4.850126   -2.153396   -3.317037
    117          1           0        6.640755   -2.619237   -3.733069
    118          1           0        6.172540   -2.629451   -1.430533
    119          1           0        5.927399   -1.110465   -0.478172
    120          1           0        8.616987   -1.078777   -1.376911
    121          1           0        8.366186   -2.724418   -0.936040
    122          1           0        7.436261   -1.759469    1.314600
    123          1           0        7.983714   -0.160182    0.883258
    124          1           0       10.034918   -2.387998    0.500140
    125          1           0        9.441342   -3.612174    2.111811
    126          1           0        8.710864   -2.292971    3.115916
    127          1           0       10.458516   -2.561745    3.057632
    128          1           0       11.129049   -0.588127    2.161820
    129          1           0        9.902970    0.410424    1.295756
    130          1           0       11.120303    0.680304   -0.360760
    131          1           0       11.417376   -1.038363   -0.649861
    132          1           0       13.076046    0.532946    1.224796
    133          1           0       13.546167    0.247636   -0.421811
    134          1           0       13.246189   -2.174673    1.549057
    135          1           0       13.365044   -2.113877   -1.254154
    136          1           0       13.685890   -3.347083   -0.129630
    137          1           0       15.010815   -2.503483   -0.791847
    138          1           0       14.825760   -0.883375    2.546428
    139          1           0       15.320236    0.007284    1.228404
    140          1           0       15.896295   -1.660776    1.405779
 ---------------------------------------------------------------------

 SCF Done:  E(RwB97XD) =  -3007.85884963     A.U. after   17 cycles

 Excitation energies and oscillator strengths:

 Excited State   1:      Singlet-A      1.7115 eV  724.43 nm  f=0.3651  <S**2>=0.000
     245 -> 248       -0.18472
     246 -> 247        0.68223
     245 <- 248       -0.11305
 This state for optimization and/or second-order correction.
 Total Energy, E(TD-HF/TD-DFT) =  -3007.79595432
 Copying the excited state density for this state as the 1-particle RhoCI density.

 Excited State   2:      Singlet-A      2.1752 eV  570.00 nm  f=0.1099  <S**2>=0.000
     245 -> 247        0.64241
     246 -> 248        0.28350

 Excited State   3:      Singlet-A      3.4299 eV  361.48 nm  f=0.0005  <S**2>=0.000
     243 -> 247        0.57050
     243 -> 249       -0.26659
     243 -> 250        0.23677

 Excited State   4:      Singlet-A      3.5770 eV  346.62 nm  f=0.4170  <S**2>=0.000
     240 -> 247       -0.15620
     242 -> 247       -0.30055
     245 -> 247       -0.22587
     246 -> 248        0.54803
     245 <- 247        0.10027

 Excited State   5:      Singlet-A      3.6171 eV  342.77 nm  f=0.0002  <S**2>=0.000
     240 -> 247        0.40910
     240 -> 248       -0.17013
     240 -> 249        0.30729
     240 -> 250        0.17804
     241 -> 247        0.16227
     241 -> 249        0.14751
     241 -> 250        0.12644
     242 -> 247       -0.27633

 The electronic state is 1-A.
 Alpha  occ. eigenvalues --  -46.95751 -19.30569 -19.28973 -19.24517 -19.24370
 Alpha  occ. eigenvalues --  -19.23850 -19.23157 -14.46869 -14.46543 -14.44398
 Alpha  occ. eigenvalues --  -14.43417 -10.43038 -10.42459 -10.39247 -10.38028
 Alpha  occ. eigenvalues --  -10.35877 -10.35842 -10.35692 -10.35547 -10.34956
 Alpha  occ. eigenvalues --  -10.34679 -10.34057 -10.33897 -10.33432 -10.32652
 Alpha  occ. eigenvalues --  -10.32460 -10.32367 -10.32267 -10.32017 -10.31768
 Alpha  occ. eigenvalues --  -10.31746 -10.31628 -10.31573 -10.31453 -10.31285
 Alpha  occ. eigenvalues --  -10.31135 -10.30938 -10.30777 -10.30716 -10.30604
 Alpha  occ. eigenvalues --  -10.30562 -10.30310 -10.30298 -10.30285 -10.30081
 Alpha  occ. eigenvalues --  -10.30058 -10.29993 -10.29693 -10.29425 -10.29253
 Alpha  occ. eigenvalues --  -10.29169 -10.29042 -10.28968 -10.28870 -10.28858
 Alpha  occ. eigenvalues --  -10.28853 -10.28804 -10.28556 -10.28355 -10.28238
 Alpha  occ. eigenvalues --  -10.28140 -10.28131 -10.28036 -10.27930 -10.27880
 Alpha  occ. eigenvalues --  -10.27759  -3.21647  -1.95257  -1.94745  -1.94635
 Alpha  occ. eigenvalues --   -1.18462  -1.15702  -1.11648  -1.10621  -1.09999
 Alpha  occ. eigenvalues --   -1.08055  -1.07767  -1.07209  -1.06812  -1.05966
 Alpha  occ. eigenvalues --   -0.94514  -0.92456  -0.91787  -0.91650  -0.91594
 Alpha  occ. eigenvalues --   -0.90558  -0.90232  -0.89629  -0.89436  -0.88844
 Alpha  occ. eigenvalues --   -0.88287  -0.87986  -0.85941  -0.85764  -0.85337
 Alpha  occ. eigenvalues --   -0.84358  -0.84008  -0.83130  -0.82626  -0.82209
 Alpha  occ. eigenvalues --   -0.81513  -0.80217  -0.79707  -0.79226  -0.78024
 Alpha  occ. eigenvalues --   -0.77879  -0.77747  -0.77667  -0.76624  -0.75459
 Alpha  occ. eigenvalues --   -0.75413  -0.74703  -0.73860  -0.73098  -0.71428
 Alpha  occ. eigenvalues --   -0.70800  -0.69728  -0.69384  -0.68256  -0.68239
 Alpha  occ. eigenvalues --   -0.67797  -0.67576  -0.67279  -0.66532  -0.65323
 Alpha  occ. eigenvalues --   -0.64415  -0.64288  -0.64195  -0.64097  -0.62272
 Alpha  occ. eigenvalues --   -0.62107  -0.61326  -0.61149  -0.61021  -0.60041
 Alpha  occ. eigenvalues --   -0.59737  -0.58740  -0.58438  -0.57487  -0.57359
 Alpha  occ. eigenvalues --   -0.57203  -0.56802  -0.56248  -0.56108  -0.55998
 Alpha  occ. eigenvalues --   -0.55738  -0.55221  -0.55060  -0.54928  -0.54636
 Alpha  occ. eigenvalues --   -0.54277  -0.54236  -0.53897  -0.53801  -0.53719
 Alpha  occ. eigenvalues --   -0.53508  -0.53352  -0.53097  -0.52886  -0.52627
 Alpha  occ. eigenvalues --   -0.52450  -0.52093  -0.51997  -0.51635  -0.51455
 Alpha  occ. eigenvalues --   -0.51232  -0.51136  -0.50791  -0.50387  -0.50332
 Alpha  occ. eigenvalues --   -0.50099  -0.50048  -0.50029  -0.49877  -0.49701
 Alpha  occ. eigenvalues --   -0.49545  -0.49280  -0.49077  -0.48929  -0.48688
 Alpha  occ. eigenvalues --   -0.48484  -0.48392  -0.48337  -0.48157  -0.47879
 Alpha  occ. eigenvalues --   -0.47550  -0.47491  -0.47305  -0.47252  -0.47036
 Alpha  occ. eigenvalues --   -0.46676  -0.46150  -0.45956  -0.45906  -0.45696
 Alpha  occ. eigenvalues --   -0.45597  -0.45325  -0.45115  -0.45051  -0.44866
 Alpha  occ. eigenvalues --   -0.44758  -0.44412  -0.44184  -0.43942  -0.43905
 Alpha  occ. eigenvalues --   -0.43686  -0.43625  -0.43421  -0.43266  -0.43207
 Alpha  occ. eigenvalues --   -0.42640  -0.42394  -0.42352  -0.42128  -0.41957
 Alpha  occ. eigenvalues --   -0.41872  -0.41395  -0.41328  -0.41151  -0.40965
 Alpha  occ. eigenvalues --   -0.40824  -0.40420  -0.39734  -0.39522  -0.39385
 Alpha  occ. eigenvalues --   -0.38899  -0.38878  -0.38563  -0.38472  -0.38157
 Alpha  occ. eigenvalues --   -0.37932  -0.37405  -0.37377  -0.36543  -0.36420
 Alpha  occ. eigenvalues --   -0.35566  -0.35306  -0.34906  -0.33638  -0.32769
 Alpha  occ. eigenvalues --   -0.32752  -0.32429  -0.31910  -0.31672  -0.25883
 Alpha  occ. eigenvalues --   -0.23165
 Alpha virt. eigenvalues --   -0.06901   0.00201   0.02784   0.04704   0.05527
 Alpha virt. eigenvalues --    0.06943   0.07949   0.08550   0.08641   0.09355
 Alpha virt. eigenvalues --    0.10337   0.11784   0.11944   0.12237   0.12294

 Mulliken charges:
               1
     1  Mg   0.953805
     2  C   -0.049660
     3  C   -0.080911
     4  C   -0.074529
     5  C   -0.073517
     6  N   -0.386757
     7  C    0.027788
     8  C   -0.062199
     9  C   -0.121255
    10  C    0.074338
    11  C    0.031744
    12  C    0.087541
    13  C    0.009411
    14  C    0.197654
    15  O   -0.263828
    16  O   -0.416765
    17  N   -0.413602
    18  C    0.114562
    19  C   -0.153119
    20  C   -0.050081
    21  C    0.155620
    22  C    0.073601
    23  C    0.023421
    24  O   -0.249452
    25  C   -0.006600
    26  N   -0.302980
    27  C    0.032714
    28  C   -0.069086
    29  C   -0.101780
    30  C    0.009838
    31  C    0.007946
    32  C    0.030760
    33  C   -0.053615
    34  N   -0.370692
    35  C    0.127510
    36  C   -0.222961
    37  C   -0.005413
    38  C    0.125946
    39  C    0.097966
    40  C    0.126617
    41  O   -0.221644
    42  C   -0.094174
    43  C    0.242904
    44  O   -0.237669
    45  O   -0.350495
    46  C    0.132304
    47  C    0.262408
    48  C   -0.163098
    49  C   -0.192813
    50  C    0.019333
    51  C    0.023984
    52  C   -0.003777
    53  C    0.001714
    54  C   -0.213445
    55  C   -0.003629
    56  C    0.009660
    57  C   -0.058763
    58  C    0.019884
    59  C   -0.188229
    60  C   -0.003820
    61  C    0.034302
    62  C    0.000661
    63  C   -0.040048
    64  C   -0.179298
    65  C   -0.010792
    66  C   -0.006249
    67  H   -0.000210
    68  H   -0.032987
    69  H   -0.004407
    70  H    0.019100
    71  H    0.022373
    72  H    0.038005
    73  H    0.043366
    74  H    0.046140
    75  H    0.035095
    76  H    0.057260
    77  H    0.059435
    78  H    0.062328
    79  H    0.031903
    80  H    0.047429
    81  H    0.046549
    82  H    0.079468
    83  H    0.049085
    84  H    0.063539
    85  H    0.042620
    86  H    0.029196
    87  H    0.036710
    88  H    0.056720
    89  H    0.031085
    90  H    0.044931
    91  H    0.018147
    92  H    0.034891
    93  H    0.026269
    94  H    0.035053
    95  H    0.066043
    96  H    0.070982
    97  H    0.023609
    98  H    0.079151
    99  H    0.045964
   100  H    0.060825
   101  H    0.071724
   102  H    0.076686
   103  H    0.042983
   104  H    0.023756
   105  H    0.061013
   106  H    0.039846
   107  H    0.040426
   108  H    0.024662
   109  H    0.027539
   110  H    0.028934
   111  H    0.032016
   112  H    0.001583
   113  H    0.009444
   114  H    0.023824
   115  H    0.016993
   116  H    0.038460
   117  H    0.036994
   118  H    0.023860
   119  H    0.020512
   120  H    0.017096
   121  H    0.024491
   122  H    0.016209
   123  H    0.031407
   124  H    0.017806
   125  H    0.029019
   126  H    0.030467
   127  H    0.022440
   128  H    0.004152
   129  H    0.008823
   130  H    0.019280
   131  H    0.002279
   132  H    0.012516
   133  H    0.025542
   134  H    0.029415
   135  H    0.026104
   136  H    0.013030
   137  H    0.031954
   138  H    0.017761
   139  H    0.026676
   140  H    0.027426
 Sum of Mulliken charges =  -0.00000

 Dipole moment (field-independent basis, Debye):
    X=              0.9413    Y=             -3.2583    Z=             -1.5506  Tot=              3.7292
 Quadrupole moment (field-independent basis, Debye-Ang):
   XX=           -385.3588   YY=           -401.0524   ZZ=           -410.6656
   XY=             10.8773   XZ=              0.9594   YZ=            -59.7351

 Normal termination of Gaussian 16 at Wed May  4 01:38:31 2022.
