 Gaussian 16, Revision A.03,
 Gaussian 16:  ES64L-G16RevA.03 25-Dec-2016

 --------------------
 #p ZINDO=(nstates=5)
 --------------------

 -----------------------------
 step_1151_chromophore_8 ZINDO
 -----------------------------
 Symbolic Z-matrix:
 Charge =  0 Multiplicity = 1

                         Standard orientation:
 ---------------------------------------------------------------------
 Center     Atomic      Atomic             Coordinates (Angstroms)
 Number     Number       Type             X           Y           Z
 ---------------------------------------------------------------------
      1         12           0       -4.294534   -0.934567    0.096551
      2          6           0       -3.558461    2.220530    0.835291
      3          6           0       -4.561756   -0.193464   -3.223017
      4          6           0       -4.786506   -4.194667   -0.491224
      5          6           0       -4.159731   -1.654300    3.562481
      6          7           0       -4.004051    0.828464   -1.014926
      7          6           0       -3.615462    2.003687   -0.525399
      8          6           0       -3.530535    3.048013   -1.683058
      9          6           0       -4.479479    2.414877   -2.722003
     10          6           0       -4.325728    0.926409   -2.358125
     11          6           0       -5.947191    2.822722   -2.614020
     12          6           0       -2.092042    3.266792   -2.216455
     13          6           0       -1.581026    4.705108   -2.042030
     14          6           0       -0.462571    4.973905   -1.054987
     15          8           0       -0.462077    5.799068   -0.132095
     16          8           0        0.710143    4.237836   -1.346172
     17          7           0       -4.421441   -2.075983   -1.671534
     18          6           0       -4.455559   -1.565680   -2.877706
     19          6           0       -4.575355   -2.673989   -3.834376
     20          6           0       -4.669306   -3.831634   -3.080465
     21          6           0       -4.584684   -3.427221   -1.654014
     22          6           0       -4.724007   -2.532761   -5.349569
     23          6           0       -4.881251   -5.249459   -3.628085
     24          8           0       -5.098077   -5.440642   -4.829055
     25          6           0       -4.892515   -6.505186   -2.753723
     26          7           0       -4.324141   -2.738034    1.356208
     27          6           0       -4.741067   -3.930308    0.893520
     28          6           0       -4.899348   -4.939287    2.061503
     29          6           0       -4.544359   -4.119772    3.301961
     30          6           0       -4.372451   -2.696803    2.671906
     31          6           0       -6.337632   -5.641117    2.258159
     32          6           0       -3.305660   -4.569093    4.091364
     33          6           0       -3.469958   -4.746918    5.560280
     34          7           0       -3.773197    0.052114    1.916744
     35          6           0       -3.713094   -0.355514    3.241926
     36          6           0       -3.544100    0.819791    4.079344
     37          6           0       -3.488199    1.872153    3.179209
     38          6           0       -3.582897    1.299299    1.913438
     39          6           0       -3.356057    0.918468    5.600865
     40          6           0       -3.404317    3.287538    3.059109
     41          8           0       -3.299313    4.201176    3.886692
     42          6           0       -3.297673    3.532849    1.485714
     43          6           0       -4.371460    4.531871    1.148464
     44          8           0       -5.531052    4.387674    1.459226
     45          8           0       -3.806006    5.549967    0.442856
     46          6           0       -4.810667    6.543369   -0.036727
     47          6           0        2.003890    4.523683   -0.624052
     48          6           0        2.797414    3.207728   -0.476038
     49          6           0        4.103641    3.013279   -0.558808
     50          6           0        5.164864    4.175474   -0.477501
     51          6           0        4.609824    1.600937   -0.444767
     52          6           0        5.827181    1.347941   -1.340427
     53          6           0        5.447717    0.376582   -2.456124
     54          6           0        6.400456   -0.816243   -2.609838
     55          6           0        5.855758   -1.869894   -3.627889
     56          6           0        6.521732   -1.615123   -1.239974
     57          6           0        8.018255   -1.714178   -0.723380
     58          6           0        8.194027   -1.220822    0.745044
     59          6           0        9.575793   -1.682147    1.192821
     60          6           0        9.539508   -2.588009    2.472295
     61          6           0       10.504737   -0.498128    1.272704
     62          6           0       11.486835   -0.241378    0.090747
     63          6           0       12.983002   -0.182254    0.407292
     64          6           0       13.738716   -1.511459    0.837725
     65          6           0       14.005280   -2.341290   -0.402477
     66          6           0       15.024869   -1.011043    1.482099
     67          1           0       -4.925372   -0.087345   -4.247493
     68          1           0       -5.188993   -5.179494   -0.736823
     69          1           0       -4.319013   -1.968931    4.596774
     70          1           0       -4.069815    3.933315   -1.344962
     71          1           0       -4.215578    2.546766   -3.771029
     72          1           0       -6.180337    3.077279   -3.647547
     73          1           0       -6.187868    3.652330   -1.947522
     74          1           0       -6.644049    2.055136   -2.276882
     75          1           0       -2.064738    2.984476   -3.268610
     76          1           0       -1.370979    2.634241   -1.698282
     77          1           0       -2.270601    5.443013   -1.632139
     78          1           0       -1.209605    5.068091   -3.000657
     79          1           0       -4.971093   -1.544827   -5.740924
     80          1           0       -5.447037   -3.174546   -5.852446
     81          1           0       -3.867399   -3.005897   -5.830115
     82          1           0       -5.779693   -6.529352   -2.120812
     83          1           0       -4.003163   -6.384978   -2.135281
     84          1           0       -4.825133   -7.331424   -3.461698
     85          1           0       -4.128378   -5.694088    1.903244
     86          1           0       -5.439259   -4.025160    3.916371
     87          1           0       -6.998519   -5.271429    1.474287
     88          1           0       -6.801526   -5.635399    3.243887
     89          1           0       -6.194875   -6.678498    1.955600
     90          1           0       -2.440468   -3.928358    3.923240
     91          1           0       -3.064862   -5.534770    3.648475
     92          1           0       -2.592764   -5.288515    5.915629
     93          1           0       -4.303077   -5.370123    5.884253
     94          1           0       -3.585604   -3.827024    6.132265
     95          1           0       -4.101410    1.647588    5.918449
     96          1           0       -2.337403    1.229599    5.832190
     97          1           0       -3.607354   -0.072349    5.978669
     98          1           0       -2.279332    3.825854    1.232622
     99          1           0       -5.490204    6.002506   -0.694485
    100          1           0       -4.279074    7.328451   -0.575285
    101          1           0       -5.365179    7.039118    0.760230
    102          1           0        1.967248    5.073963    0.315259
    103          1           0        2.526241    5.121317   -1.372015
    104          1           0        2.173455    2.314055   -0.497425
    105          1           0        5.588361    4.436018   -1.447456
    106          1           0        5.925995    3.805957    0.209251
    107          1           0        4.738546    5.061095   -0.007005
    108          1           0        3.820923    0.850491   -0.488538
    109          1           0        4.938951    1.552620    0.593543
    110          1           0        6.641951    0.924933   -0.753872
    111          1           0        5.992335    2.262625   -1.909605
    112          1           0        5.475805    0.953313   -3.380817
    113          1           0        4.424627    0.006106   -2.512200
    114          1           0        7.332902   -0.494606   -3.074262
    115          1           0        5.817562   -1.296602   -4.553325
    116          1           0        4.850126   -2.153396   -3.317037
    117          1           0        6.640755   -2.619237   -3.733069
    118          1           0        6.172540   -2.629451   -1.430533
    119          1           0        5.927399   -1.110465   -0.478172
    120          1           0        8.616987   -1.078777   -1.376911
    121          1           0        8.366186   -2.724418   -0.936040
    122          1           0        7.436261   -1.759469    1.314600
    123          1           0        7.983714   -0.160182    0.883258
    124          1           0       10.034918   -2.387998    0.500140
    125          1           0        9.441342   -3.612174    2.111811
    126          1           0        8.710864   -2.292971    3.115916
    127          1           0       10.458516   -2.561745    3.057632
    128          1           0       11.129049   -0.588127    2.161820
    129          1           0        9.902970    0.410424    1.295756
    130          1           0       11.120303    0.680304   -0.360760
    131          1           0       11.417376   -1.038363   -0.649861
    132          1           0       13.076046    0.532946    1.224796
    133          1           0       13.546167    0.247636   -0.421811
    134          1           0       13.246189   -2.174673    1.549057
    135          1           0       13.365044   -2.113877   -1.254154
    136          1           0       13.685890   -3.347083   -0.129630
    137          1           0       15.010815   -2.503483   -0.791847
    138          1           0       14.825760   -0.883375    2.546428
    139          1           0       15.320236    0.007284    1.228404
    140          1           0       15.896295   -1.660776    1.405779
 ---------------------------------------------------------------------

 SCF Done:  E(RZINDO/S) =  -474.507878682     A.U. after   19 cycles

 Excitation energies and oscillator strengths:

 Excited State   1:      Singlet-A      1.3082 eV  947.72 nm  f=0.5803  <S**2>=0.000
     175 ->178        -0.18905
     176 ->177         0.66212
 This state for optimization and/or second-order correction.
 Total Energy, E(CIS/TDA) =  -474.459802066
 Copying the excited state density for this state as the 1-particle RhoCI density.

 Excited State   2:      Singlet-A      1.9460 eV  637.11 nm  f=0.0333  <S**2>=0.000
     175 ->177         0.54402
     176 ->178         0.42456

 Excited State   3:      Singlet-A      2.9351 eV  422.42 nm  f=0.0017  <S**2>=0.000
     167 ->179        -0.12251
     167 ->180         0.10115
     168 ->177         0.26447
     168 ->178        -0.19567
     168 ->179        -0.39359
     168 ->180         0.31158
     168 ->185        -0.24313
     168 ->194         0.11147

 Excited State   4:      Singlet-A      2.9885 eV  414.88 nm  f=0.0110  <S**2>=0.000
     170 ->177         0.29746
     170 ->179         0.30861
     170 ->180         0.34779
     170 ->185         0.16171
     170 ->188         0.14728
     174 ->177        -0.14306
     176 ->179        -0.11520

 Excited State   5:      Singlet-A      3.0184 eV  410.76 nm  f=1.1544  <S**2>=0.000
     175 ->177        -0.39271
     176 ->178         0.52751
     176 ->179         0.14168

 The electronic state is 1-A.
 Alpha  occ. eigenvalues --   -1.88317  -1.83589  -1.82892  -1.74350  -1.72427
 Alpha  occ. eigenvalues --   -1.68114  -1.66359  -1.62279  -1.59040  -1.58248
 Alpha  occ. eigenvalues --   -1.55601  -1.51911  -1.49324  -1.47472  -1.46198
 Alpha  occ. eigenvalues --   -1.44522  -1.43618  -1.39520  -1.37929  -1.36957
 Alpha  occ. eigenvalues --   -1.36515  -1.33680  -1.32775  -1.31717  -1.29423
 Alpha  occ. eigenvalues --   -1.29134  -1.27153  -1.22559  -1.19944  -1.19189
 Alpha  occ. eigenvalues --   -1.17778  -1.17213  -1.15823  -1.14335  -1.13713
 Alpha  occ. eigenvalues --   -1.13339  -1.10041  -1.09395  -1.06295  -1.03728
 Alpha  occ. eigenvalues --   -1.02413  -1.01761  -0.99145  -0.97710  -0.97332
 Alpha  occ. eigenvalues --   -0.97272  -0.95291  -0.94544  -0.93801  -0.90725
 Alpha  occ. eigenvalues --   -0.90441  -0.89337  -0.88700  -0.88169  -0.87157
 Alpha  occ. eigenvalues --   -0.86433  -0.84467  -0.83728  -0.82056  -0.81104
 Alpha  occ. eigenvalues --   -0.80048  -0.79191  -0.77840  -0.77062  -0.76659
 Alpha  occ. eigenvalues --   -0.76348  -0.75578  -0.74733  -0.74116  -0.73475
 Alpha  occ. eigenvalues --   -0.72655  -0.72397  -0.71629  -0.71157  -0.71070
 Alpha  occ. eigenvalues --   -0.70288  -0.70080  -0.69285  -0.68365  -0.68231
 Alpha  occ. eigenvalues --   -0.67825  -0.66851  -0.66620  -0.66108  -0.65565
 Alpha  occ. eigenvalues --   -0.64815  -0.64669  -0.64512  -0.64395  -0.63730
 Alpha  occ. eigenvalues --   -0.63653  -0.63124  -0.62978  -0.62219  -0.61898
 Alpha  occ. eigenvalues --   -0.61475  -0.60765  -0.60516  -0.60373  -0.60151
 Alpha  occ. eigenvalues --   -0.59829  -0.58970  -0.58594  -0.58501  -0.58237
 Alpha  occ. eigenvalues --   -0.57754  -0.57583  -0.57313  -0.56900  -0.56744
 Alpha  occ. eigenvalues --   -0.55759  -0.55217  -0.54960  -0.54699  -0.54573
 Alpha  occ. eigenvalues --   -0.54086  -0.53673  -0.53258  -0.53185  -0.52671
 Alpha  occ. eigenvalues --   -0.52581  -0.52485  -0.52207  -0.52059  -0.51471
 Alpha  occ. eigenvalues --   -0.51161  -0.51081  -0.50523  -0.50451  -0.50380
 Alpha  occ. eigenvalues --   -0.49713  -0.49614  -0.49452  -0.49151  -0.48699
 Alpha  occ. eigenvalues --   -0.48691  -0.48598  -0.48286  -0.48146  -0.47803
 Alpha  occ. eigenvalues --   -0.47724  -0.47355  -0.47193  -0.46646  -0.46335
 Alpha  occ. eigenvalues --   -0.46060  -0.45999  -0.45718  -0.45565  -0.45078
 Alpha  occ. eigenvalues --   -0.44656  -0.44589  -0.44386  -0.44207  -0.44172
 Alpha  occ. eigenvalues --   -0.44054  -0.43756  -0.43349  -0.41939  -0.41704
 Alpha  occ. eigenvalues --   -0.41577  -0.41301  -0.40923  -0.39024  -0.38938
 Alpha  occ. eigenvalues --   -0.37827  -0.36864  -0.35523  -0.34999  -0.34119
 Alpha  occ. eigenvalues --   -0.33799  -0.32681  -0.32638  -0.32452  -0.26593
 Alpha  occ. eigenvalues --   -0.21905
 Alpha virt. eigenvalues --   -0.08171  -0.02163  -0.00221   0.01512   0.01642
 Alpha virt. eigenvalues --    0.02012   0.03093   0.03564   0.04611   0.05225
 Alpha virt. eigenvalues --    0.06532   0.06795   0.06986   0.07591   0.08010

 Mulliken charges:
               1
     1  Mg   0.429541
     2  C   -0.054464
     3  C   -0.109883
     4  C   -0.072090
     5  C   -0.045470
     6  N   -0.299038
     7  C    0.115791
     8  C    0.005018
     9  C    0.011331
    10  C    0.143175
    11  C   -0.047935
    12  C   -0.009243
    13  C    0.005331
    14  C    0.459866
    15  O   -0.509057
    16  O   -0.299453
    17  N   -0.300400
    18  C    0.143282
    19  C    0.037233
    20  C   -0.034865
    21  C    0.107356
    22  C   -0.048476
    23  C    0.316451
    24  O   -0.523487
    25  C   -0.028939
    26  N   -0.241006
    27  C    0.119663
    28  C    0.006119
    29  C   -0.007829
    30  C    0.091134
    31  C   -0.059080
    32  C   -0.016135
    33  C   -0.050823
    34  N   -0.304940
    35  C    0.048812
    36  C    0.032413
    37  C   -0.059089
    38  C    0.146761
    39  C   -0.040141
    40  C    0.330155
    41  O   -0.527337
    42  C    0.044411
    43  C    0.496308
    44  O   -0.523529
    45  O   -0.266176
    46  C    0.073107
    47  C    0.104364
    48  C   -0.086001
    49  C   -0.010861
    50  C   -0.045914
    51  C   -0.020815
    52  C   -0.036026
    53  C   -0.036382
    54  C   -0.025791
    55  C   -0.066744
    56  C   -0.048208
    57  C   -0.044709
    58  C   -0.026271
    59  C   -0.009627
    60  C   -0.061829
    61  C   -0.034607
    62  C   -0.040083
    63  C   -0.027821
    64  C    0.001141
    65  C   -0.059744
    66  C   -0.057491
    67  H    0.034516
    68  H    0.019451
    69  H    0.027762
    70  H    0.038630
    71  H    0.024054
    72  H    0.015318
    73  H    0.028943
    74  H    0.027804
    75  H    0.026695
    76  H    0.033948
    77  H    0.046942
    78  H    0.042444
    79  H    0.025242
    80  H    0.039117
    81  H    0.038080
    82  H    0.046468
    83  H    0.031845
    84  H    0.045830
    85  H    0.032325
    86  H    0.028440
    87  H    0.022598
    88  H    0.038529
    89  H    0.011034
    90  H    0.026975
    91  H    0.012871
    92  H    0.011808
    93  H    0.015259
    94  H    0.021591
    95  H    0.042393
    96  H    0.043925
    97  H    0.019943
    98  H    0.058225
    99  H    0.037691
   100  H    0.030098
   101  H    0.053387
   102  H    0.069455
   103  H    0.035586
   104  H    0.027571
   105  H    0.035113
   106  H    0.023073
   107  H    0.022965
   108  H    0.029278
   109  H    0.015329
   110  H    0.035055
   111  H    0.030830
   112  H    0.000761
   113  H    0.022733
   114  H    0.026334
   115  H    0.006245
   116  H    0.030582
   117  H    0.025096
   118  H    0.021550
   119  H    0.023644
   120  H    0.014201
   121  H    0.024869
   122  H    0.011413
   123  H    0.032489
   124  H    0.019290
   125  H    0.016620
   126  H    0.020311
   127  H    0.017379
   128  H    0.016705
   129  H    0.017114
   130  H    0.015801
   131  H    0.014709
   132  H    0.007433
   133  H    0.020115
   134  H    0.032956
   135  H    0.016009
   136  H    0.002344
   137  H    0.025148
   138  H    0.005062
   139  H    0.020141
   140  H    0.017553
 Sum of Mulliken charges =  -0.00000

 Dipole moment (field-independent basis, Debye):
    X=              1.1884    Y=             -5.2726    Z=             -3.5113  Tot=              6.4453
 N-N= 4.431513289683D+03 E-N= 0.000000000000D+00  KE=-9.537379202955D+03
 Leave Link  601 at Wed May  4 01:52:59 2022, MaxMem=  6710886400 cpu:               0.8 elap:               0.1
 (Enter /sw/apps/gaussian-16.0/g16/l9999.exe)
 1\1\GINC-BP1-COMPUTE089\SP\RZINDO CIS\STO-3G\C55H74Mg1N4O6\OF15641\04-
 May-2022\0\\#p ZINDO=(nstates=5)\\step_1151_chromophore_8 ZINDO\\0,1\M
 g,0,44.8,2.422,46.932\C,0,42.773,5.044,46.69\C,0,42.156,0.288,47.241\C
 ,0,46.978,-0.122,46.92\C,0,47.534,4.668,46.76\N,0,42.714,2.695,46.886\
 C,0,42.083,3.85,46.687\C,0,40.54,3.616,46.736\C,0,40.465,2.313,47.559\
 C,0,41.821,1.682,47.192\C,0,40.372,2.49,49.073\C,0,39.886,3.498,45.336
 \C,0,38.841,4.587,45.049\C,0,39.145,5.641,44.003\O,0,39.097,6.87,44.14

 Normal termination of Gaussian 16 at Wed May  4 01:52:59 2022.
