 Gaussian 16, Revision A.03,
 Gaussian 16:  ES64L-G16RevA.03 25-Dec-2016

 ------------------------------
 #p blyp/Def2SVP td=(nstates=5)
 ------------------------------

 --------------------------------------------------
 step_601_chromophore_26 TDDFT with blyp functional
 --------------------------------------------------
 Symbolic Z-matrix:
 Charge =  0 Multiplicity = 1

                         Standard orientation:
 ---------------------------------------------------------------------
 Center     Atomic      Atomic             Coordinates (Angstroms)
 Number     Number       Type             X           Y           Z
 ---------------------------------------------------------------------
      1         12           0       -3.899999    1.169085    0.596031
      2          6           0       -4.677814   -2.161879   -0.035018
      3          6           0       -2.164771    0.176472    3.418070
      4          6           0       -2.642382    4.235436    0.788105
      5          6           0       -5.128722    1.918707   -2.691145
      6          7           0       -3.447025   -0.766557    1.609008
      7          6           0       -3.940645   -2.014979    1.184992
      8          6           0       -3.540353   -3.180708    2.106823
      9          6           0       -3.019934   -2.373956    3.331750
     10          6           0       -2.757278   -0.896041    2.744994
     11          6           0       -3.804451   -2.422172    4.677957
     12          6           0       -2.573380   -4.202639    1.503561
     13          6           0       -1.561976   -3.719355    0.388047
     14          6           0       -0.198530   -4.428153    0.441732
     15          8           0        0.113978   -5.368193    1.194496
     16          8           0        0.621222   -3.811183   -0.508354
     17          7           0       -2.607352    2.099503    1.956503
     18          6           0       -2.021654    1.536708    3.073402
     19          6           0       -1.252628    2.526692    3.752784
     20          6           0       -1.333246    3.764651    3.033490
     21          6           0       -2.199890    3.393976    1.833592
     22          6           0       -0.404816    2.239917    4.998843
     23          6           0       -0.730578    5.115065    3.389702
     24          8           0       -0.241809    5.251252    4.519067
     25          6           0       -0.909162    6.306940    2.581870
     26          7           0       -3.720897    2.757852   -0.925548
     27          6           0       -3.350658    3.932633   -0.419004
     28          6           0       -3.906245    5.128940   -1.323234
     29          6           0       -4.476703    4.478518   -2.553742
     30          6           0       -4.457457    2.966310   -1.997147
     31          6           0       -4.847820    6.067852   -0.581524
     32          6           0       -3.759188    4.653745   -3.923185
     33          6           0       -4.559583    5.325364   -5.076657
     34          7           0       -4.890226    0.164095   -1.092665
     35          6           0       -5.338860    0.601551   -2.270075
     36          6           0       -5.875816   -0.509338   -2.967858
     37          6           0       -5.731689   -1.638840   -2.084248
     38          6           0       -5.076016   -1.161835   -1.010423
     39          6           0       -6.354089   -0.449393   -4.424753
     40          6           0       -6.008494   -3.059884   -1.926358
     41          8           0       -6.577239   -3.835222   -2.647401
     42          6           0       -5.318850   -3.398344   -0.562801
     43          6           0       -6.474799   -3.839463    0.236229
     44          8           0       -6.571743   -5.030644    0.608274
     45          8           0       -7.302936   -2.771486    0.610876
     46          6           0       -8.536391   -3.144579    1.276021
     47          6           0        1.919497   -4.462428   -0.813497
     48          6           0        2.962971   -3.385612   -1.175459
     49          6           0        3.563533   -3.001552   -2.321318
     50          6           0        3.072122   -3.325691   -3.721816
     51          6           0        4.813979   -2.185538   -2.125092
     52          6           0        4.505310   -0.623095   -1.857149
     53          6           0        5.390863    0.409766   -2.723319
     54          6           0        5.872876    1.606316   -1.742686
     55          6           0        6.060713    2.962606   -2.537549
     56          6           0        7.286117    1.165280   -1.133845
     57          6           0        7.323895    1.494060    0.454987
     58          6           0        7.390587    0.125516    1.235501
     59          6           0        8.798480   -0.230762    1.807566
     60          6           0        8.641491   -0.937154    3.180734
     61          6           0        9.688701   -1.081548    0.789970
     62          6           0       11.230489   -0.753009    0.783474
     63          6           0       11.757406    0.102972   -0.427348
     64          6           0       13.264924   -0.191848   -0.645728
     65          6           0       14.179726    1.074915   -0.784079
     66          6           0       13.481737   -1.222575   -1.748761
     67          1           0       -1.668126   -0.059614    4.362093
     68          1           0       -2.488476    5.307402    0.930436
     69          1           0       -5.623320    2.151297   -3.636427
     70          1           0       -4.515642   -3.657931    2.196453
     71          1           0       -2.038846   -2.667351    3.704673
     72          1           0       -4.618091   -3.115323    4.464809
     73          1           0       -4.159923   -1.417080    4.904473
     74          1           0       -3.181735   -2.816976    5.481381
     75          1           0       -3.218486   -4.961108    1.059546
     76          1           0       -2.091215   -4.762431    2.305478
     77          1           0       -1.285813   -2.686093    0.598402
     78          1           0       -1.980730   -3.676149   -0.618073
     79          1           0        0.553062    1.732374    4.892067
     80          1           0       -0.968860    1.712341    5.768551
     81          1           0       -0.245141    3.144380    5.587246
     82          1           0       -1.941679    6.650729    2.533509
     83          1           0       -0.627535    5.951956    1.590126
     84          1           0       -0.192002    7.020693    2.988431
     85          1           0       -3.039515    5.748305   -1.555260
     86          1           0       -5.513519    4.787470   -2.683938
     87          1           0       -5.144785    5.620277    0.367006
     88          1           0       -5.662258    6.377353   -1.235798
     89          1           0       -4.436700    7.075893   -0.539221
     90          1           0       -3.380021    3.710274   -4.315699
     91          1           0       -2.912679    5.298570   -3.689176
     92          1           0       -4.528576    4.852587   -6.058274
     93          1           0       -4.121977    6.274307   -5.384840
     94          1           0       -5.594720    5.484689   -4.774188
     95          1           0       -6.353949    0.591506   -4.746546
     96          1           0       -7.327102   -0.933786   -4.506944
     97          1           0       -5.629899   -1.000506   -5.024186
     98          1           0       -4.720433   -4.306235   -0.647477
     99          1           0       -9.395527   -2.728307    0.750599
    100          1           0       -8.475702   -2.848125    2.322159
    101          1           0       -8.768722   -4.205816    1.369595
    102          1           0        1.730587   -5.036850   -1.720314
    103          1           0        2.181639   -5.095990    0.033287
    104          1           0        3.415454   -3.189859   -0.203838
    105          1           0        3.903291   -3.366489   -4.425496
    106          1           0        2.445980   -2.482104   -4.011292
    107          1           0        2.518396   -4.263545   -3.757252
    108          1           0        5.567364   -2.336279   -2.897772
    109          1           0        5.199441   -2.596008   -1.192131
    110          1           0        4.783834   -0.415775   -0.824029
    111          1           0        3.481900   -0.301476   -2.048393
    112          1           0        4.743487    0.901637   -3.450363
    113          1           0        6.167688   -0.088412   -3.303143
    114          1           0        5.168548    1.862144   -0.950927
    115          1           0        5.667061    3.825736   -2.000243
    116          1           0        5.411337    2.973215   -3.413518
    117          1           0        7.076881    3.202167   -2.851516
    118          1           0        8.200925    1.614472   -1.520469
    119          1           0        7.278573    0.081579   -1.251008
    120          1           0        6.446537    2.049446    0.786266
    121          1           0        8.140923    2.203043    0.584380
    122          1           0        7.103710   -0.764460    0.676440
    123          1           0        6.679757    0.110557    2.060987
    124          1           0        9.326342    0.710446    1.960840
    125          1           0        7.607817   -1.144618    3.458104
    126          1           0        9.192813   -0.361930    3.924017
    127          1           0        9.113881   -1.919708    3.167589
    128          1           0        9.235364   -1.164590   -0.198192
    129          1           0        9.633599   -2.111168    1.143575
    130          1           0       11.757488   -1.704227    0.726822
    131          1           0       11.464105   -0.149662    1.661210
    132          1           0       11.505612    1.127774   -0.153679
    133          1           0       11.142984   -0.146271   -1.292125
    134          1           0       13.541011   -0.647893    0.305047
    135          1           0       13.635048    1.999178   -0.590738
    136          1           0       14.711640    1.282460   -1.713356
    137          1           0       14.935002    0.972076   -0.004027
    138          1           0       14.013267   -2.114884   -1.420635
    139          1           0       14.132703   -0.780054   -2.503105
    140          1           0       12.540050   -1.523941   -2.207374
 ---------------------------------------------------------------------

 SCF Done:  E(RB-LYP) =  -3007.34138698     A.U. after   21 cycles

 Excitation energies and oscillator strengths:

 Excited State   1:      Singlet-A      1.8129 eV  683.88 nm  f=0.1755  <S**2>=0.000
     244 -> 247        0.41568
     245 -> 248       -0.15173
     246 -> 247        0.55093
     246 <- 247       -0.11231
 This state for optimization and/or second-order correction.
 Total Energy, E(TD-HF/TD-DFT) =  -3007.27476234
 Copying the excited state density for this state as the 1-particle RhoCI density.

 Excited State   2:      Singlet-A      1.8406 eV  673.60 nm  f=0.0735  <S**2>=0.000
     243 -> 247       -0.13622
     244 -> 247        0.54836
     245 -> 247        0.19347
     245 -> 248        0.10621
     246 -> 247       -0.36164

 Excited State   3:      Singlet-A      1.8722 eV  662.23 nm  f=0.0873  <S**2>=0.000
     243 -> 247       -0.37432
     244 -> 247       -0.15836
     245 -> 247        0.52492
     246 -> 247        0.18277
     246 -> 248        0.13461

 Excited State   4:      Singlet-A      2.0720 eV  598.39 nm  f=0.0430  <S**2>=0.000
     242 -> 247        0.10542
     243 -> 247        0.57197
     245 -> 247        0.35075
     246 -> 248        0.15753

 Excited State   5:      Singlet-A      2.2478 eV  551.57 nm  f=0.0004  <S**2>=0.000
     241 -> 247        0.70659

 The electronic state is 1-A.
 Alpha  occ. eigenvalues --  -46.29515 -18.82937 -18.81204 -18.77128 -18.76886
 Alpha  occ. eigenvalues --  -18.76289 -18.75314 -14.03987 -14.03893 -14.01803
 Alpha  occ. eigenvalues --  -14.00284 -10.04312 -10.04246  -9.99947  -9.99878
 Alpha  occ. eigenvalues --   -9.97669  -9.97514  -9.97404  -9.97291  -9.96994
 Alpha  occ. eigenvalues --   -9.96988  -9.96876  -9.95892  -9.94698  -9.94380
 Alpha  occ. eigenvalues --   -9.94370  -9.94350  -9.94337  -9.94180  -9.94148
 Alpha  occ. eigenvalues --   -9.94017  -9.93776  -9.93727  -9.93657  -9.93561
 Alpha  occ. eigenvalues --   -9.93493  -9.93468  -9.93391  -9.93109  -9.92916
 Alpha  occ. eigenvalues --   -9.92866  -9.92856  -9.92813  -9.92799  -9.92674
 Alpha  occ. eigenvalues --   -9.92523  -9.92502  -9.92464  -9.92455  -9.92369
 Alpha  occ. eigenvalues --   -9.91979  -9.91909  -9.91792  -9.91543  -9.91505
 Alpha  occ. eigenvalues --   -9.91441  -9.91329  -9.91320  -9.91049  -9.91025
 Alpha  occ. eigenvalues --   -9.90790  -9.90741  -9.90697  -9.90647  -9.90573
 Alpha  occ. eigenvalues --   -9.90498  -2.93816  -1.74222  -1.73752  -1.73492
 Alpha  occ. eigenvalues --   -0.97038  -0.95766  -0.92820  -0.91035  -0.89247
 Alpha  occ. eigenvalues --   -0.88863  -0.88290  -0.87126  -0.85979  -0.85140
 Alpha  occ. eigenvalues --   -0.76575  -0.73257  -0.73183  -0.72602  -0.72001
 Alpha  occ. eigenvalues --   -0.71939  -0.71035  -0.70465  -0.69898  -0.69555
 Alpha  occ. eigenvalues --   -0.69264  -0.68764  -0.68174  -0.67896  -0.66782
 Alpha  occ. eigenvalues --   -0.66594  -0.65957  -0.65240  -0.64858  -0.64465
 Alpha  occ. eigenvalues --   -0.63577  -0.62577  -0.62340  -0.61641  -0.61330
 Alpha  occ. eigenvalues --   -0.60756  -0.60094  -0.60066  -0.58902  -0.58484
 Alpha  occ. eigenvalues --   -0.58032  -0.57337  -0.57007  -0.55597  -0.55345
 Alpha  occ. eigenvalues --   -0.54104  -0.53535  -0.52937  -0.52255  -0.52012
 Alpha  occ. eigenvalues --   -0.51275  -0.51098  -0.50984  -0.50478  -0.49993
 Alpha  occ. eigenvalues --   -0.49493  -0.49334  -0.49076  -0.48600  -0.46766
 Alpha  occ. eigenvalues --   -0.46260  -0.46067  -0.45782  -0.44934  -0.44388
 Alpha  occ. eigenvalues --   -0.43846  -0.43302  -0.43135  -0.42714  -0.42569
 Alpha  occ. eigenvalues --   -0.42111  -0.41962  -0.41708  -0.41037  -0.40850
 Alpha  occ. eigenvalues --   -0.40627  -0.40474  -0.40079  -0.39953  -0.39851
 Alpha  occ. eigenvalues --   -0.39709  -0.39487  -0.39381  -0.39236  -0.39120
 Alpha  occ. eigenvalues --   -0.39033  -0.38739  -0.38708  -0.38403  -0.38317
 Alpha  occ. eigenvalues --   -0.38201  -0.37713  -0.37612  -0.37302  -0.37199
 Alpha  occ. eigenvalues --   -0.37011  -0.36879  -0.36799  -0.36562  -0.36187
 Alpha  occ. eigenvalues --   -0.36156  -0.36086  -0.35968  -0.35590  -0.35494
 Alpha  occ. eigenvalues --   -0.35170  -0.35105  -0.35007  -0.34847  -0.34693
 Alpha  occ. eigenvalues --   -0.34607  -0.34416  -0.34362  -0.34166  -0.34108
 Alpha  occ. eigenvalues --   -0.33946  -0.33826  -0.33609  -0.33562  -0.33322
 Alpha  occ. eigenvalues --   -0.33108  -0.32848  -0.32605  -0.32414  -0.32243
 Alpha  occ. eigenvalues --   -0.32097  -0.31841  -0.31739  -0.31618  -0.31473
 Alpha  occ. eigenvalues --   -0.31425  -0.31191  -0.30746  -0.30457  -0.30319
 Alpha  occ. eigenvalues --   -0.30074  -0.30044  -0.29997  -0.29859  -0.29748
 Alpha  occ. eigenvalues --   -0.29315  -0.29179  -0.29097  -0.28957  -0.28850
 Alpha  occ. eigenvalues --   -0.28640  -0.28593  -0.28360  -0.28164  -0.28129
 Alpha  occ. eigenvalues --   -0.27853  -0.27684  -0.27440  -0.26718  -0.26617
 Alpha  occ. eigenvalues --   -0.26502  -0.26172  -0.25653  -0.25624  -0.25259
 Alpha  occ. eigenvalues --   -0.25203  -0.24760  -0.24470  -0.23862  -0.23665
 Alpha  occ. eigenvalues --   -0.22697  -0.22548  -0.22319  -0.21691  -0.20871
 Alpha  occ. eigenvalues --   -0.20213  -0.20145  -0.19171  -0.18589  -0.17400
 Alpha  occ. eigenvalues --   -0.16361
 Alpha virt. eigenvalues --   -0.11955  -0.07378  -0.06447  -0.04834  -0.04157
 Alpha virt. eigenvalues --   -0.03210  -0.02854  -0.02715  -0.01749  -0.00306
 Alpha virt. eigenvalues --    0.00594   0.01619   0.02250   0.02691   0.02987

 Mulliken charges:
               1
     1  Mg   0.675556
     2  C    0.085817
     3  C   -0.068134
     4  C   -0.062836
     5  C   -0.060154
     6  N   -0.214194
     7  C   -0.123243
     8  C    0.072092
     9  C   -0.002594
    10  C    0.029087
    11  C    0.134254
    12  C    0.117599
    13  C    0.090579
    14  C    0.113494
    15  O   -0.200893
    16  O   -0.300381
    17  N   -0.292631
    18  C    0.125262
    19  C   -0.111121
    20  C    0.036443
    21  C    0.129155
    22  C    0.153139
    23  C   -0.096162
    24  O   -0.178437
    25  C    0.160660
    26  N   -0.143250
    27  C   -0.000836
    28  C   -0.021716
    29  C    0.049375
    30  C   -0.035734
    31  C    0.146850
    32  C    0.121822
    33  C    0.046712
    34  N   -0.194485
    35  C    0.088495
    36  C   -0.200956
    37  C    0.100360
    38  C    0.039504
    39  C    0.181152
    40  C   -0.086689
    41  O   -0.092376
    42  C    0.037390
    43  C    0.114075
    44  O   -0.193892
    45  O   -0.282963
    46  C    0.212837
    47  C    0.304702
    48  C   -0.092099
    49  C   -0.160284
    50  C    0.161986
    51  C    0.138341
    52  C    0.052924
    53  C    0.074179
    54  C   -0.077973
    55  C    0.090409
    56  C    0.075234
    57  C    0.062861
    58  C    0.083133
    59  C   -0.089001
    60  C    0.118026
    61  C    0.111242
    62  C    0.027573
    63  C    0.082410
    64  C   -0.073377
    65  C    0.091865
    66  C    0.120414
    67  H   -0.064362
    68  H   -0.078782
    69  H   -0.069011
    70  H   -0.018152
    71  H   -0.029071
    72  H   -0.006441
    73  H   -0.002569
    74  H    0.000195
    75  H   -0.012190
    76  H   -0.008378
    77  H    0.014808
    78  H    0.014423
    79  H    0.010953
    80  H   -0.023613
    81  H   -0.006009
    82  H    0.038094
    83  H   -0.002457
    84  H    0.001492
    85  H   -0.029886
    86  H   -0.030338
    87  H    0.011263
    88  H   -0.025417
    89  H   -0.023650
    90  H   -0.007973
    91  H   -0.025204
    92  H   -0.010751
    93  H   -0.015562
    94  H   -0.006488
    95  H   -0.022204
    96  H    0.012312
    97  H    0.009330
    98  H   -0.012511
    99  H    0.019479
   100  H    0.006976
   101  H    0.014399
   102  H   -0.024721
   103  H    0.007512
   104  H   -0.036378
   105  H   -0.012779
   106  H    0.011018
   107  H    0.000382
   108  H   -0.024473
   109  H   -0.018401
   110  H   -0.004430
   111  H   -0.004898
   112  H   -0.039195
   113  H   -0.020526
   114  H   -0.016730
   115  H   -0.024725
   116  H   -0.031910
   117  H   -0.010921
   118  H   -0.012758
   119  H   -0.012601
   120  H   -0.027406
   121  H   -0.026007
   122  H   -0.027476
   123  H   -0.043254
   124  H   -0.036771
   125  H   -0.012951
   126  H   -0.011877
   127  H   -0.029999
   128  H   -0.037453
   129  H   -0.047862
   130  H   -0.022650
   131  H   -0.015725
   132  H   -0.037257
   133  H   -0.033847
   134  H   -0.027750
   135  H   -0.023950
   136  H   -0.014054
   137  H   -0.015944
   138  H   -0.016297
   139  H   -0.022536
   140  H   -0.015700
 Sum of Mulliken charges =  -0.00000

 Dipole moment (field-independent basis, Debye):
    X=              0.0324    Y=              5.6638    Z=             -2.0116  Tot=              6.0105
 Quadrupole moment (field-independent basis, Debye-Ang):
   XX=           -390.4800   YY=           -429.2483   ZZ=           -406.4926
   XY=            -43.5874   XZ=            -18.4307   YZ=            -24.8497

 Normal termination of Gaussian 16 at Thu May  5 05:45:46 2022.
