 Gaussian 16, Revision A.03,
 Gaussian 16:  ES64L-G16RevA.03 25-Dec-2016

 -----------------------------------
 #p cam-b3lyp/Def2SVP td=(nstates=5)
 -----------------------------------

 -------------------------------------------------------
 step_601_chromophore_26 TDDFT with cam-b3lyp functional
 -------------------------------------------------------
 Symbolic Z-matrix:
 Charge =  0 Multiplicity = 1

                         Standard orientation:
 ---------------------------------------------------------------------
 Center     Atomic      Atomic             Coordinates (Angstroms)
 Number     Number       Type             X           Y           Z
 ---------------------------------------------------------------------
      1         12           0       -3.899999    1.169085    0.596031
      2          6           0       -4.677814   -2.161879   -0.035018
      3          6           0       -2.164771    0.176472    3.418070
      4          6           0       -2.642382    4.235436    0.788105
      5          6           0       -5.128722    1.918707   -2.691145
      6          7           0       -3.447025   -0.766557    1.609008
      7          6           0       -3.940645   -2.014979    1.184992
      8          6           0       -3.540353   -3.180708    2.106823
      9          6           0       -3.019934   -2.373956    3.331750
     10          6           0       -2.757278   -0.896041    2.744994
     11          6           0       -3.804451   -2.422172    4.677957
     12          6           0       -2.573380   -4.202639    1.503561
     13          6           0       -1.561976   -3.719355    0.388047
     14          6           0       -0.198530   -4.428153    0.441732
     15          8           0        0.113978   -5.368193    1.194496
     16          8           0        0.621222   -3.811183   -0.508354
     17          7           0       -2.607352    2.099503    1.956503
     18          6           0       -2.021654    1.536708    3.073402
     19          6           0       -1.252628    2.526692    3.752784
     20          6           0       -1.333246    3.764651    3.033490
     21          6           0       -2.199890    3.393976    1.833592
     22          6           0       -0.404816    2.239917    4.998843
     23          6           0       -0.730578    5.115065    3.389702
     24          8           0       -0.241809    5.251252    4.519067
     25          6           0       -0.909162    6.306940    2.581870
     26          7           0       -3.720897    2.757852   -0.925548
     27          6           0       -3.350658    3.932633   -0.419004
     28          6           0       -3.906245    5.128940   -1.323234
     29          6           0       -4.476703    4.478518   -2.553742
     30          6           0       -4.457457    2.966310   -1.997147
     31          6           0       -4.847820    6.067852   -0.581524
     32          6           0       -3.759188    4.653745   -3.923185
     33          6           0       -4.559583    5.325364   -5.076657
     34          7           0       -4.890226    0.164095   -1.092665
     35          6           0       -5.338860    0.601551   -2.270075
     36          6           0       -5.875816   -0.509338   -2.967858
     37          6           0       -5.731689   -1.638840   -2.084248
     38          6           0       -5.076016   -1.161835   -1.010423
     39          6           0       -6.354089   -0.449393   -4.424753
     40          6           0       -6.008494   -3.059884   -1.926358
     41          8           0       -6.577239   -3.835222   -2.647401
     42          6           0       -5.318850   -3.398344   -0.562801
     43          6           0       -6.474799   -3.839463    0.236229
     44          8           0       -6.571743   -5.030644    0.608274
     45          8           0       -7.302936   -2.771486    0.610876
     46          6           0       -8.536391   -3.144579    1.276021
     47          6           0        1.919497   -4.462428   -0.813497
     48          6           0        2.962971   -3.385612   -1.175459
     49          6           0        3.563533   -3.001552   -2.321318
     50          6           0        3.072122   -3.325691   -3.721816
     51          6           0        4.813979   -2.185538   -2.125092
     52          6           0        4.505310   -0.623095   -1.857149
     53          6           0        5.390863    0.409766   -2.723319
     54          6           0        5.872876    1.606316   -1.742686
     55          6           0        6.060713    2.962606   -2.537549
     56          6           0        7.286117    1.165280   -1.133845
     57          6           0        7.323895    1.494060    0.454987
     58          6           0        7.390587    0.125516    1.235501
     59          6           0        8.798480   -0.230762    1.807566
     60          6           0        8.641491   -0.937154    3.180734
     61          6           0        9.688701   -1.081548    0.789970
     62          6           0       11.230489   -0.753009    0.783474
     63          6           0       11.757406    0.102972   -0.427348
     64          6           0       13.264924   -0.191848   -0.645728
     65          6           0       14.179726    1.074915   -0.784079
     66          6           0       13.481737   -1.222575   -1.748761
     67          1           0       -1.668126   -0.059614    4.362093
     68          1           0       -2.488476    5.307402    0.930436
     69          1           0       -5.623320    2.151297   -3.636427
     70          1           0       -4.515642   -3.657931    2.196453
     71          1           0       -2.038846   -2.667351    3.704673
     72          1           0       -4.618091   -3.115323    4.464809
     73          1           0       -4.159923   -1.417080    4.904473
     74          1           0       -3.181735   -2.816976    5.481381
     75          1           0       -3.218486   -4.961108    1.059546
     76          1           0       -2.091215   -4.762431    2.305478
     77          1           0       -1.285813   -2.686093    0.598402
     78          1           0       -1.980730   -3.676149   -0.618073
     79          1           0        0.553062    1.732374    4.892067
     80          1           0       -0.968860    1.712341    5.768551
     81          1           0       -0.245141    3.144380    5.587246
     82          1           0       -1.941679    6.650729    2.533509
     83          1           0       -0.627535    5.951956    1.590126
     84          1           0       -0.192002    7.020693    2.988431
     85          1           0       -3.039515    5.748305   -1.555260
     86          1           0       -5.513519    4.787470   -2.683938
     87          1           0       -5.144785    5.620277    0.367006
     88          1           0       -5.662258    6.377353   -1.235798
     89          1           0       -4.436700    7.075893   -0.539221
     90          1           0       -3.380021    3.710274   -4.315699
     91          1           0       -2.912679    5.298570   -3.689176
     92          1           0       -4.528576    4.852587   -6.058274
     93          1           0       -4.121977    6.274307   -5.384840
     94          1           0       -5.594720    5.484689   -4.774188
     95          1           0       -6.353949    0.591506   -4.746546
     96          1           0       -7.327102   -0.933786   -4.506944
     97          1           0       -5.629899   -1.000506   -5.024186
     98          1           0       -4.720433   -4.306235   -0.647477
     99          1           0       -9.395527   -2.728307    0.750599
    100          1           0       -8.475702   -2.848125    2.322159
    101          1           0       -8.768722   -4.205816    1.369595
    102          1           0        1.730587   -5.036850   -1.720314
    103          1           0        2.181639   -5.095990    0.033287
    104          1           0        3.415454   -3.189859   -0.203838
    105          1           0        3.903291   -3.366489   -4.425496
    106          1           0        2.445980   -2.482104   -4.011292
    107          1           0        2.518396   -4.263545   -3.757252
    108          1           0        5.567364   -2.336279   -2.897772
    109          1           0        5.199441   -2.596008   -1.192131
    110          1           0        4.783834   -0.415775   -0.824029
    111          1           0        3.481900   -0.301476   -2.048393
    112          1           0        4.743487    0.901637   -3.450363
    113          1           0        6.167688   -0.088412   -3.303143
    114          1           0        5.168548    1.862144   -0.950927
    115          1           0        5.667061    3.825736   -2.000243
    116          1           0        5.411337    2.973215   -3.413518
    117          1           0        7.076881    3.202167   -2.851516
    118          1           0        8.200925    1.614472   -1.520469
    119          1           0        7.278573    0.081579   -1.251008
    120          1           0        6.446537    2.049446    0.786266
    121          1           0        8.140923    2.203043    0.584380
    122          1           0        7.103710   -0.764460    0.676440
    123          1           0        6.679757    0.110557    2.060987
    124          1           0        9.326342    0.710446    1.960840
    125          1           0        7.607817   -1.144618    3.458104
    126          1           0        9.192813   -0.361930    3.924017
    127          1           0        9.113881   -1.919708    3.167589
    128          1           0        9.235364   -1.164590   -0.198192
    129          1           0        9.633599   -2.111168    1.143575
    130          1           0       11.757488   -1.704227    0.726822
    131          1           0       11.464105   -0.149662    1.661210
    132          1           0       11.505612    1.127774   -0.153679
    133          1           0       11.142984   -0.146271   -1.292125
    134          1           0       13.541011   -0.647893    0.305047
    135          1           0       13.635048    1.999178   -0.590738
    136          1           0       14.711640    1.282460   -1.713356
    137          1           0       14.935002    0.972076   -0.004027
    138          1           0       14.013267   -2.114884   -1.420635
    139          1           0       14.132703   -0.780054   -2.503105
    140          1           0       12.540050   -1.523941   -2.207374
 ---------------------------------------------------------------------

 SCF Done:  E(RCAM-B3LYP) =  -3007.11739121     A.U. after   19 cycles

 Excitation energies and oscillator strengths:

 Excited State   1:      Singlet-A      1.7663 eV  701.95 nm  f=0.3654  <S**2>=0.000
     245 -> 248       -0.18008
     246 -> 247        0.68304
     245 <- 248       -0.10297
 This state for optimization and/or second-order correction.
 Total Energy, E(TD-HF/TD-DFT) =  -3007.05248121
 Copying the excited state density for this state as the 1-particle RhoCI density.

 Excited State   2:      Singlet-A      2.1923 eV  565.54 nm  f=0.1231  <S**2>=0.000
     245 -> 247        0.64638
     246 -> 248        0.26484

 Excited State   3:      Singlet-A      3.2293 eV  383.94 nm  f=0.0008  <S**2>=0.000
     242 -> 247       -0.12122
     244 -> 247        0.67189
     246 -> 248       -0.11735

 Excited State   4:      Singlet-A      3.4393 eV  360.50 nm  f=0.0067  <S**2>=0.000
     239 -> 247        0.10220
     240 -> 247        0.41327
     240 -> 248        0.15878
     240 -> 249       -0.25594
     240 -> 251       -0.18037
     241 -> 247        0.16370
     242 -> 247       -0.32069
     246 -> 248        0.14206

 Excited State   5:      Singlet-A      3.4634 eV  357.99 nm  f=0.0157  <S**2>=0.000
     239 -> 247        0.15745
     240 -> 247        0.29495
     240 -> 249       -0.13755
     241 -> 247       -0.20155
     242 -> 247        0.48369
     246 -> 248       -0.21988

 The electronic state is 1-A.
 Alpha  occ. eigenvalues --  -46.91208 -19.25806 -19.24001 -19.20020 -19.19941
 Alpha  occ. eigenvalues --  -19.19256 -19.18847 -14.42839 -14.42837 -14.40484
 Alpha  occ. eigenvalues --  -14.38356 -10.39782 -10.39611 -10.35336 -10.35015
 Alpha  occ. eigenvalues --  -10.32193 -10.31822 -10.31790 -10.31700 -10.31640
 Alpha  occ. eigenvalues --  -10.31514 -10.31159 -10.30674 -10.29220 -10.28586
 Alpha  occ. eigenvalues --  -10.28481 -10.28372 -10.28367 -10.28349 -10.28311
 Alpha  occ. eigenvalues --  -10.28090 -10.28065 -10.27887 -10.27856 -10.27833
 Alpha  occ. eigenvalues --  -10.27642 -10.27384 -10.27377 -10.27063 -10.26929
 Alpha  occ. eigenvalues --  -10.26687 -10.26652 -10.26645 -10.26582 -10.26444
 Alpha  occ. eigenvalues --  -10.26371 -10.26232 -10.26173 -10.26079 -10.25920
 Alpha  occ. eigenvalues --  -10.25689 -10.25653 -10.25625 -10.25560 -10.25429
 Alpha  occ. eigenvalues --  -10.25171 -10.25078 -10.25035 -10.24758 -10.24753
 Alpha  occ. eigenvalues --  -10.24478 -10.24348 -10.24315 -10.24232 -10.24206
 Alpha  occ. eigenvalues --  -10.24102  -3.19393  -1.94281  -1.93890  -1.93650
 Alpha  occ. eigenvalues --   -1.15417  -1.14101  -1.11052  -1.09718  -1.07142
 Alpha  occ. eigenvalues --   -1.06615  -1.06023  -1.04483  -1.03815  -1.02872
 Alpha  occ. eigenvalues --   -0.93610  -0.90050  -0.89905  -0.89371  -0.88773
 Alpha  occ. eigenvalues --   -0.88749  -0.87675  -0.87003  -0.86417  -0.86303
 Alpha  occ. eigenvalues --   -0.85762  -0.85037  -0.84343  -0.84207  -0.83102
 Alpha  occ. eigenvalues --   -0.82700  -0.81970  -0.81175  -0.80550  -0.80211
 Alpha  occ. eigenvalues --   -0.79350  -0.78110  -0.77809  -0.77419  -0.76775
 Alpha  occ. eigenvalues --   -0.76103  -0.75453  -0.75420  -0.74171  -0.73696
 Alpha  occ. eigenvalues --   -0.73010  -0.72273  -0.71920  -0.70389  -0.69927
 Alpha  occ. eigenvalues --   -0.68688  -0.68074  -0.67567  -0.66362  -0.66329
 Alpha  occ. eigenvalues --   -0.65405  -0.65211  -0.65121  -0.64490  -0.63668
 Alpha  occ. eigenvalues --   -0.63471  -0.63309  -0.63046  -0.62242  -0.60492
 Alpha  occ. eigenvalues --   -0.59729  -0.59512  -0.59356  -0.58358  -0.57926
 Alpha  occ. eigenvalues --   -0.57308  -0.56658  -0.56503  -0.55835  -0.55741
 Alpha  occ. eigenvalues --   -0.55185  -0.54850  -0.54532  -0.53929  -0.53724
 Alpha  occ. eigenvalues --   -0.53357  -0.53244  -0.52980  -0.52848  -0.52503
 Alpha  occ. eigenvalues --   -0.52452  -0.52263  -0.52066  -0.51760  -0.51643
 Alpha  occ. eigenvalues --   -0.51562  -0.51167  -0.51145  -0.50869  -0.50627
 Alpha  occ. eigenvalues --   -0.50576  -0.50296  -0.49845  -0.49722  -0.49468
 Alpha  occ. eigenvalues --   -0.49384  -0.49230  -0.49117  -0.49004  -0.48891
 Alpha  occ. eigenvalues --   -0.48270  -0.48205  -0.48151  -0.47654  -0.47466
 Alpha  occ. eigenvalues --   -0.47315  -0.46909  -0.46897  -0.46850  -0.46669
 Alpha  occ. eigenvalues --   -0.46508  -0.46385  -0.46119  -0.46074  -0.45871
 Alpha  occ. eigenvalues --   -0.45778  -0.45591  -0.45471  -0.45266  -0.45093
 Alpha  occ. eigenvalues --   -0.44800  -0.44612  -0.44221  -0.44108  -0.43825
 Alpha  occ. eigenvalues --   -0.43689  -0.43541  -0.43341  -0.43104  -0.43079
 Alpha  occ. eigenvalues --   -0.42795  -0.42673  -0.42082  -0.41991  -0.41908
 Alpha  occ. eigenvalues --   -0.41845  -0.41666  -0.41421  -0.41107  -0.40808
 Alpha  occ. eigenvalues --   -0.40701  -0.40396  -0.40184  -0.40113  -0.40060
 Alpha  occ. eigenvalues --   -0.39742  -0.39638  -0.39345  -0.39205  -0.39056
 Alpha  occ. eigenvalues --   -0.38851  -0.38568  -0.38298  -0.37791  -0.37481
 Alpha  occ. eigenvalues --   -0.37266  -0.36939  -0.36646  -0.36593  -0.36226
 Alpha  occ. eigenvalues --   -0.35813  -0.35241  -0.35076  -0.34747  -0.34477
 Alpha  occ. eigenvalues --   -0.34189  -0.33497  -0.32972  -0.31547  -0.31306
 Alpha  occ. eigenvalues --   -0.30783  -0.30525  -0.29872  -0.28978  -0.24214
 Alpha  occ. eigenvalues --   -0.21779
 Alpha virt. eigenvalues --   -0.09095  -0.02178  -0.00145   0.00956   0.02228
 Alpha virt. eigenvalues --    0.04231   0.05014   0.05158   0.05412   0.06827
 Alpha virt. eigenvalues --    0.07521   0.07851   0.08644   0.08869   0.09173

 Mulliken charges:
               1
     1  Mg   0.804228
     2  C    0.051693
     3  C   -0.088174
     4  C   -0.089190
     5  C   -0.059495
     6  N   -0.282053
     7  C   -0.081620
     8  C    0.022081
     9  C   -0.053965
    10  C    0.052299
    11  C    0.077062
    12  C    0.064572
    13  C    0.020738
    14  C    0.200173
    15  O   -0.245981
    16  O   -0.365356
    17  N   -0.382055
    18  C    0.136754
    19  C   -0.117443
    20  C   -0.031179
    21  C    0.163754
    22  C    0.097061
    23  C   -0.013139
    24  O   -0.217548
    25  C    0.070602
    26  N   -0.211886
    27  C    0.023804
    28  C   -0.077465
    29  C    0.002655
    30  C   -0.025108
    31  C    0.082413
    32  C    0.062117
    33  C   -0.014302
    34  N   -0.284886
    35  C    0.087190
    36  C   -0.198968
    37  C    0.020389
    38  C    0.081031
    39  C    0.136089
    40  C    0.009999
    41  O   -0.133291
    42  C   -0.041427
    43  C    0.203519
    44  O   -0.233985
    45  O   -0.343327
    46  C    0.173914
    47  C    0.272563
    48  C   -0.115233
    49  C   -0.180582
    50  C    0.103482
    51  C    0.078079
    52  C    0.007016
    53  C    0.020857
    54  C   -0.134174
    55  C    0.035593
    56  C    0.030550
    57  C    0.010281
    58  C    0.031336
    59  C   -0.138868
    60  C    0.058189
    61  C    0.058082
    62  C   -0.024267
    63  C    0.035864
    64  C   -0.140135
    65  C    0.035150
    66  C    0.060635
    67  H   -0.027102
    68  H   -0.043002
    69  H   -0.035120
    70  H    0.017095
    71  H    0.006337
    72  H    0.018340
    73  H    0.022481
    74  H    0.024400
    75  H    0.016787
    76  H    0.026642
    77  H    0.044292
    78  H    0.045980
    79  H    0.039374
    80  H    0.004231
    81  H    0.029013
    82  H    0.064887
    83  H    0.025398
    84  H    0.038926
    85  H    0.005223
    86  H    0.004708
    87  H    0.036331
    88  H    0.002308
    89  H    0.002551
    90  H    0.022669
    91  H    0.002762
    92  H    0.014274
    93  H    0.008293
    94  H    0.015034
    95  H   -0.001037
    96  H    0.035857
    97  H    0.033035
    98  H    0.030262
    99  H    0.041053
   100  H    0.027740
   101  H    0.040905
   102  H    0.002735
   103  H    0.040908
   104  H   -0.006156
   105  H    0.011346
   106  H    0.035171
   107  H    0.023205
   108  H    0.003987
   109  H    0.010788
   110  H    0.018519
   111  H    0.022757
   112  H   -0.010083
   113  H    0.006442
   114  H    0.013730
   115  H   -0.000634
   116  H   -0.007566
   117  H    0.011948
   118  H    0.012888
   119  H    0.009092
   120  H   -0.000189
   121  H    0.001466
   122  H   -0.004033
   123  H   -0.012662
   124  H   -0.007026
   125  H    0.010878
   126  H    0.012086
   127  H   -0.005425
   128  H   -0.010318
   129  H   -0.017829
   130  H    0.004367
   131  H    0.009831
   132  H   -0.010508
   133  H   -0.007705
   134  H    0.005281
   135  H    0.000326
   136  H    0.009717
   137  H    0.007459
   138  H    0.007890
   139  H    0.001589
   140  H    0.008096
 Sum of Mulliken charges =  -0.00000

 Dipole moment (field-independent basis, Debye):
    X=              0.3886    Y=              6.4709    Z=             -1.3559  Tot=              6.6229
 Quadrupole moment (field-independent basis, Debye-Ang):
   XX=           -392.9459   YY=           -425.4516   ZZ=           -404.2687
   XY=            -45.4874   XZ=            -20.5702   YZ=            -24.8789

 Normal termination of Gaussian 16 at Thu May  5 04:29:41 2022.
