 Gaussian 16, Revision A.03,
 Gaussian 16:  ES64L-G16RevA.03 25-Dec-2016

 ---------------------------------
 #p PBE1PBE/Def2SVP td=(nstates=5)
 ---------------------------------

 -----------------------------------------------------
 step_601_chromophore_26 TDDFT with PBE1PBE functional
 -----------------------------------------------------
 Symbolic Z-matrix:
 Charge =  0 Multiplicity = 1

                         Standard orientation:
 ---------------------------------------------------------------------
 Center     Atomic      Atomic             Coordinates (Angstroms)
 Number     Number       Type             X           Y           Z
 ---------------------------------------------------------------------
      1         12           0       -3.899999    1.169085    0.596031
      2          6           0       -4.677814   -2.161879   -0.035018
      3          6           0       -2.164771    0.176472    3.418070
      4          6           0       -2.642382    4.235436    0.788105
      5          6           0       -5.128722    1.918707   -2.691145
      6          7           0       -3.447025   -0.766557    1.609008
      7          6           0       -3.940645   -2.014979    1.184992
      8          6           0       -3.540353   -3.180708    2.106823
      9          6           0       -3.019934   -2.373956    3.331750
     10          6           0       -2.757278   -0.896041    2.744994
     11          6           0       -3.804451   -2.422172    4.677957
     12          6           0       -2.573380   -4.202639    1.503561
     13          6           0       -1.561976   -3.719355    0.388047
     14          6           0       -0.198530   -4.428153    0.441732
     15          8           0        0.113978   -5.368193    1.194496
     16          8           0        0.621222   -3.811183   -0.508354
     17          7           0       -2.607352    2.099503    1.956503
     18          6           0       -2.021654    1.536708    3.073402
     19          6           0       -1.252628    2.526692    3.752784
     20          6           0       -1.333246    3.764651    3.033490
     21          6           0       -2.199890    3.393976    1.833592
     22          6           0       -0.404816    2.239917    4.998843
     23          6           0       -0.730578    5.115065    3.389702
     24          8           0       -0.241809    5.251252    4.519067
     25          6           0       -0.909162    6.306940    2.581870
     26          7           0       -3.720897    2.757852   -0.925548
     27          6           0       -3.350658    3.932633   -0.419004
     28          6           0       -3.906245    5.128940   -1.323234
     29          6           0       -4.476703    4.478518   -2.553742
     30          6           0       -4.457457    2.966310   -1.997147
     31          6           0       -4.847820    6.067852   -0.581524
     32          6           0       -3.759188    4.653745   -3.923185
     33          6           0       -4.559583    5.325364   -5.076657
     34          7           0       -4.890226    0.164095   -1.092665
     35          6           0       -5.338860    0.601551   -2.270075
     36          6           0       -5.875816   -0.509338   -2.967858
     37          6           0       -5.731689   -1.638840   -2.084248
     38          6           0       -5.076016   -1.161835   -1.010423
     39          6           0       -6.354089   -0.449393   -4.424753
     40          6           0       -6.008494   -3.059884   -1.926358
     41          8           0       -6.577239   -3.835222   -2.647401
     42          6           0       -5.318850   -3.398344   -0.562801
     43          6           0       -6.474799   -3.839463    0.236229
     44          8           0       -6.571743   -5.030644    0.608274
     45          8           0       -7.302936   -2.771486    0.610876
     46          6           0       -8.536391   -3.144579    1.276021
     47          6           0        1.919497   -4.462428   -0.813497
     48          6           0        2.962971   -3.385612   -1.175459
     49          6           0        3.563533   -3.001552   -2.321318
     50          6           0        3.072122   -3.325691   -3.721816
     51          6           0        4.813979   -2.185538   -2.125092
     52          6           0        4.505310   -0.623095   -1.857149
     53          6           0        5.390863    0.409766   -2.723319
     54          6           0        5.872876    1.606316   -1.742686
     55          6           0        6.060713    2.962606   -2.537549
     56          6           0        7.286117    1.165280   -1.133845
     57          6           0        7.323895    1.494060    0.454987
     58          6           0        7.390587    0.125516    1.235501
     59          6           0        8.798480   -0.230762    1.807566
     60          6           0        8.641491   -0.937154    3.180734
     61          6           0        9.688701   -1.081548    0.789970
     62          6           0       11.230489   -0.753009    0.783474
     63          6           0       11.757406    0.102972   -0.427348
     64          6           0       13.264924   -0.191848   -0.645728
     65          6           0       14.179726    1.074915   -0.784079
     66          6           0       13.481737   -1.222575   -1.748761
     67          1           0       -1.668126   -0.059614    4.362093
     68          1           0       -2.488476    5.307402    0.930436
     69          1           0       -5.623320    2.151297   -3.636427
     70          1           0       -4.515642   -3.657931    2.196453
     71          1           0       -2.038846   -2.667351    3.704673
     72          1           0       -4.618091   -3.115323    4.464809
     73          1           0       -4.159923   -1.417080    4.904473
     74          1           0       -3.181735   -2.816976    5.481381
     75          1           0       -3.218486   -4.961108    1.059546
     76          1           0       -2.091215   -4.762431    2.305478
     77          1           0       -1.285813   -2.686093    0.598402
     78          1           0       -1.980730   -3.676149   -0.618073
     79          1           0        0.553062    1.732374    4.892067
     80          1           0       -0.968860    1.712341    5.768551
     81          1           0       -0.245141    3.144380    5.587246
     82          1           0       -1.941679    6.650729    2.533509
     83          1           0       -0.627535    5.951956    1.590126
     84          1           0       -0.192002    7.020693    2.988431
     85          1           0       -3.039515    5.748305   -1.555260
     86          1           0       -5.513519    4.787470   -2.683938
     87          1           0       -5.144785    5.620277    0.367006
     88          1           0       -5.662258    6.377353   -1.235798
     89          1           0       -4.436700    7.075893   -0.539221
     90          1           0       -3.380021    3.710274   -4.315699
     91          1           0       -2.912679    5.298570   -3.689176
     92          1           0       -4.528576    4.852587   -6.058274
     93          1           0       -4.121977    6.274307   -5.384840
     94          1           0       -5.594720    5.484689   -4.774188
     95          1           0       -6.353949    0.591506   -4.746546
     96          1           0       -7.327102   -0.933786   -4.506944
     97          1           0       -5.629899   -1.000506   -5.024186
     98          1           0       -4.720433   -4.306235   -0.647477
     99          1           0       -9.395527   -2.728307    0.750599
    100          1           0       -8.475702   -2.848125    2.322159
    101          1           0       -8.768722   -4.205816    1.369595
    102          1           0        1.730587   -5.036850   -1.720314
    103          1           0        2.181639   -5.095990    0.033287
    104          1           0        3.415454   -3.189859   -0.203838
    105          1           0        3.903291   -3.366489   -4.425496
    106          1           0        2.445980   -2.482104   -4.011292
    107          1           0        2.518396   -4.263545   -3.757252
    108          1           0        5.567364   -2.336279   -2.897772
    109          1           0        5.199441   -2.596008   -1.192131
    110          1           0        4.783834   -0.415775   -0.824029
    111          1           0        3.481900   -0.301476   -2.048393
    112          1           0        4.743487    0.901637   -3.450363
    113          1           0        6.167688   -0.088412   -3.303143
    114          1           0        5.168548    1.862144   -0.950927
    115          1           0        5.667061    3.825736   -2.000243
    116          1           0        5.411337    2.973215   -3.413518
    117          1           0        7.076881    3.202167   -2.851516
    118          1           0        8.200925    1.614472   -1.520469
    119          1           0        7.278573    0.081579   -1.251008
    120          1           0        6.446537    2.049446    0.786266
    121          1           0        8.140923    2.203043    0.584380
    122          1           0        7.103710   -0.764460    0.676440
    123          1           0        6.679757    0.110557    2.060987
    124          1           0        9.326342    0.710446    1.960840
    125          1           0        7.607817   -1.144618    3.458104
    126          1           0        9.192813   -0.361930    3.924017
    127          1           0        9.113881   -1.919708    3.167589
    128          1           0        9.235364   -1.164590   -0.198192
    129          1           0        9.633599   -2.111168    1.143575
    130          1           0       11.757488   -1.704227    0.726822
    131          1           0       11.464105   -0.149662    1.661210
    132          1           0       11.505612    1.127774   -0.153679
    133          1           0       11.142984   -0.146271   -1.292125
    134          1           0       13.541011   -0.647893    0.305047
    135          1           0       13.635048    1.999178   -0.590738
    136          1           0       14.711640    1.282460   -1.713356
    137          1           0       14.935002    0.972076   -0.004027
    138          1           0       14.013267   -2.114884   -1.420635
    139          1           0       14.132703   -0.780054   -2.503105
    140          1           0       12.540050   -1.523941   -2.207374
 ---------------------------------------------------------------------

 SCF Done:  E(RPBE1PBE) =  -3005.30715217     A.U. after   16 cycles

 Excitation energies and oscillator strengths:

 Excited State   1:      Singlet-A      1.8954 eV  654.13 nm  f=0.3474  <S**2>=0.000
     245 -> 248       -0.17578
     246 -> 247        0.68893
     246 <- 247       -0.10118
 This state for optimization and/or second-order correction.
 Total Energy, E(TD-HF/TD-DFT) =  -3005.23749684
 Copying the excited state density for this state as the 1-particle RhoCI density.

 Excited State   2:      Singlet-A      2.1847 eV  567.52 nm  f=0.1188  <S**2>=0.000
     245 -> 247        0.65816
     246 -> 248        0.22885

 Excited State   3:      Singlet-A      2.8652 eV  432.72 nm  f=0.0068  <S**2>=0.000
     241 -> 247       -0.10680
     244 -> 247        0.67839

 Excited State   4:      Singlet-A      2.9661 eV  418.01 nm  f=0.0003  <S**2>=0.000
     240 -> 247        0.21943
     241 -> 247        0.24256
     242 -> 247        0.57571
     242 -> 248        0.10856
     242 -> 249        0.13989

 Excited State   5:      Singlet-A      3.0807 eV  402.45 nm  f=0.0045  <S**2>=0.000
     240 -> 247       -0.18978
     241 -> 247        0.60901
     241 -> 249       -0.10822
     242 -> 247       -0.18468
     244 -> 247        0.12885

 The electronic state is 1-A.
 Alpha  occ. eigenvalues --  -46.94583 -19.26502 -19.24725 -19.20339 -19.20282
 Alpha  occ. eigenvalues --  -19.19663 -19.18867 -14.42334 -14.42297 -14.40010
 Alpha  occ. eigenvalues --  -14.38150 -10.36911 -10.36666 -10.32355 -10.32263
 Alpha  occ. eigenvalues --  -10.29785 -10.29642 -10.29307 -10.29232 -10.29124
 Alpha  occ. eigenvalues --  -10.29015 -10.28766 -10.28030 -10.26574 -10.26500
 Alpha  occ. eigenvalues --  -10.26337 -10.26232 -10.26211 -10.26194 -10.26003
 Alpha  occ. eigenvalues --  -10.25838 -10.25820 -10.25578 -10.25536 -10.25458
 Alpha  occ. eigenvalues --  -10.25457 -10.25163 -10.24908 -10.24744 -10.24638
 Alpha  occ. eigenvalues --  -10.24436 -10.24332 -10.24082 -10.23857 -10.23801
 Alpha  occ. eigenvalues --  -10.23756 -10.23742 -10.23729 -10.23572 -10.23562
 Alpha  occ. eigenvalues --  -10.23352 -10.23263 -10.23253 -10.23002 -10.22887
 Alpha  occ. eigenvalues --  -10.22731 -10.22670 -10.22568 -10.22327 -10.22322
 Alpha  occ. eigenvalues --  -10.22233 -10.22018 -10.21735 -10.21706 -10.21566
 Alpha  occ. eigenvalues --  -10.21480  -3.16359  -1.89185  -1.88774  -1.88536
 Alpha  occ. eigenvalues --   -1.10216  -1.08899  -1.05994  -1.04238  -1.02022
 Alpha  occ. eigenvalues --   -1.01491  -1.00703  -0.99396  -0.98320  -0.97407
 Alpha  occ. eigenvalues --   -0.88105  -0.84197  -0.84189  -0.83628  -0.82998
 Alpha  occ. eigenvalues --   -0.82800  -0.81735  -0.81319  -0.80494  -0.80425
 Alpha  occ. eigenvalues --   -0.80139  -0.79312  -0.78653  -0.78429  -0.77272
 Alpha  occ. eigenvalues --   -0.76851  -0.76178  -0.75399  -0.74909  -0.74476
 Alpha  occ. eigenvalues --   -0.73452  -0.72397  -0.72160  -0.71581  -0.71099
 Alpha  occ. eigenvalues --   -0.70276  -0.69787  -0.69493  -0.68302  -0.67839
 Alpha  occ. eigenvalues --   -0.67460  -0.66650  -0.66386  -0.64680  -0.64315
 Alpha  occ. eigenvalues --   -0.63232  -0.62294  -0.61962  -0.60765  -0.60556
 Alpha  occ. eigenvalues --   -0.59809  -0.59694  -0.59402  -0.59049  -0.58254
 Alpha  occ. eigenvalues --   -0.57622  -0.57461  -0.57162  -0.56806  -0.55004
 Alpha  occ. eigenvalues --   -0.54347  -0.53938  -0.53870  -0.53065  -0.52419
 Alpha  occ. eigenvalues --   -0.51692  -0.51207  -0.50963  -0.50384  -0.50285
 Alpha  occ. eigenvalues --   -0.49618  -0.49373  -0.48974  -0.48620  -0.48205
 Alpha  occ. eigenvalues --   -0.48012  -0.47681  -0.47617  -0.47308  -0.46963
 Alpha  occ. eigenvalues --   -0.46844  -0.46804  -0.46662  -0.46358  -0.46223
 Alpha  occ. eigenvalues --   -0.46001  -0.45796  -0.45616  -0.45369  -0.45297
 Alpha  occ. eigenvalues --   -0.45170  -0.44737  -0.44469  -0.44249  -0.44040
 Alpha  occ. eigenvalues --   -0.43995  -0.43878  -0.43675  -0.43563  -0.43463
 Alpha  occ. eigenvalues --   -0.42958  -0.42766  -0.42708  -0.42351  -0.42065
 Alpha  occ. eigenvalues --   -0.41973  -0.41539  -0.41473  -0.41412  -0.41387
 Alpha  occ. eigenvalues --   -0.41277  -0.41089  -0.40868  -0.40720  -0.40669
 Alpha  occ. eigenvalues --   -0.40485  -0.40271  -0.40236  -0.39935  -0.39898
 Alpha  occ. eigenvalues --   -0.39557  -0.39352  -0.38869  -0.38808  -0.38593
 Alpha  occ. eigenvalues --   -0.38437  -0.38258  -0.38155  -0.37988  -0.37804
 Alpha  occ. eigenvalues --   -0.37753  -0.37554  -0.36851  -0.36782  -0.36699
 Alpha  occ. eigenvalues --   -0.36577  -0.36463  -0.36251  -0.35910  -0.35692
 Alpha  occ. eigenvalues --   -0.35598  -0.35201  -0.34947  -0.34939  -0.34810
 Alpha  occ. eigenvalues --   -0.34538  -0.34479  -0.34170  -0.34141  -0.33787
 Alpha  occ. eigenvalues --   -0.33778  -0.33332  -0.33066  -0.32783  -0.32320
 Alpha  occ. eigenvalues --   -0.32291  -0.31670  -0.31666  -0.31631  -0.31161
 Alpha  occ. eigenvalues --   -0.30629  -0.30197  -0.30020  -0.29831  -0.29800
 Alpha  occ. eigenvalues --   -0.29068  -0.28863  -0.27950  -0.27113  -0.26048
 Alpha  occ. eigenvalues --   -0.25864  -0.25773  -0.25198  -0.24853  -0.21145
 Alpha  occ. eigenvalues --   -0.19363
 Alpha virt. eigenvalues --   -0.11572  -0.05704  -0.04236  -0.02272  -0.01878
 Alpha virt. eigenvalues --   -0.00211   0.00309   0.00625   0.01068   0.02711
 Alpha virt. eigenvalues --    0.03573   0.04181   0.05053   0.05643   0.05953

 Mulliken charges:
               1
     1  Mg   0.939721
     2  C    0.034219
     3  C   -0.086849
     4  C   -0.084885
     5  C   -0.055487
     6  N   -0.381891
     7  C   -0.006947
     8  C   -0.050931
     9  C   -0.123836
    10  C    0.094613
    11  C    0.017887
    12  C    0.017160
    13  C   -0.061890
    14  C    0.267376
    15  O   -0.278957
    16  O   -0.392994
    17  N   -0.494985
    18  C    0.153701
    19  C   -0.144132
    20  C   -0.078926
    21  C    0.194567
    22  C    0.044361
    23  C    0.035950
    24  O   -0.253227
    25  C   -0.007340
    26  N   -0.314679
    27  C    0.055338
    28  C   -0.153427
    29  C   -0.064730
    30  C    0.011834
    31  C    0.025185
    32  C    0.002015
    33  C   -0.084493
    34  N   -0.415123
    35  C    0.120764
    36  C   -0.217589
    37  C   -0.024388
    38  C    0.139608
    39  C    0.081746
    40  C    0.103891
    41  O   -0.180442
    42  C   -0.155467
    43  C    0.292653
    44  O   -0.269200
    45  O   -0.370781
    46  C    0.120560
    47  C    0.229877
    48  C   -0.122712
    49  C   -0.226383
    50  C    0.042103
    51  C    0.011074
    52  C   -0.052317
    53  C   -0.035716
    54  C   -0.220144
    55  C   -0.019758
    56  C   -0.021727
    57  C   -0.047033
    58  C   -0.027889
    59  C   -0.220451
    60  C   -0.000286
    61  C    0.006681
    62  C   -0.094143
    63  C   -0.013518
    64  C   -0.237097
    65  C   -0.023351
    66  C    0.002504
    67  H    0.004813
    68  H   -0.008888
    69  H   -0.001724
    70  H    0.059847
    71  H    0.043899
    72  H    0.045927
    73  H    0.050410
    74  H    0.050547
    75  H    0.049467
    76  H    0.058323
    77  H    0.080506
    78  H    0.077127
    79  H    0.065170
    80  H    0.030357
    81  H    0.055845
    82  H    0.089711
    83  H    0.052723
    84  H    0.065829
    85  H    0.042225
    86  H    0.041737
    87  H    0.063765
    88  H    0.029144
    89  H    0.029895
    90  H    0.054159
    91  H    0.036866
    92  H    0.041388
    93  H    0.036238
    94  H    0.041546
    95  H    0.027828
    96  H    0.064377
    97  H    0.062518
    98  H    0.068054
    99  H    0.062787
   100  H    0.050057
   101  H    0.061473
   102  H    0.032011
   103  H    0.065714
   104  H    0.023802
   105  H    0.038432
   106  H    0.063230
   107  H    0.049343
   108  H    0.034762
   109  H    0.043977
   110  H    0.053219
   111  H    0.054384
   112  H    0.023529
   113  H    0.036587
   114  H    0.049076
   115  H    0.027334
   116  H    0.019524
   117  H    0.038327
   118  H    0.043390
   119  H    0.043194
   120  H    0.031528
   121  H    0.032145
   122  H    0.028763
   123  H    0.020492
   124  H    0.031672
   125  H    0.036917
   126  H    0.039326
   127  H    0.021637
   128  H    0.021996
   129  H    0.015327
   130  H    0.037450
   131  H    0.042750
   132  H    0.021979
   133  H    0.024456
   134  H    0.043944
   135  H    0.027532
   136  H    0.035717
   137  H    0.034781
   138  H    0.035046
   139  H    0.028989
   140  H    0.034503
 Sum of Mulliken charges =  -0.00000

 Dipole moment (field-independent basis, Debye):
    X=              0.0764    Y=              6.2821    Z=             -1.7849  Tot=              6.5312
 Quadrupole moment (field-independent basis, Debye-Ang):
   XX=           -388.0018   YY=           -422.5545   ZZ=           -400.3857
   XY=            -45.1886   XZ=            -18.6204   YZ=            -26.6695

 Normal termination of Gaussian 16 at Thu May  5 04:58:47 2022.
