 Gaussian 16, Revision A.03,
 Gaussian 16:  ES64L-G16RevA.03 25-Dec-2016

 --------------------------------
 #p wB97XD/Def2SVP td=(nstates=5)
 --------------------------------

 ----------------------------------------------------
 step_601_chromophore_26 TDDFT with wB97XD functional
 ----------------------------------------------------
 Symbolic Z-matrix:
 Charge =  0 Multiplicity = 1

                         Standard orientation:
 ---------------------------------------------------------------------
 Center     Atomic      Atomic             Coordinates (Angstroms)
 Number     Number       Type             X           Y           Z
 ---------------------------------------------------------------------
      1         12           0       -3.899999    1.169085    0.596031
      2          6           0       -4.677814   -2.161879   -0.035018
      3          6           0       -2.164771    0.176472    3.418070
      4          6           0       -2.642382    4.235436    0.788105
      5          6           0       -5.128722    1.918707   -2.691145
      6          7           0       -3.447025   -0.766557    1.609008
      7          6           0       -3.940645   -2.014979    1.184992
      8          6           0       -3.540353   -3.180708    2.106823
      9          6           0       -3.019934   -2.373956    3.331750
     10          6           0       -2.757278   -0.896041    2.744994
     11          6           0       -3.804451   -2.422172    4.677957
     12          6           0       -2.573380   -4.202639    1.503561
     13          6           0       -1.561976   -3.719355    0.388047
     14          6           0       -0.198530   -4.428153    0.441732
     15          8           0        0.113978   -5.368193    1.194496
     16          8           0        0.621222   -3.811183   -0.508354
     17          7           0       -2.607352    2.099503    1.956503
     18          6           0       -2.021654    1.536708    3.073402
     19          6           0       -1.252628    2.526692    3.752784
     20          6           0       -1.333246    3.764651    3.033490
     21          6           0       -2.199890    3.393976    1.833592
     22          6           0       -0.404816    2.239917    4.998843
     23          6           0       -0.730578    5.115065    3.389702
     24          8           0       -0.241809    5.251252    4.519067
     25          6           0       -0.909162    6.306940    2.581870
     26          7           0       -3.720897    2.757852   -0.925548
     27          6           0       -3.350658    3.932633   -0.419004
     28          6           0       -3.906245    5.128940   -1.323234
     29          6           0       -4.476703    4.478518   -2.553742
     30          6           0       -4.457457    2.966310   -1.997147
     31          6           0       -4.847820    6.067852   -0.581524
     32          6           0       -3.759188    4.653745   -3.923185
     33          6           0       -4.559583    5.325364   -5.076657
     34          7           0       -4.890226    0.164095   -1.092665
     35          6           0       -5.338860    0.601551   -2.270075
     36          6           0       -5.875816   -0.509338   -2.967858
     37          6           0       -5.731689   -1.638840   -2.084248
     38          6           0       -5.076016   -1.161835   -1.010423
     39          6           0       -6.354089   -0.449393   -4.424753
     40          6           0       -6.008494   -3.059884   -1.926358
     41          8           0       -6.577239   -3.835222   -2.647401
     42          6           0       -5.318850   -3.398344   -0.562801
     43          6           0       -6.474799   -3.839463    0.236229
     44          8           0       -6.571743   -5.030644    0.608274
     45          8           0       -7.302936   -2.771486    0.610876
     46          6           0       -8.536391   -3.144579    1.276021
     47          6           0        1.919497   -4.462428   -0.813497
     48          6           0        2.962971   -3.385612   -1.175459
     49          6           0        3.563533   -3.001552   -2.321318
     50          6           0        3.072122   -3.325691   -3.721816
     51          6           0        4.813979   -2.185538   -2.125092
     52          6           0        4.505310   -0.623095   -1.857149
     53          6           0        5.390863    0.409766   -2.723319
     54          6           0        5.872876    1.606316   -1.742686
     55          6           0        6.060713    2.962606   -2.537549
     56          6           0        7.286117    1.165280   -1.133845
     57          6           0        7.323895    1.494060    0.454987
     58          6           0        7.390587    0.125516    1.235501
     59          6           0        8.798480   -0.230762    1.807566
     60          6           0        8.641491   -0.937154    3.180734
     61          6           0        9.688701   -1.081548    0.789970
     62          6           0       11.230489   -0.753009    0.783474
     63          6           0       11.757406    0.102972   -0.427348
     64          6           0       13.264924   -0.191848   -0.645728
     65          6           0       14.179726    1.074915   -0.784079
     66          6           0       13.481737   -1.222575   -1.748761
     67          1           0       -1.668126   -0.059614    4.362093
     68          1           0       -2.488476    5.307402    0.930436
     69          1           0       -5.623320    2.151297   -3.636427
     70          1           0       -4.515642   -3.657931    2.196453
     71          1           0       -2.038846   -2.667351    3.704673
     72          1           0       -4.618091   -3.115323    4.464809
     73          1           0       -4.159923   -1.417080    4.904473
     74          1           0       -3.181735   -2.816976    5.481381
     75          1           0       -3.218486   -4.961108    1.059546
     76          1           0       -2.091215   -4.762431    2.305478
     77          1           0       -1.285813   -2.686093    0.598402
     78          1           0       -1.980730   -3.676149   -0.618073
     79          1           0        0.553062    1.732374    4.892067
     80          1           0       -0.968860    1.712341    5.768551
     81          1           0       -0.245141    3.144380    5.587246
     82          1           0       -1.941679    6.650729    2.533509
     83          1           0       -0.627535    5.951956    1.590126
     84          1           0       -0.192002    7.020693    2.988431
     85          1           0       -3.039515    5.748305   -1.555260
     86          1           0       -5.513519    4.787470   -2.683938
     87          1           0       -5.144785    5.620277    0.367006
     88          1           0       -5.662258    6.377353   -1.235798
     89          1           0       -4.436700    7.075893   -0.539221
     90          1           0       -3.380021    3.710274   -4.315699
     91          1           0       -2.912679    5.298570   -3.689176
     92          1           0       -4.528576    4.852587   -6.058274
     93          1           0       -4.121977    6.274307   -5.384840
     94          1           0       -5.594720    5.484689   -4.774188
     95          1           0       -6.353949    0.591506   -4.746546
     96          1           0       -7.327102   -0.933786   -4.506944
     97          1           0       -5.629899   -1.000506   -5.024186
     98          1           0       -4.720433   -4.306235   -0.647477
     99          1           0       -9.395527   -2.728307    0.750599
    100          1           0       -8.475702   -2.848125    2.322159
    101          1           0       -8.768722   -4.205816    1.369595
    102          1           0        1.730587   -5.036850   -1.720314
    103          1           0        2.181639   -5.095990    0.033287
    104          1           0        3.415454   -3.189859   -0.203838
    105          1           0        3.903291   -3.366489   -4.425496
    106          1           0        2.445980   -2.482104   -4.011292
    107          1           0        2.518396   -4.263545   -3.757252
    108          1           0        5.567364   -2.336279   -2.897772
    109          1           0        5.199441   -2.596008   -1.192131
    110          1           0        4.783834   -0.415775   -0.824029
    111          1           0        3.481900   -0.301476   -2.048393
    112          1           0        4.743487    0.901637   -3.450363
    113          1           0        6.167688   -0.088412   -3.303143
    114          1           0        5.168548    1.862144   -0.950927
    115          1           0        5.667061    3.825736   -2.000243
    116          1           0        5.411337    2.973215   -3.413518
    117          1           0        7.076881    3.202167   -2.851516
    118          1           0        8.200925    1.614472   -1.520469
    119          1           0        7.278573    0.081579   -1.251008
    120          1           0        6.446537    2.049446    0.786266
    121          1           0        8.140923    2.203043    0.584380
    122          1           0        7.103710   -0.764460    0.676440
    123          1           0        6.679757    0.110557    2.060987
    124          1           0        9.326342    0.710446    1.960840
    125          1           0        7.607817   -1.144618    3.458104
    126          1           0        9.192813   -0.361930    3.924017
    127          1           0        9.113881   -1.919708    3.167589
    128          1           0        9.235364   -1.164590   -0.198192
    129          1           0        9.633599   -2.111168    1.143575
    130          1           0       11.757488   -1.704227    0.726822
    131          1           0       11.464105   -0.149662    1.661210
    132          1           0       11.505612    1.127774   -0.153679
    133          1           0       11.142984   -0.146271   -1.292125
    134          1           0       13.541011   -0.647893    0.305047
    135          1           0       13.635048    1.999178   -0.590738
    136          1           0       14.711640    1.282460   -1.713356
    137          1           0       14.935002    0.972076   -0.004027
    138          1           0       14.013267   -2.114884   -1.420635
    139          1           0       14.132703   -0.780054   -2.503105
    140          1           0       12.540050   -1.523941   -2.207374
 ---------------------------------------------------------------------

 SCF Done:  E(RwB97XD) =  -3007.81570207     A.U. after   20 cycles

 Excitation energies and oscillator strengths:

 Excited State   1:      Singlet-A      1.7216 eV  720.19 nm  f=0.3649  <S**2>=0.000
     245 -> 248       -0.18486
     246 -> 247        0.68118
     245 <- 248       -0.11144
 This state for optimization and/or second-order correction.
 Total Energy, E(TD-HF/TD-DFT) =  -3007.75243620
 Copying the excited state density for this state as the 1-particle RhoCI density.

 Excited State   2:      Singlet-A      2.1403 eV  579.30 nm  f=0.1190  <S**2>=0.000
     245 -> 247        0.64353
     246 -> 248        0.26938

 Excited State   3:      Singlet-A      3.2764 eV  378.42 nm  f=0.0003  <S**2>=0.000
     242 -> 247       -0.10502
     244 -> 247        0.65793
     244 -> 249       -0.10268
     246 -> 248       -0.13498

 Excited State   4:      Singlet-A      3.4419 eV  360.22 nm  f=0.0045  <S**2>=0.000
     240 -> 247        0.44480
     240 -> 248        0.17363
     240 -> 249        0.31876
     240 -> 251        0.20462
     241 -> 247       -0.25065
     242 -> 247       -0.13144
     246 -> 248        0.10603

 Excited State   5:      Singlet-A      3.4719 eV  357.11 nm  f=0.0342  <S**2>=0.000
     239 -> 247        0.10964
     240 -> 247        0.26480
     240 -> 249        0.11151
     241 -> 247        0.46050
     242 -> 247        0.28843
     246 -> 248       -0.27743

 The electronic state is 1-A.
 Alpha  occ. eigenvalues --  -46.97536 -19.31008 -19.29255 -19.24967 -19.24906
 Alpha  occ. eigenvalues --  -19.24259 -19.23928 -14.47445 -14.47390 -14.45106
 Alpha  occ. eigenvalues --  -14.42889 -10.43657 -10.43431 -10.39336 -10.38992
 Alpha  occ. eigenvalues --  -10.36267 -10.35953 -10.35879 -10.35741 -10.35515
 Alpha  occ. eigenvalues --  -10.35211 -10.35126 -10.34793 -10.33451 -10.32722
 Alpha  occ. eigenvalues --  -10.32560 -10.32550 -10.32434 -10.32345 -10.32256
 Alpha  occ. eigenvalues --  -10.32098 -10.32020 -10.31956 -10.31869 -10.31860
 Alpha  occ. eigenvalues --  -10.31554 -10.31454 -10.31435 -10.30976 -10.30928
 Alpha  occ. eigenvalues --  -10.30706 -10.30646 -10.30516 -10.30482 -10.30311
 Alpha  occ. eigenvalues --  -10.30168 -10.30163 -10.30117 -10.29887 -10.29743
 Alpha  occ. eigenvalues --  -10.29637 -10.29618 -10.29608 -10.29540 -10.29359
 Alpha  occ. eigenvalues --  -10.29099 -10.29026 -10.28947 -10.28697 -10.28687
 Alpha  occ. eigenvalues --  -10.28384 -10.28214 -10.28162 -10.28144 -10.28001
 Alpha  occ. eigenvalues --  -10.27921  -3.23219  -1.96787  -1.96372  -1.96134
 Alpha  occ. eigenvalues --   -1.17566  -1.16270  -1.13254  -1.11975  -1.09335
 Alpha  occ. eigenvalues --   -1.08815  -1.08018  -1.06479  -1.05869  -1.04932
 Alpha  occ. eigenvalues --   -0.95568  -0.91858  -0.91750  -0.91265  -0.90715
 Alpha  occ. eigenvalues --   -0.90491  -0.89427  -0.88931  -0.88328  -0.88185
 Alpha  occ. eigenvalues --   -0.87663  -0.86905  -0.86215  -0.86130  -0.85047
 Alpha  occ. eigenvalues --   -0.84533  -0.83840  -0.83032  -0.82483  -0.82104
 Alpha  occ. eigenvalues --   -0.81150  -0.79998  -0.79706  -0.79398  -0.78684
 Alpha  occ. eigenvalues --   -0.77945  -0.77421  -0.77199  -0.75988  -0.75522
 Alpha  occ. eigenvalues --   -0.74960  -0.74216  -0.73919  -0.72310  -0.71827
 Alpha  occ. eigenvalues --   -0.70697  -0.69944  -0.69595  -0.68247  -0.68204
 Alpha  occ. eigenvalues --   -0.67373  -0.67128  -0.67057  -0.66482  -0.65624
 Alpha  occ. eigenvalues --   -0.65295  -0.65122  -0.64846  -0.64233  -0.62512
 Alpha  occ. eigenvalues --   -0.61707  -0.61388  -0.61360  -0.60344  -0.59916
 Alpha  occ. eigenvalues --   -0.59209  -0.58641  -0.58437  -0.57745  -0.57685
 Alpha  occ. eigenvalues --   -0.57066  -0.56755  -0.56420  -0.55891  -0.55686
 Alpha  occ. eigenvalues --   -0.55308  -0.55079  -0.54930  -0.54810  -0.54477
 Alpha  occ. eigenvalues --   -0.54327  -0.54153  -0.53967  -0.53624  -0.53553
 Alpha  occ. eigenvalues --   -0.53413  -0.53061  -0.53011  -0.52747  -0.52510
 Alpha  occ. eigenvalues --   -0.52499  -0.52285  -0.51812  -0.51596  -0.51372
 Alpha  occ. eigenvalues --   -0.51316  -0.51160  -0.51005  -0.50913  -0.50818
 Alpha  occ. eigenvalues --   -0.50181  -0.50085  -0.50010  -0.49567  -0.49353
 Alpha  occ. eigenvalues --   -0.49240  -0.48863  -0.48741  -0.48697  -0.48598
 Alpha  occ. eigenvalues --   -0.48428  -0.48308  -0.48026  -0.47966  -0.47783
 Alpha  occ. eigenvalues --   -0.47681  -0.47487  -0.47415  -0.47135  -0.47010
 Alpha  occ. eigenvalues --   -0.46716  -0.46512  -0.46093  -0.45996  -0.45757
 Alpha  occ. eigenvalues --   -0.45601  -0.45415  -0.45263  -0.45073  -0.44948
 Alpha  occ. eigenvalues --   -0.44689  -0.44600  -0.44002  -0.43935  -0.43842
 Alpha  occ. eigenvalues --   -0.43786  -0.43583  -0.43338  -0.42994  -0.42739
 Alpha  occ. eigenvalues --   -0.42607  -0.42253  -0.42035  -0.42012  -0.41923
 Alpha  occ. eigenvalues --   -0.41592  -0.41525  -0.41210  -0.41118  -0.40882
 Alpha  occ. eigenvalues --   -0.40784  -0.40402  -0.40136  -0.39708  -0.39363
 Alpha  occ. eigenvalues --   -0.39326  -0.38762  -0.38677  -0.38559  -0.38105
 Alpha  occ. eigenvalues --   -0.37658  -0.37089  -0.37019  -0.36749  -0.36510
 Alpha  occ. eigenvalues --   -0.36121  -0.35622  -0.34818  -0.33750  -0.33290
 Alpha  occ. eigenvalues --   -0.32848  -0.32668  -0.31873  -0.31107  -0.26134
 Alpha  occ. eigenvalues --   -0.23596
 Alpha virt. eigenvalues --   -0.07440  -0.00265   0.01981   0.04059   0.04362
 Alpha virt. eigenvalues --    0.06467   0.07201   0.07470   0.07814   0.09361
 Alpha virt. eigenvalues --    0.10214   0.10701   0.11652   0.12329   0.12667

 Mulliken charges:
               1
     1  Mg   0.935983
     2  C    0.036435
     3  C   -0.101230
     4  C   -0.100021
     5  C   -0.066418
     6  N   -0.350096
     7  C   -0.041165
     8  C   -0.021535
     9  C   -0.102479
    10  C    0.077950
    11  C    0.029233
    12  C    0.023512
    13  C   -0.039220
    14  C    0.258333
    15  O   -0.277100
    16  O   -0.393443
    17  N   -0.465321
    18  C    0.152072
    19  C   -0.136062
    20  C   -0.073226
    21  C    0.191495
    22  C    0.053946
    23  C    0.033857
    24  O   -0.247372
    25  C    0.006396
    26  N   -0.280928
    27  C    0.046152
    28  C   -0.127604
    29  C   -0.038660
    30  C   -0.005822
    31  C    0.034175
    32  C    0.014453
    33  C   -0.068194
    34  N   -0.373732
    35  C    0.105808
    36  C   -0.216821
    37  C   -0.023652
    38  C    0.116389
    39  C    0.095680
    40  C    0.087356
    41  O   -0.172550
    42  C   -0.112798
    43  C    0.269292
    44  O   -0.263996
    45  O   -0.371818
    46  C    0.136019
    47  C    0.245136
    48  C   -0.134918
    49  C   -0.211521
    50  C    0.055691
    51  C    0.032322
    52  C   -0.035961
    53  C   -0.019489
    54  C   -0.191369
    55  C   -0.008213
    56  C   -0.002655
    57  C   -0.034586
    58  C   -0.005955
    59  C   -0.193254
    60  C    0.011862
    61  C    0.021275
    62  C   -0.072248
    63  C   -0.001019
    64  C   -0.204806
    65  C   -0.011183
    66  C    0.013329
    67  H   -0.000907
    68  H   -0.021153
    69  H   -0.009876
    70  H    0.045514
    71  H    0.033701
    72  H    0.040464
    73  H    0.043607
    74  H    0.046449
    75  H    0.041830
    76  H    0.052118
    77  H    0.068364
    78  H    0.071493
    79  H    0.063288
    80  H    0.025982
    81  H    0.053102
    82  H    0.086437
    83  H    0.045554
    84  H    0.065793
    85  H    0.031039
    86  H    0.027511
    87  H    0.057497
    88  H    0.024065
    89  H    0.024798
    90  H    0.047202
    91  H    0.027310
    92  H    0.036114
    93  H    0.029845
    94  H    0.034820
    95  H    0.020156
    96  H    0.058521
    97  H    0.055603
    98  H    0.060277
    99  H    0.059088
   100  H    0.045359
   101  H    0.057273
   102  H    0.025288
   103  H    0.062757
   104  H    0.019161
   105  H    0.033256
   106  H    0.057412
   107  H    0.043818
   108  H    0.027697
   109  H    0.034580
   110  H    0.039503
   111  H    0.047132
   112  H    0.014220
   113  H    0.028963
   114  H    0.037271
   115  H    0.021524
   116  H    0.012574
   117  H    0.032521
   118  H    0.036442
   119  H    0.023583
   120  H    0.023175
   121  H    0.025194
   122  H    0.015752
   123  H    0.011740
   124  H    0.016590
   125  H    0.031076
   126  H    0.034280
   127  H    0.014756
   128  H    0.011424
   129  H    0.005746
   130  H    0.027658
   131  H    0.033088
   132  H    0.012792
   133  H    0.013653
   134  H    0.030404
   135  H    0.021196
   136  H    0.030165
   137  H    0.029015
   138  H    0.030052
   139  H    0.022239
   140  H    0.028354
 Sum of Mulliken charges =  -0.00000

 Dipole moment (field-independent basis, Debye):
    X=              0.4284    Y=              6.6619    Z=             -1.2281  Tot=              6.7877
 Quadrupole moment (field-independent basis, Debye-Ang):
   XX=           -389.8000   YY=           -421.4498   ZZ=           -399.7385
   XY=            -45.7887   XZ=            -20.8098   YZ=            -25.1520

 Normal termination of Gaussian 16 at Thu May  5 05:31:56 2022.
