 Gaussian 16, Revision A.03,
 Gaussian 16:  ES64L-G16RevA.03 25-Dec-2016

 --------------------
 #p ZINDO=(nstates=5)
 --------------------

 -----------------------------
 step_601_chromophore_26 ZINDO
 -----------------------------
 Symbolic Z-matrix:
 Charge =  0 Multiplicity = 1

                         Standard orientation:
 ---------------------------------------------------------------------
 Center     Atomic      Atomic             Coordinates (Angstroms)
 Number     Number       Type             X           Y           Z
 ---------------------------------------------------------------------
      1         12           0       -3.899999    1.169085    0.596031
      2          6           0       -4.677814   -2.161879   -0.035018
      3          6           0       -2.164771    0.176472    3.418070
      4          6           0       -2.642382    4.235436    0.788105
      5          6           0       -5.128722    1.918707   -2.691145
      6          7           0       -3.447025   -0.766557    1.609008
      7          6           0       -3.940645   -2.014979    1.184992
      8          6           0       -3.540353   -3.180708    2.106823
      9          6           0       -3.019934   -2.373956    3.331750
     10          6           0       -2.757278   -0.896041    2.744994
     11          6           0       -3.804451   -2.422172    4.677957
     12          6           0       -2.573380   -4.202639    1.503561
     13          6           0       -1.561976   -3.719355    0.388047
     14          6           0       -0.198530   -4.428153    0.441732
     15          8           0        0.113978   -5.368193    1.194496
     16          8           0        0.621222   -3.811183   -0.508354
     17          7           0       -2.607352    2.099503    1.956503
     18          6           0       -2.021654    1.536708    3.073402
     19          6           0       -1.252628    2.526692    3.752784
     20          6           0       -1.333246    3.764651    3.033490
     21          6           0       -2.199890    3.393976    1.833592
     22          6           0       -0.404816    2.239917    4.998843
     23          6           0       -0.730578    5.115065    3.389702
     24          8           0       -0.241809    5.251252    4.519067
     25          6           0       -0.909162    6.306940    2.581870
     26          7           0       -3.720897    2.757852   -0.925548
     27          6           0       -3.350658    3.932633   -0.419004
     28          6           0       -3.906245    5.128940   -1.323234
     29          6           0       -4.476703    4.478518   -2.553742
     30          6           0       -4.457457    2.966310   -1.997147
     31          6           0       -4.847820    6.067852   -0.581524
     32          6           0       -3.759188    4.653745   -3.923185
     33          6           0       -4.559583    5.325364   -5.076657
     34          7           0       -4.890226    0.164095   -1.092665
     35          6           0       -5.338860    0.601551   -2.270075
     36          6           0       -5.875816   -0.509338   -2.967858
     37          6           0       -5.731689   -1.638840   -2.084248
     38          6           0       -5.076016   -1.161835   -1.010423
     39          6           0       -6.354089   -0.449393   -4.424753
     40          6           0       -6.008494   -3.059884   -1.926358
     41          8           0       -6.577239   -3.835222   -2.647401
     42          6           0       -5.318850   -3.398344   -0.562801
     43          6           0       -6.474799   -3.839463    0.236229
     44          8           0       -6.571743   -5.030644    0.608274
     45          8           0       -7.302936   -2.771486    0.610876
     46          6           0       -8.536391   -3.144579    1.276021
     47          6           0        1.919497   -4.462428   -0.813497
     48          6           0        2.962971   -3.385612   -1.175459
     49          6           0        3.563533   -3.001552   -2.321318
     50          6           0        3.072122   -3.325691   -3.721816
     51          6           0        4.813979   -2.185538   -2.125092
     52          6           0        4.505310   -0.623095   -1.857149
     53          6           0        5.390863    0.409766   -2.723319
     54          6           0        5.872876    1.606316   -1.742686
     55          6           0        6.060713    2.962606   -2.537549
     56          6           0        7.286117    1.165280   -1.133845
     57          6           0        7.323895    1.494060    0.454987
     58          6           0        7.390587    0.125516    1.235501
     59          6           0        8.798480   -0.230762    1.807566
     60          6           0        8.641491   -0.937154    3.180734
     61          6           0        9.688701   -1.081548    0.789970
     62          6           0       11.230489   -0.753009    0.783474
     63          6           0       11.757406    0.102972   -0.427348
     64          6           0       13.264924   -0.191848   -0.645728
     65          6           0       14.179726    1.074915   -0.784079
     66          6           0       13.481737   -1.222575   -1.748761
     67          1           0       -1.668126   -0.059614    4.362093
     68          1           0       -2.488476    5.307402    0.930436
     69          1           0       -5.623320    2.151297   -3.636427
     70          1           0       -4.515642   -3.657931    2.196453
     71          1           0       -2.038846   -2.667351    3.704673
     72          1           0       -4.618091   -3.115323    4.464809
     73          1           0       -4.159923   -1.417080    4.904473
     74          1           0       -3.181735   -2.816976    5.481381
     75          1           0       -3.218486   -4.961108    1.059546
     76          1           0       -2.091215   -4.762431    2.305478
     77          1           0       -1.285813   -2.686093    0.598402
     78          1           0       -1.980730   -3.676149   -0.618073
     79          1           0        0.553062    1.732374    4.892067
     80          1           0       -0.968860    1.712341    5.768551
     81          1           0       -0.245141    3.144380    5.587246
     82          1           0       -1.941679    6.650729    2.533509
     83          1           0       -0.627535    5.951956    1.590126
     84          1           0       -0.192002    7.020693    2.988431
     85          1           0       -3.039515    5.748305   -1.555260
     86          1           0       -5.513519    4.787470   -2.683938
     87          1           0       -5.144785    5.620277    0.367006
     88          1           0       -5.662258    6.377353   -1.235798
     89          1           0       -4.436700    7.075893   -0.539221
     90          1           0       -3.380021    3.710274   -4.315699
     91          1           0       -2.912679    5.298570   -3.689176
     92          1           0       -4.528576    4.852587   -6.058274
     93          1           0       -4.121977    6.274307   -5.384840
     94          1           0       -5.594720    5.484689   -4.774188
     95          1           0       -6.353949    0.591506   -4.746546
     96          1           0       -7.327102   -0.933786   -4.506944
     97          1           0       -5.629899   -1.000506   -5.024186
     98          1           0       -4.720433   -4.306235   -0.647477
     99          1           0       -9.395527   -2.728307    0.750599
    100          1           0       -8.475702   -2.848125    2.322159
    101          1           0       -8.768722   -4.205816    1.369595
    102          1           0        1.730587   -5.036850   -1.720314
    103          1           0        2.181639   -5.095990    0.033287
    104          1           0        3.415454   -3.189859   -0.203838
    105          1           0        3.903291   -3.366489   -4.425496
    106          1           0        2.445980   -2.482104   -4.011292
    107          1           0        2.518396   -4.263545   -3.757252
    108          1           0        5.567364   -2.336279   -2.897772
    109          1           0        5.199441   -2.596008   -1.192131
    110          1           0        4.783834   -0.415775   -0.824029
    111          1           0        3.481900   -0.301476   -2.048393
    112          1           0        4.743487    0.901637   -3.450363
    113          1           0        6.167688   -0.088412   -3.303143
    114          1           0        5.168548    1.862144   -0.950927
    115          1           0        5.667061    3.825736   -2.000243
    116          1           0        5.411337    2.973215   -3.413518
    117          1           0        7.076881    3.202167   -2.851516
    118          1           0        8.200925    1.614472   -1.520469
    119          1           0        7.278573    0.081579   -1.251008
    120          1           0        6.446537    2.049446    0.786266
    121          1           0        8.140923    2.203043    0.584380
    122          1           0        7.103710   -0.764460    0.676440
    123          1           0        6.679757    0.110557    2.060987
    124          1           0        9.326342    0.710446    1.960840
    125          1           0        7.607817   -1.144618    3.458104
    126          1           0        9.192813   -0.361930    3.924017
    127          1           0        9.113881   -1.919708    3.167589
    128          1           0        9.235364   -1.164590   -0.198192
    129          1           0        9.633599   -2.111168    1.143575
    130          1           0       11.757488   -1.704227    0.726822
    131          1           0       11.464105   -0.149662    1.661210
    132          1           0       11.505612    1.127774   -0.153679
    133          1           0       11.142984   -0.146271   -1.292125
    134          1           0       13.541011   -0.647893    0.305047
    135          1           0       13.635048    1.999178   -0.590738
    136          1           0       14.711640    1.282460   -1.713356
    137          1           0       14.935002    0.972076   -0.004027
    138          1           0       14.013267   -2.114884   -1.420635
    139          1           0       14.132703   -0.780054   -2.503105
    140          1           0       12.540050   -1.523941   -2.207374
 ---------------------------------------------------------------------

 SCF Done:  E(RZINDO/S) =  -473.842119405     A.U. after   19 cycles

 Excitation energies and oscillator strengths:

 Excited State   1:      Singlet-A      1.3297 eV  932.39 nm  f=0.5444  <S**2>=0.000
     175 ->178         0.17505
     176 ->177         0.66600
 This state for optimization and/or second-order correction.
 Total Energy, E(CIS/TDA) =  -473.793252109
 Copying the excited state density for this state as the 1-particle RhoCI density.

 Excited State   2:      Singlet-A      1.8865 eV  657.21 nm  f=0.0650  <S**2>=0.000
     175 ->177         0.56153
     176 ->178        -0.39230

 Excited State   3:      Singlet-A      2.7990 eV  442.96 nm  f=0.0001  <S**2>=0.000
     168 ->177        -0.32258
     168 ->178         0.19938
     168 ->179         0.37441
     168 ->181         0.30240
     168 ->184         0.14242
     168 ->186        -0.18280
     168 ->191        -0.10608

 Excited State   4:      Singlet-A      2.9480 eV  420.57 nm  f=0.7858  <S**2>=0.000
     175 ->177         0.31581
     176 ->178         0.50161
     176 ->179         0.19948
     176 ->180         0.22497

 Excited State   5:      Singlet-A      3.0514 eV  406.32 nm  f=0.0021  <S**2>=0.000
     170 ->177         0.23322
     170 ->179         0.29749
     170 ->180        -0.15239
     170 ->181        -0.24914
     170 ->186        -0.16867
     170 ->187        -0.12654
     170 ->188         0.12934
     172 ->177         0.10290
     174 ->177         0.14378
     176 ->179         0.21043
     176 ->180         0.18094
     176 ->181        -0.11098

 The electronic state is 1-A.
 Alpha  occ. eigenvalues --   -1.85901  -1.81371  -1.79920  -1.71788  -1.71635
 Alpha  occ. eigenvalues --   -1.68846  -1.61942  -1.61030  -1.58242  -1.57818
 Alpha  occ. eigenvalues --   -1.53593  -1.50132  -1.48323  -1.47893  -1.46561
 Alpha  occ. eigenvalues --   -1.45954  -1.42258  -1.41092  -1.37858  -1.36043
 Alpha  occ. eigenvalues --   -1.35355  -1.32941  -1.31328  -1.30466  -1.28860
 Alpha  occ. eigenvalues --   -1.28082  -1.26890  -1.23774  -1.22305  -1.18028
 Alpha  occ. eigenvalues --   -1.16607  -1.15838  -1.14550  -1.13759  -1.12818
 Alpha  occ. eigenvalues --   -1.11874  -1.10126  -1.09776  -1.05737  -1.04615
 Alpha  occ. eigenvalues --   -1.02330  -1.01135  -0.99016  -0.97655  -0.96900
 Alpha  occ. eigenvalues --   -0.96414  -0.94192  -0.93074  -0.92803  -0.92266
 Alpha  occ. eigenvalues --   -0.91369  -0.90210  -0.89546  -0.89007  -0.88505
 Alpha  occ. eigenvalues --   -0.86232  -0.84392  -0.83649  -0.83026  -0.81350
 Alpha  occ. eigenvalues --   -0.78986  -0.78541  -0.77719  -0.77241  -0.76376
 Alpha  occ. eigenvalues --   -0.76116  -0.74789  -0.73752  -0.73443  -0.73026
 Alpha  occ. eigenvalues --   -0.72344  -0.71992  -0.71776  -0.71244  -0.70901
 Alpha  occ. eigenvalues --   -0.70020  -0.69607  -0.69286  -0.68622  -0.67894
 Alpha  occ. eigenvalues --   -0.67191  -0.66982  -0.66287  -0.65825  -0.65485
 Alpha  occ. eigenvalues --   -0.65304  -0.65128  -0.64625  -0.64197  -0.63531
 Alpha  occ. eigenvalues --   -0.63347  -0.63146  -0.63117  -0.62623  -0.62369
 Alpha  occ. eigenvalues --   -0.62094  -0.61775  -0.60803  -0.60693  -0.60134
 Alpha  occ. eigenvalues --   -0.59994  -0.59508  -0.59206  -0.58824  -0.58733
 Alpha  occ. eigenvalues --   -0.58173  -0.57303  -0.57197  -0.57040  -0.56103
 Alpha  occ. eigenvalues --   -0.55984  -0.55533  -0.55328  -0.55222  -0.54599
 Alpha  occ. eigenvalues --   -0.54344  -0.54133  -0.54069  -0.53284  -0.53224
 Alpha  occ. eigenvalues --   -0.52791  -0.52283  -0.52104  -0.51887  -0.51397
 Alpha  occ. eigenvalues --   -0.51289  -0.51153  -0.50578  -0.50512  -0.50253
 Alpha  occ. eigenvalues --   -0.50143  -0.50076  -0.49874  -0.49515  -0.49244
 Alpha  occ. eigenvalues --   -0.49098  -0.48917  -0.48820  -0.48767  -0.48340
 Alpha  occ. eigenvalues --   -0.48107  -0.47914  -0.47818  -0.46948  -0.46776
 Alpha  occ. eigenvalues --   -0.46649  -0.46381  -0.46282  -0.45831  -0.45458
 Alpha  occ. eigenvalues --   -0.45289  -0.45158  -0.44909  -0.44667  -0.44401
 Alpha  occ. eigenvalues --   -0.43909  -0.43674  -0.43499  -0.43121  -0.42186
 Alpha  occ. eigenvalues --   -0.41419  -0.41324  -0.41310  -0.39431  -0.39182
 Alpha  occ. eigenvalues --   -0.38095  -0.37271  -0.36178  -0.35343  -0.34348
 Alpha  occ. eigenvalues --   -0.34321  -0.32917  -0.32510  -0.31511  -0.26894
 Alpha  occ. eigenvalues --   -0.22609
 Alpha virt. eigenvalues --   -0.08923  -0.02797  -0.01235   0.00186   0.00728
 Alpha virt. eigenvalues --    0.01569   0.02542   0.02921   0.04161   0.04240
 Alpha virt. eigenvalues --    0.05755   0.05909   0.06955   0.07178   0.07833

 Mulliken charges:
               1
     1  Mg   0.441545
     2  C   -0.045886
     3  C   -0.078425
     4  C   -0.098293
     5  C   -0.059445
     6  N   -0.283806
     7  C    0.081794
     8  C    0.013495
     9  C    0.003360
    10  C    0.158751
    11  C   -0.048537
    12  C   -0.021235
    13  C    0.007066
    14  C    0.464794
    15  O   -0.515650
    16  O   -0.281323
    17  N   -0.332927
    18  C    0.141497
    19  C    0.057513
    20  C   -0.046815
    21  C    0.136586
    22  C   -0.047545
    23  C    0.336463
    24  O   -0.526015
    25  C   -0.024106
    26  N   -0.235247
    27  C    0.146576
    28  C    0.008854
    29  C    0.002466
    30  C    0.083295
    31  C   -0.056856
    32  C   -0.025190
    33  C   -0.062547
    34  N   -0.330987
    35  C    0.083336
    36  C   -0.006871
    37  C   -0.063487
    38  C    0.101527
    39  C   -0.044245
    40  C    0.337254
    41  O   -0.509279
    42  C    0.059477
    43  C    0.487245
    44  O   -0.539110
    45  O   -0.265009
    46  C    0.073839
    47  C    0.097812
    48  C   -0.104950
    49  C    0.020640
    50  C   -0.037549
    51  C   -0.022805
    52  C   -0.041610
    53  C   -0.045877
    54  C   -0.018141
    55  C   -0.067419
    56  C   -0.049885
    57  C   -0.046749
    58  C   -0.035514
    59  C   -0.014109
    60  C   -0.058784
    61  C   -0.046117
    62  C   -0.042631
    63  C   -0.037410
    64  C   -0.005264
    65  C   -0.060437
    66  C   -0.053706
    67  H    0.021802
    68  H    0.026553
    69  H    0.023718
    70  H    0.044405
    71  H    0.024278
    72  H    0.026940
    73  H    0.027963
    74  H    0.028282
    75  H    0.022697
    76  H    0.038120
    77  H    0.039654
    78  H    0.055058
    79  H    0.042542
    80  H    0.020167
    81  H    0.036777
    82  H    0.052859
    83  H    0.029837
    84  H    0.046850
    85  H    0.021525
    86  H    0.030274
    87  H    0.035908
    88  H    0.020083
    89  H    0.018914
    90  H    0.028740
    91  H    0.017172
    92  H    0.022955
    93  H    0.014602
    94  H    0.022223
    95  H    0.022264
    96  H    0.035678
    97  H    0.031172
    98  H    0.060096
    99  H    0.038727
   100  H    0.031431
   101  H    0.047278
   102  H    0.032747
   103  H    0.063020
   104  H    0.016832
   105  H    0.023512
   106  H    0.033769
   107  H    0.030872
   108  H    0.028645
   109  H    0.023361
   110  H    0.025075
   111  H    0.030456
   112  H    0.010926
   113  H    0.032299
   114  H    0.037677
   115  H    0.012499
   116  H    0.010798
   117  H    0.024213
   118  H    0.032188
   119  H    0.021921
   120  H    0.019011
   121  H    0.023562
   122  H    0.021650
   123  H    0.012633
   124  H    0.018573
   125  H    0.025012
   126  H    0.018955
   127  H    0.013322
   128  H    0.023069
   129  H    0.008843
   130  H    0.022399
   131  H    0.025451
   132  H    0.016937
   133  H    0.018333
   134  H    0.019200
   135  H    0.014759
   136  H    0.023933
   137  H    0.013903
   138  H    0.017829
   139  H    0.015617
   140  H    0.021268
 Sum of Mulliken charges =  -0.00000

 Dipole moment (field-independent basis, Debye):
    X=              1.7003    Y=              9.6561    Z=             -0.4907  Tot=              9.8169
 N-N= 4.472156126423D+03 E-N= 0.000000000000D+00  KE=-9.617560221243D+03
 Leave Link  601 at Thu May  5 05:45:52 2022, MaxMem=  6710886400 cpu:               0.7 elap:               0.0
 (Enter /sw/apps/gaussian-16.0/g16/l9999.exe)
 1\1\GINC-BP1-COMPUTE168\SP\RZINDO CIS\STO-3G\C55H74Mg1N4O6\OF15641\05-
 May-2022\0\\#p ZINDO=(nstates=5)\\step_601_chromophore_26 ZINDO\\0,1\M
 g,0,-8.557,17.991,42.811\C,0,-5.115,17.521,42.637\C,0,-8.082,21.348,42
 .129\C,0,-11.831,18.262,42.333\C,0,-8.89,14.418,42.811\N,0,-6.81,19.32
 2,42.418\C,0,-5.468,18.899,42.464\C,0,-4.456,20.035,42.231\C,0,-5.404,
 21.26,42.382\C,0,-6.88,20.638,42.203\C,0,-5.234,22.223,43.596\C,0,-3.6
 52,19.952,40.931\C,0,-4.305,19.233,39.683\C,0,-3.919,19.864,38.335\O,0

 Normal termination of Gaussian 16 at Thu May  5 05:45:52 2022.
