 Gaussian 16, Revision A.03,
 Gaussian 16:  ES64L-G16RevA.03 25-Dec-2016

 ------------------------------
 #p blyp/Def2SVP td=(nstates=5)
 ------------------------------

 -------------------------------------------------
 step_751_chromophore_8 TDDFT with blyp functional
 -------------------------------------------------
 Symbolic Z-matrix:
 Charge =  0 Multiplicity = 1

                         Standard orientation:
 ---------------------------------------------------------------------
 Center     Atomic      Atomic             Coordinates (Angstroms)
 Number     Number       Type             X           Y           Z
 ---------------------------------------------------------------------
      1         12           0       -4.755510   -0.924859    0.178813
      2          6           0       -3.515298    2.325162    0.739862
      3          6           0       -4.639885   -0.261882   -3.270464
      4          6           0       -4.900307   -4.209899   -0.488083
      5          6           0       -4.103637   -1.616810    3.600249
      6          7           0       -4.067163    0.823351   -1.099024
      7          6           0       -3.667492    2.072226   -0.615748
      8          6           0       -3.322693    3.069294   -1.781263
      9          6           0       -3.942008    2.292527   -3.020513
     10          6           0       -4.232899    0.877378   -2.418075
     11          6           0       -5.214029    2.952114   -3.599500
     12          6           0       -1.764334    3.393754   -1.940445
     13          6           0       -1.381484    4.878736   -1.721934
     14          6           0       -0.100571    5.123087   -1.041677
     15          8           0       -0.036842    5.247004    0.185268
     16          8           0        1.006351    5.045197   -1.945473
     17          7           0       -5.016263   -2.035193   -1.590066
     18          6           0       -4.957046   -1.617230   -2.908475
     19          6           0       -5.164460   -2.722928   -3.863459
     20          6           0       -5.253834   -3.854992   -3.086256
     21          6           0       -5.042916   -3.402831   -1.640613
     22          6           0       -5.424999   -2.471485   -5.360767
     23          6           0       -5.662065   -5.311662   -3.585085
     24          8           0       -5.804088   -5.488217   -4.840422
     25          6           0       -5.875844   -6.475915   -2.684378
     26          7           0       -4.482354   -2.686970    1.495799
     27          6           0       -4.650049   -3.900095    0.939121
     28          6           0       -4.706966   -4.984645    1.974408
     29          6           0       -4.552335   -4.206733    3.302088
     30          6           0       -4.345770   -2.710871    2.847416
     31          6           0       -6.177292   -5.733639    1.878231
     32          6           0       -3.277753   -4.804962    4.022365
     33          6           0       -3.408842   -6.077041    4.901576
     34          7           0       -4.116395    0.107525    1.803876
     35          6           0       -3.923428   -0.284323    3.130485
     36          6           0       -3.298514    0.695044    3.925610
     37          6           0       -3.233247    1.815554    3.046960
     38          6           0       -3.621766    1.396887    1.748079
     39          6           0       -2.926085    0.515517    5.376713
     40          6           0       -2.851559    3.211319    2.927754
     41          8           0       -2.450966    4.037876    3.767990
     42          6           0       -3.143532    3.580955    1.418560
     43          6           0       -4.324197    4.479211    1.403627
     44          8           0       -5.452306    4.210700    1.851921
     45          8           0       -4.085839    5.698126    0.707451
     46          6           0       -5.244457    6.645498    0.654842
     47          6           0        2.303357    5.203296   -1.261543
     48          6           0        2.792132    3.883475   -0.764913
     49          6           0        3.659959    3.687667    0.267855
     50          6           0        4.197476    4.807569    1.169698
     51          6           0        4.169724    2.310771    0.696788
     52          6           0        5.144851    2.016175   -0.481055
     53          6           0        4.811465    0.583527   -1.021393
     54          6           0        6.074534   -0.049556   -1.588613
     55          6           0        5.989407   -0.460519   -3.067726
     56          6           0        6.658415   -1.097709   -0.651579
     57          6           0        8.055393   -0.806494   -0.210290
     58          6           0        8.546053   -2.065806    0.600195
     59          6           0        9.972446   -2.435272    0.299065
     60          6           0       10.206556   -3.948815    0.785132
     61          6           0       10.984556   -1.377488    0.873293
     62          6           0       11.892115   -0.805157   -0.180894
     63          6           0       13.276167   -0.744079    0.400367
     64          6           0       14.169179   -1.963147   -0.054543
     65          6           0       14.887967   -1.622774   -1.437941
     66          6           0       15.229897   -2.275894    0.911107
     67          1           0       -4.513517   -0.000210   -4.323472
     68          1           0       -5.148184   -5.261596   -0.646729
     69          1           0       -3.914586   -1.825665    4.655345
     70          1           0       -3.828262    4.033983   -1.755379
     71          1           0       -3.146357    2.204688   -3.760136
     72          1           0       -6.193564    2.480199   -3.678041
     73          1           0       -4.855845    3.342051   -4.553208
     74          1           0       -5.404503    3.843209   -3.002533
     75          1           0       -1.287377    2.963663   -2.820397
     76          1           0       -1.345101    2.749417   -1.166813
     77          1           0       -2.175507    5.318199   -1.118915
     78          1           0       -1.404067    5.299129   -2.727252
     79          1           0       -5.980479   -3.352098   -5.685307
     80          1           0       -4.485579   -2.563822   -5.906946
     81          1           0       -5.837994   -1.509436   -5.663068
     82          1           0       -6.718725   -6.299850   -2.015067
     83          1           0       -4.991802   -6.795712   -2.132784
     84          1           0       -6.112288   -7.370925   -3.260487
     85          1           0       -3.901526   -5.673342    1.720720
     86          1           0       -5.477849   -4.258834    3.877156
     87          1           0       -6.124584   -6.675918    1.333089
     88          1           0       -6.962451   -5.108652    1.453010
     89          1           0       -6.515245   -6.065495    2.860281
     90          1           0       -2.766840   -4.057822    4.630292
     91          1           0       -2.472633   -4.999322    3.313236
     92          1           0       -3.093135   -5.783464    5.902719
     93          1           0       -2.710331   -6.825959    4.528806
     94          1           0       -4.382828   -6.561326    4.971056
     95          1           0       -3.851264    0.314338    5.916988
     96          1           0       -2.481622    1.446889    5.726506
     97          1           0       -2.185416   -0.269914    5.526757
     98          1           0       -2.242558    4.043519    1.016245
     99          1           0       -5.460947    7.027925    1.652744
    100          1           0       -6.158930    6.225139    0.237530
    101          1           0       -5.022307    7.414723   -0.085490
    102          1           0        2.264083    6.012782   -0.532862
    103          1           0        2.995199    5.474405   -2.059174
    104          1           0        2.511092    2.965060   -1.280315
    105          1           0        5.219007    4.508884    1.402312
    106          1           0        3.595967    4.943861    2.069090
    107          1           0        4.183333    5.674175    0.508306
    108          1           0        3.272703    1.692934    0.633987
    109          1           0        4.695190    2.319541    1.651935
    110          1           0        6.173424    2.093057   -0.129640
    111          1           0        4.990567    2.623577   -1.372705
    112          1           0        4.162529    0.696253   -1.889876
    113          1           0        4.312081   -0.018542   -0.262784
    114          1           0        6.859891    0.706038   -1.558802
    115          1           0        5.392641   -1.358742   -3.226328
    116          1           0        6.980204   -0.771516   -3.399045
    117          1           0        5.744814    0.314577   -3.794564
    118          1           0        6.667206   -2.023001   -1.227244
    119          1           0        6.032493   -1.343908    0.205878
    120          1           0        7.946774    0.009396    0.504313
    121          1           0        8.651192   -0.564925   -1.090244
    122          1           0        7.859557   -2.911741    0.631604
    123          1           0        8.559579   -1.686178    1.621215
    124          1           0       10.146846   -2.379602   -0.774966
    125          1           0       11.064730   -4.019289    1.453527
    126          1           0       10.300356   -4.582231   -0.096800
    127          1           0        9.281702   -4.326265    1.222750
    128          1           0       11.485690   -1.950953    1.652069
    129          1           0       10.427862   -0.589753    1.381600
    130          1           0       11.618508    0.244319   -0.296538
    131          1           0       11.956010   -1.317003   -1.141505
    132          1           0       13.235683   -0.654906    1.485834
    133          1           0       13.751883    0.157611    0.014219
    134          1           0       13.559542   -2.861153   -0.142972
    135          1           0       14.822504   -2.583181   -1.947672
    136          1           0       15.957727   -1.422020   -1.369277
    137          1           0       14.398980   -0.836602   -2.013312
    138          1           0       14.793643   -2.416914    1.899178
    139          1           0       16.026989   -1.532538    0.922302
    140          1           0       15.666547   -3.197928    0.526990
 ---------------------------------------------------------------------

 SCF Done:  E(RB-LYP) =  -3007.36099083     A.U. after   21 cycles

 Excitation energies and oscillator strengths:

 Excited State   1:      Singlet-A      1.8039 eV  687.30 nm  f=0.2670  <S**2>=0.000
     245 -> 248        0.18124
     246 -> 247        0.67546
     246 <- 247       -0.12142
 This state for optimization and/or second-order correction.
 Total Energy, E(TD-HF/TD-DFT) =  -3007.29469753
 Copying the excited state density for this state as the 1-particle RhoCI density.

 Excited State   2:      Singlet-A      1.8568 eV  667.74 nm  f=0.0087  <S**2>=0.000
     244 -> 247        0.65664
     245 -> 247       -0.24860

 Excited State   3:      Singlet-A      1.8904 eV  655.86 nm  f=0.0004  <S**2>=0.000
     243 -> 247        0.70559

 Excited State   4:      Singlet-A      2.0379 eV  608.39 nm  f=0.0570  <S**2>=0.000
     244 -> 247        0.24731
     245 -> 247        0.58883
     246 -> 248       -0.24933
     246 -> 249        0.12363

 Excited State   5:      Singlet-A      2.2715 eV  545.81 nm  f=0.0002  <S**2>=0.000
     242 -> 247        0.70464

 The electronic state is 1-A.
 Alpha  occ. eigenvalues --  -46.28064 -18.81647 -18.81575 -18.77187 -18.76607
 Alpha  occ. eigenvalues --  -18.76361 -18.74850 -14.03726 -14.02952 -14.01959
 Alpha  occ. eigenvalues --  -14.00734 -10.03914 -10.03751 -10.01598  -9.98860
 Alpha  occ. eigenvalues --   -9.97423  -9.97381  -9.97381  -9.97298  -9.97077
 Alpha  occ. eigenvalues --   -9.96561  -9.96560  -9.95753  -9.94673  -9.94609
 Alpha  occ. eigenvalues --   -9.94591  -9.94560  -9.94556  -9.94491  -9.94163
 Alpha  occ. eigenvalues --   -9.93864  -9.93590  -9.93564  -9.93390  -9.93266
 Alpha  occ. eigenvalues --   -9.93222  -9.93151  -9.93083  -9.93077  -9.93025
 Alpha  occ. eigenvalues --   -9.92699  -9.92650  -9.92273  -9.92192  -9.92188
 Alpha  occ. eigenvalues --   -9.92090  -9.92087  -9.91720  -9.91614  -9.91492
 Alpha  occ. eigenvalues --   -9.91350  -9.91295  -9.90958  -9.90940  -9.90906
 Alpha  occ. eigenvalues --   -9.90826  -9.90809  -9.90775  -9.90661  -9.90571
 Alpha  occ. eigenvalues --   -9.90547  -9.90509  -9.90499  -9.90230  -9.90224
 Alpha  occ. eigenvalues --   -9.90139  -2.92589  -1.72992  -1.72506  -1.72281
 Alpha  occ. eigenvalues --   -0.95812  -0.95236  -0.89867  -0.89316  -0.89181
 Alpha  occ. eigenvalues --   -0.87835  -0.86423  -0.85895  -0.85329  -0.84414
 Alpha  occ. eigenvalues --   -0.75994  -0.73847  -0.73170  -0.72569  -0.72183
 Alpha  occ. eigenvalues --   -0.71732  -0.71453  -0.70794  -0.70272  -0.70066
 Alpha  occ. eigenvalues --   -0.69525  -0.69138  -0.68060  -0.67224  -0.66918
 Alpha  occ. eigenvalues --   -0.66600  -0.65982  -0.65214  -0.64809  -0.64153
 Alpha  occ. eigenvalues --   -0.63679  -0.62230  -0.61835  -0.61626  -0.60651
 Alpha  occ. eigenvalues --   -0.60073  -0.59800  -0.59760  -0.59296  -0.58515
 Alpha  occ. eigenvalues --   -0.57930  -0.57437  -0.56866  -0.55546  -0.54674
 Alpha  occ. eigenvalues --   -0.53493  -0.53375  -0.52512  -0.51974  -0.51909
 Alpha  occ. eigenvalues --   -0.51413  -0.51012  -0.50807  -0.50025  -0.49881
 Alpha  occ. eigenvalues --   -0.49198  -0.48710  -0.48303  -0.47718  -0.46219
 Alpha  occ. eigenvalues --   -0.46184  -0.45737  -0.45350  -0.44955  -0.44451
 Alpha  occ. eigenvalues --   -0.44098  -0.43695  -0.43243  -0.42168  -0.41927
 Alpha  occ. eigenvalues --   -0.41652  -0.41331  -0.41169  -0.41076  -0.40910
 Alpha  occ. eigenvalues --   -0.40706  -0.40505  -0.40077  -0.39880  -0.39712
 Alpha  occ. eigenvalues --   -0.39497  -0.39366  -0.39255  -0.39237  -0.38872
 Alpha  occ. eigenvalues --   -0.38720  -0.38501  -0.38384  -0.37926  -0.37770
 Alpha  occ. eigenvalues --   -0.37615  -0.37570  -0.37211  -0.37173  -0.36993
 Alpha  occ. eigenvalues --   -0.36670  -0.36608  -0.36460  -0.36216  -0.36150
 Alpha  occ. eigenvalues --   -0.36101  -0.35926  -0.35650  -0.35473  -0.35249
 Alpha  occ. eigenvalues --   -0.35010  -0.34898  -0.34850  -0.34572  -0.34526
 Alpha  occ. eigenvalues --   -0.34326  -0.34274  -0.33977  -0.33852  -0.33831
 Alpha  occ. eigenvalues --   -0.33581  -0.33466  -0.33217  -0.33178  -0.33124
 Alpha  occ. eigenvalues --   -0.33000  -0.32866  -0.32740  -0.32355  -0.32305
 Alpha  occ. eigenvalues --   -0.32175  -0.31744  -0.31700  -0.31501  -0.31430
 Alpha  occ. eigenvalues --   -0.31304  -0.31179  -0.30891  -0.30765  -0.30530
 Alpha  occ. eigenvalues --   -0.30396  -0.30203  -0.29964  -0.29910  -0.29793
 Alpha  occ. eigenvalues --   -0.29730  -0.29647  -0.29551  -0.29368  -0.29276
 Alpha  occ. eigenvalues --   -0.29127  -0.28936  -0.28516  -0.27908  -0.27801
 Alpha  occ. eigenvalues --   -0.27564  -0.27215  -0.26929  -0.26393  -0.26341
 Alpha  occ. eigenvalues --   -0.26151  -0.25807  -0.25538  -0.25052  -0.24918
 Alpha  occ. eigenvalues --   -0.24759  -0.24406  -0.23717  -0.23662  -0.23489
 Alpha  occ. eigenvalues --   -0.22765  -0.22348  -0.21901  -0.21648  -0.21096
 Alpha  occ. eigenvalues --   -0.20034  -0.19397  -0.18143  -0.17970  -0.17151
 Alpha  occ. eigenvalues --   -0.15804
 Alpha virt. eigenvalues --   -0.11195  -0.07430  -0.06672  -0.04571  -0.03645
 Alpha virt. eigenvalues --   -0.03229  -0.02766  -0.01468  -0.01137  -0.00369
 Alpha virt. eigenvalues --    0.01253   0.01847   0.02331   0.02801   0.03096

 Mulliken charges:
               1
     1  Mg   0.718989
     2  C    0.023659
     3  C   -0.047422
     4  C   -0.035277
     5  C   -0.089643
     6  N   -0.180030
     7  C   -0.088424
     8  C   -0.005074
     9  C   -0.017485
    10  C   -0.011765
    11  C    0.136788
    12  C    0.090999
    13  C    0.159816
    14  C    0.103634
    15  O   -0.184344
    16  O   -0.309508
    17  N   -0.287399
    18  C    0.117149
    19  C   -0.131656
    20  C    0.025196
    21  C    0.118428
    22  C    0.189171
    23  C   -0.041007
    24  O   -0.201836
    25  C    0.151284
    26  N   -0.196256
    27  C   -0.019711
    28  C    0.014508
    29  C    0.105593
    30  C    0.006370
    31  C    0.080591
    32  C    0.049952
    33  C    0.075387
    34  N   -0.289383
    35  C    0.147952
    36  C   -0.222617
    37  C    0.119825
    38  C    0.075503
    39  C    0.196949
    40  C   -0.059337
    41  O   -0.150391
    42  C    0.095105
    43  C    0.138531
    44  O   -0.202589
    45  O   -0.296013
    46  C    0.226506
    47  C    0.339365
    48  C   -0.090418
    49  C   -0.230370
    50  C    0.154237
    51  C    0.173769
    52  C    0.015975
    53  C    0.126732
    54  C   -0.055522
    55  C    0.109001
    56  C    0.066403
    57  C    0.074304
    58  C    0.106488
    59  C   -0.107993
    60  C    0.109577
    61  C    0.112302
    62  C    0.118662
    63  C    0.079904
    64  C   -0.097945
    65  C    0.083348
    66  C    0.124716
    67  H   -0.058593
    68  H   -0.097308
    69  H   -0.066889
    70  H   -0.017686
    71  H   -0.020758
    72  H    0.009931
    73  H   -0.008871
    74  H   -0.021995
    75  H   -0.015305
    76  H   -0.017132
    77  H    0.012660
    78  H   -0.013381
    79  H    0.008141
    80  H   -0.010239
    81  H    0.001662
    82  H    0.021074
    83  H    0.028470
    84  H   -0.011861
    85  H   -0.008403
    86  H   -0.019639
    87  H   -0.006569
    88  H    0.006864
    89  H   -0.009299
    90  H   -0.033247
    91  H   -0.030635
    92  H   -0.005223
    93  H   -0.010073
    94  H   -0.006981
    95  H    0.007726
    96  H    0.004657
    97  H   -0.001358
    98  H   -0.006953
    99  H    0.026796
   100  H    0.004676
   101  H    0.007374
   102  H    0.009553
   103  H   -0.012527
   104  H   -0.048256
   105  H   -0.018230
   106  H    0.028330
   107  H   -0.015763
   108  H   -0.005797
   109  H   -0.028187
   110  H   -0.017140
   111  H   -0.003018
   112  H   -0.048101
   113  H   -0.025593
   114  H   -0.042143
   115  H   -0.017927
   116  H   -0.035610
   117  H   -0.015983
   118  H   -0.052514
   119  H   -0.039955
   120  H   -0.030616
   121  H   -0.011879
   122  H   -0.028814
   123  H   -0.047410
   124  H   -0.039934
   125  H   -0.007489
   126  H   -0.017711
   127  H   -0.023257
   128  H   -0.037147
   129  H   -0.032245
   130  H   -0.040336
   131  H   -0.019404
   132  H   -0.040300
   133  H   -0.051122
   134  H   -0.033004
   135  H   -0.020103
   136  H   -0.012424
   137  H   -0.007839
   138  H   -0.018989
   139  H   -0.017954
   140  H   -0.028054
 Sum of Mulliken charges =  -0.00000

 Dipole moment (field-independent basis, Debye):
    X=              0.4052    Y=             -3.2194    Z=             -1.4910  Tot=              3.5710
 Quadrupole moment (field-independent basis, Debye-Ang):
   XX=           -388.7264   YY=           -397.8007   ZZ=           -419.3026
   XY=              9.2631   XZ=             -4.0933   YZ=            -51.6153

 Normal termination of Gaussian 16 at Sat Apr 30 15:42:41 2022.
