 Gaussian 16, Revision A.03,
 Gaussian 16:  ES64L-G16RevA.03 25-Dec-2016

 -----------------------------------
 #p cam-b3lyp/Def2SVP td=(nstates=5)
 -----------------------------------

 ------------------------------------------------------
 step_751_chromophore_8 TDDFT with cam-b3lyp functional
 ------------------------------------------------------
 Symbolic Z-matrix:
 Charge =  0 Multiplicity = 1

                         Standard orientation:
 ---------------------------------------------------------------------
 Center     Atomic      Atomic             Coordinates (Angstroms)
 Number     Number       Type             X           Y           Z
 ---------------------------------------------------------------------
      1         12           0       -4.755510   -0.924859    0.178813
      2          6           0       -3.515298    2.325162    0.739862
      3          6           0       -4.639885   -0.261882   -3.270464
      4          6           0       -4.900307   -4.209899   -0.488083
      5          6           0       -4.103637   -1.616810    3.600249
      6          7           0       -4.067163    0.823351   -1.099024
      7          6           0       -3.667492    2.072226   -0.615748
      8          6           0       -3.322693    3.069294   -1.781263
      9          6           0       -3.942008    2.292527   -3.020513
     10          6           0       -4.232899    0.877378   -2.418075
     11          6           0       -5.214029    2.952114   -3.599500
     12          6           0       -1.764334    3.393754   -1.940445
     13          6           0       -1.381484    4.878736   -1.721934
     14          6           0       -0.100571    5.123087   -1.041677
     15          8           0       -0.036842    5.247004    0.185268
     16          8           0        1.006351    5.045197   -1.945473
     17          7           0       -5.016263   -2.035193   -1.590066
     18          6           0       -4.957046   -1.617230   -2.908475
     19          6           0       -5.164460   -2.722928   -3.863459
     20          6           0       -5.253834   -3.854992   -3.086256
     21          6           0       -5.042916   -3.402831   -1.640613
     22          6           0       -5.424999   -2.471485   -5.360767
     23          6           0       -5.662065   -5.311662   -3.585085
     24          8           0       -5.804088   -5.488217   -4.840422
     25          6           0       -5.875844   -6.475915   -2.684378
     26          7           0       -4.482354   -2.686970    1.495799
     27          6           0       -4.650049   -3.900095    0.939121
     28          6           0       -4.706966   -4.984645    1.974408
     29          6           0       -4.552335   -4.206733    3.302088
     30          6           0       -4.345770   -2.710871    2.847416
     31          6           0       -6.177292   -5.733639    1.878231
     32          6           0       -3.277753   -4.804962    4.022365
     33          6           0       -3.408842   -6.077041    4.901576
     34          7           0       -4.116395    0.107525    1.803876
     35          6           0       -3.923428   -0.284323    3.130485
     36          6           0       -3.298514    0.695044    3.925610
     37          6           0       -3.233247    1.815554    3.046960
     38          6           0       -3.621766    1.396887    1.748079
     39          6           0       -2.926085    0.515517    5.376713
     40          6           0       -2.851559    3.211319    2.927754
     41          8           0       -2.450966    4.037876    3.767990
     42          6           0       -3.143532    3.580955    1.418560
     43          6           0       -4.324197    4.479211    1.403627
     44          8           0       -5.452306    4.210700    1.851921
     45          8           0       -4.085839    5.698126    0.707451
     46          6           0       -5.244457    6.645498    0.654842
     47          6           0        2.303357    5.203296   -1.261543
     48          6           0        2.792132    3.883475   -0.764913
     49          6           0        3.659959    3.687667    0.267855
     50          6           0        4.197476    4.807569    1.169698
     51          6           0        4.169724    2.310771    0.696788
     52          6           0        5.144851    2.016175   -0.481055
     53          6           0        4.811465    0.583527   -1.021393
     54          6           0        6.074534   -0.049556   -1.588613
     55          6           0        5.989407   -0.460519   -3.067726
     56          6           0        6.658415   -1.097709   -0.651579
     57          6           0        8.055393   -0.806494   -0.210290
     58          6           0        8.546053   -2.065806    0.600195
     59          6           0        9.972446   -2.435272    0.299065
     60          6           0       10.206556   -3.948815    0.785132
     61          6           0       10.984556   -1.377488    0.873293
     62          6           0       11.892115   -0.805157   -0.180894
     63          6           0       13.276167   -0.744079    0.400367
     64          6           0       14.169179   -1.963147   -0.054543
     65          6           0       14.887967   -1.622774   -1.437941
     66          6           0       15.229897   -2.275894    0.911107
     67          1           0       -4.513517   -0.000210   -4.323472
     68          1           0       -5.148184   -5.261596   -0.646729
     69          1           0       -3.914586   -1.825665    4.655345
     70          1           0       -3.828262    4.033983   -1.755379
     71          1           0       -3.146357    2.204688   -3.760136
     72          1           0       -6.193564    2.480199   -3.678041
     73          1           0       -4.855845    3.342051   -4.553208
     74          1           0       -5.404503    3.843209   -3.002533
     75          1           0       -1.287377    2.963663   -2.820397
     76          1           0       -1.345101    2.749417   -1.166813
     77          1           0       -2.175507    5.318199   -1.118915
     78          1           0       -1.404067    5.299129   -2.727252
     79          1           0       -5.980479   -3.352098   -5.685307
     80          1           0       -4.485579   -2.563822   -5.906946
     81          1           0       -5.837994   -1.509436   -5.663068
     82          1           0       -6.718725   -6.299850   -2.015067
     83          1           0       -4.991802   -6.795712   -2.132784
     84          1           0       -6.112288   -7.370925   -3.260487
     85          1           0       -3.901526   -5.673342    1.720720
     86          1           0       -5.477849   -4.258834    3.877156
     87          1           0       -6.124584   -6.675918    1.333089
     88          1           0       -6.962451   -5.108652    1.453010
     89          1           0       -6.515245   -6.065495    2.860281
     90          1           0       -2.766840   -4.057822    4.630292
     91          1           0       -2.472633   -4.999322    3.313236
     92          1           0       -3.093135   -5.783464    5.902719
     93          1           0       -2.710331   -6.825959    4.528806
     94          1           0       -4.382828   -6.561326    4.971056
     95          1           0       -3.851264    0.314338    5.916988
     96          1           0       -2.481622    1.446889    5.726506
     97          1           0       -2.185416   -0.269914    5.526757
     98          1           0       -2.242558    4.043519    1.016245
     99          1           0       -5.460947    7.027925    1.652744
    100          1           0       -6.158930    6.225139    0.237530
    101          1           0       -5.022307    7.414723   -0.085490
    102          1           0        2.264083    6.012782   -0.532862
    103          1           0        2.995199    5.474405   -2.059174
    104          1           0        2.511092    2.965060   -1.280315
    105          1           0        5.219007    4.508884    1.402312
    106          1           0        3.595967    4.943861    2.069090
    107          1           0        4.183333    5.674175    0.508306
    108          1           0        3.272703    1.692934    0.633987
    109          1           0        4.695190    2.319541    1.651935
    110          1           0        6.173424    2.093057   -0.129640
    111          1           0        4.990567    2.623577   -1.372705
    112          1           0        4.162529    0.696253   -1.889876
    113          1           0        4.312081   -0.018542   -0.262784
    114          1           0        6.859891    0.706038   -1.558802
    115          1           0        5.392641   -1.358742   -3.226328
    116          1           0        6.980204   -0.771516   -3.399045
    117          1           0        5.744814    0.314577   -3.794564
    118          1           0        6.667206   -2.023001   -1.227244
    119          1           0        6.032493   -1.343908    0.205878
    120          1           0        7.946774    0.009396    0.504313
    121          1           0        8.651192   -0.564925   -1.090244
    122          1           0        7.859557   -2.911741    0.631604
    123          1           0        8.559579   -1.686178    1.621215
    124          1           0       10.146846   -2.379602   -0.774966
    125          1           0       11.064730   -4.019289    1.453527
    126          1           0       10.300356   -4.582231   -0.096800
    127          1           0        9.281702   -4.326265    1.222750
    128          1           0       11.485690   -1.950953    1.652069
    129          1           0       10.427862   -0.589753    1.381600
    130          1           0       11.618508    0.244319   -0.296538
    131          1           0       11.956010   -1.317003   -1.141505
    132          1           0       13.235683   -0.654906    1.485834
    133          1           0       13.751883    0.157611    0.014219
    134          1           0       13.559542   -2.861153   -0.142972
    135          1           0       14.822504   -2.583181   -1.947672
    136          1           0       15.957727   -1.422020   -1.369277
    137          1           0       14.398980   -0.836602   -2.013312
    138          1           0       14.793643   -2.416914    1.899178
    139          1           0       16.026989   -1.532538    0.922302
    140          1           0       15.666547   -3.197928    0.526990
 ---------------------------------------------------------------------

 SCF Done:  E(RCAM-B3LYP) =  -3007.14340215     A.U. after   17 cycles

 Excitation energies and oscillator strengths:

 Excited State   1:      Singlet-A      1.9542 eV  634.44 nm  f=0.3369  <S**2>=0.000
     245 -> 248        0.17502
     246 -> 247        0.68285
 This state for optimization and/or second-order correction.
 Total Energy, E(TD-HF/TD-DFT) =  -3007.07158585
 Copying the excited state density for this state as the 1-particle RhoCI density.

 Excited State   2:      Singlet-A      2.3469 eV  528.28 nm  f=0.0681  <S**2>=0.000
     245 -> 247        0.61233
     246 -> 248       -0.33078

 Excited State   3:      Singlet-A      3.4682 eV  357.48 nm  f=0.5953  <S**2>=0.000
     240 -> 247       -0.17042
     241 -> 247        0.14455
     245 -> 247        0.30541
     246 -> 248        0.57927

 Excited State   4:      Singlet-A      3.5512 eV  349.14 nm  f=0.0584  <S**2>=0.000
     239 -> 247        0.31461
     239 -> 248       -0.12727
     239 -> 249       -0.31066
     239 -> 251        0.11158
     240 -> 247        0.32174
     240 -> 248       -0.10229
     240 -> 249       -0.25907
     246 -> 248        0.15168

 Excited State   5:      Singlet-A      3.6032 eV  344.10 nm  f=0.0237  <S**2>=0.000
     242 -> 247       -0.34728
     242 -> 249       -0.19903
     242 -> 251       -0.25140
     243 -> 247        0.46304
     243 -> 249        0.10923

 The electronic state is 1-A.
 Alpha  occ. eigenvalues --  -46.89638 -19.24443 -19.24332 -19.20481 -19.20119
 Alpha  occ. eigenvalues --  -19.19241 -19.17252 -14.42712 -14.41749 -14.40727
 Alpha  occ. eigenvalues --  -14.38725 -10.39225 -10.39103 -10.37548 -10.33611
 Alpha  occ. eigenvalues --  -10.32563 -10.32493 -10.32489 -10.31915 -10.31355
 Alpha  occ. eigenvalues --  -10.31260 -10.30563 -10.30104 -10.29569 -10.29485
 Alpha  occ. eigenvalues --  -10.28806 -10.28759 -10.28743 -10.28347 -10.28015
 Alpha  occ. eigenvalues --  -10.27832 -10.27681 -10.27506 -10.27425 -10.27396
 Alpha  occ. eigenvalues --  -10.27378 -10.27151 -10.27129 -10.26893 -10.26694
 Alpha  occ. eigenvalues --  -10.26687 -10.26586 -10.26195 -10.25951 -10.25878
 Alpha  occ. eigenvalues --  -10.25762 -10.25400 -10.25193 -10.25157 -10.25048
 Alpha  occ. eigenvalues --  -10.25001 -10.24907 -10.24548 -10.24531 -10.24510
 Alpha  occ. eigenvalues --  -10.24431 -10.24370 -10.24345 -10.24270 -10.24110
 Alpha  occ. eigenvalues --  -10.24109 -10.24070 -10.24025 -10.23842 -10.23749
 Alpha  occ. eigenvalues --  -10.23691  -3.18057  -1.92939  -1.92530  -1.92343
 Alpha  occ. eigenvalues --   -1.14132  -1.13501  -1.08772  -1.07043  -1.06839
 Alpha  occ. eigenvalues --   -1.05453  -1.04274  -1.03694  -1.03256  -1.01367
 Alpha  occ. eigenvalues --   -0.92777  -0.90672  -0.89950  -0.89308  -0.88875
 Alpha  occ. eigenvalues --   -0.88427  -0.88257  -0.87346  -0.87270  -0.86682
 Alpha  occ. eigenvalues --   -0.85856  -0.85388  -0.84283  -0.83750  -0.82906
 Alpha  occ. eigenvalues --   -0.82745  -0.82147  -0.81052  -0.80575  -0.79914
 Alpha  occ. eigenvalues --   -0.79324  -0.77933  -0.77685  -0.77128  -0.75860
 Alpha  occ. eigenvalues --   -0.75302  -0.75068  -0.75052  -0.74542  -0.73679
 Alpha  occ. eigenvalues --   -0.72821  -0.72356  -0.71825  -0.70354  -0.69247
 Alpha  occ. eigenvalues --   -0.68201  -0.67863  -0.66932  -0.66316  -0.65965
 Alpha  occ. eigenvalues --   -0.65604  -0.65190  -0.64915  -0.63932  -0.63893
 Alpha  occ. eigenvalues --   -0.63121  -0.62368  -0.62143  -0.61202  -0.60216
 Alpha  occ. eigenvalues --   -0.59920  -0.59194  -0.58777  -0.58318  -0.57800
 Alpha  occ. eigenvalues --   -0.57363  -0.56978  -0.56581  -0.55098  -0.54664
 Alpha  occ. eigenvalues --   -0.54647  -0.54240  -0.53917  -0.53840  -0.53683
 Alpha  occ. eigenvalues --   -0.53305  -0.53147  -0.53027  -0.52684  -0.52465
 Alpha  occ. eigenvalues --   -0.52238  -0.52133  -0.51745  -0.51689  -0.51549
 Alpha  occ. eigenvalues --   -0.51331  -0.50855  -0.50753  -0.50446  -0.50196
 Alpha  occ. eigenvalues --   -0.50098  -0.49924  -0.49798  -0.49517  -0.49412
 Alpha  occ. eigenvalues --   -0.48900  -0.48827  -0.48700  -0.48345  -0.48270
 Alpha  occ. eigenvalues --   -0.48152  -0.47993  -0.47880  -0.47782  -0.47471
 Alpha  occ. eigenvalues --   -0.47124  -0.47045  -0.46729  -0.46674  -0.46491
 Alpha  occ. eigenvalues --   -0.46332  -0.46092  -0.46012  -0.45763  -0.45481
 Alpha  occ. eigenvalues --   -0.45322  -0.45042  -0.45005  -0.44903  -0.44631
 Alpha  occ. eigenvalues --   -0.44544  -0.44366  -0.44321  -0.43911  -0.43739
 Alpha  occ. eigenvalues --   -0.43728  -0.43249  -0.43188  -0.43023  -0.42882
 Alpha  occ. eigenvalues --   -0.42757  -0.42575  -0.42490  -0.42285  -0.42088
 Alpha  occ. eigenvalues --   -0.41914  -0.41536  -0.41486  -0.41288  -0.41043
 Alpha  occ. eigenvalues --   -0.41027  -0.40911  -0.40727  -0.40649  -0.40517
 Alpha  occ. eigenvalues --   -0.40284  -0.39943  -0.39461  -0.38953  -0.38745
 Alpha  occ. eigenvalues --   -0.38426  -0.38377  -0.37844  -0.37156  -0.37087
 Alpha  occ. eigenvalues --   -0.36741  -0.36610  -0.36573  -0.36135  -0.35704
 Alpha  occ. eigenvalues --   -0.35449  -0.35347  -0.34408  -0.34148  -0.33944
 Alpha  occ. eigenvalues --   -0.33653  -0.33033  -0.32925  -0.32700  -0.31925
 Alpha  occ. eigenvalues --   -0.30733  -0.29376  -0.28577  -0.27608  -0.24157
 Alpha  occ. eigenvalues --   -0.21304
 Alpha virt. eigenvalues --   -0.07790  -0.02173  -0.00380   0.01734   0.02620
 Alpha virt. eigenvalues --    0.04332   0.05231   0.05682   0.06355   0.06788
 Alpha virt. eigenvalues --    0.07249   0.08135   0.09060   0.09125   0.09342

 Mulliken charges:
               1
     1  Mg   0.847257
     2  C   -0.007738
     3  C   -0.069117
     4  C   -0.071985
     5  C   -0.093042
     6  N   -0.246626
     7  C   -0.056458
     8  C   -0.042411
     9  C   -0.068323
    10  C    0.017821
    11  C    0.072945
    12  C    0.041076
    13  C    0.081212
    14  C    0.186883
    15  O   -0.223233
    16  O   -0.374783
    17  N   -0.378848
    18  C    0.133264
    19  C   -0.127856
    20  C   -0.035564
    21  C    0.155987
    22  C    0.128795
    23  C    0.038767
    24  O   -0.239115
    25  C    0.060942
    26  N   -0.267635
    27  C    0.025523
    28  C   -0.048699
    29  C    0.047982
    30  C    0.018518
    31  C    0.025575
    32  C   -0.003882
    33  C    0.014704
    34  N   -0.376868
    35  C    0.148473
    36  C   -0.220192
    37  C    0.039510
    38  C    0.105915
    39  C    0.139076
    40  C    0.037877
    41  O   -0.195840
    42  C    0.011165
    43  C    0.234104
    44  O   -0.238611
    45  O   -0.362904
    46  C    0.187815
    47  C    0.301212
    48  C   -0.115558
    49  C   -0.244942
    50  C    0.096528
    51  C    0.104252
    52  C   -0.031295
    53  C    0.071260
    54  C   -0.115840
    55  C    0.053162
    56  C    0.016504
    57  C    0.022010
    58  C    0.051062
    59  C   -0.158630
    60  C    0.053466
    61  C    0.059384
    62  C    0.057590
    63  C    0.023263
    64  C   -0.153010
    65  C    0.022483
    66  C    0.064308
    67  H   -0.022976
    68  H   -0.063035
    69  H   -0.030757
    70  H    0.014727
    71  H    0.014518
    72  H    0.036767
    73  H    0.016433
    74  H    0.005060
    75  H    0.014140
    76  H    0.015977
    77  H    0.044733
    78  H    0.020818
    79  H    0.041622
    80  H    0.021871
    81  H    0.031025
    82  H    0.049203
    83  H    0.057047
    84  H    0.027602
    85  H    0.025855
    86  H    0.014814
    87  H    0.015754
    88  H    0.031827
    89  H    0.016593
    90  H   -0.002746
    91  H   -0.002189
    92  H    0.018800
    93  H    0.012589
    94  H    0.014138
    95  H    0.029626
    96  H    0.030982
    97  H    0.020393
    98  H    0.037522
    99  H    0.049752
   100  H    0.027128
   101  H    0.029378
   102  H    0.039600
   103  H    0.017303
   104  H   -0.014598
   105  H    0.004866
   106  H    0.054028
   107  H    0.005715
   108  H    0.025685
   109  H    0.004342
   110  H    0.007755
   111  H    0.025142
   112  H   -0.018574
   113  H    0.002422
   114  H   -0.009151
   115  H    0.005522
   116  H   -0.011160
   117  H    0.008537
   118  H   -0.022787
   119  H   -0.010390
   120  H   -0.004112
   121  H    0.011969
   122  H   -0.000325
   123  H   -0.017633
   124  H   -0.009379
   125  H    0.013932
   126  H    0.006303
   127  H    0.001187
   128  H   -0.010234
   129  H   -0.002812
   130  H   -0.008696
   131  H    0.007123
   132  H   -0.010525
   133  H   -0.020205
   134  H   -0.004262
   135  H    0.004177
   136  H    0.012101
   137  H    0.015104
   138  H    0.004964
   139  H    0.005769
   140  H   -0.002358
 Sum of Mulliken charges =  -0.00000

 Dipole moment (field-independent basis, Debye):
    X=             -0.2160    Y=             -4.4233    Z=             -3.1316  Tot=              5.4240
 Quadrupole moment (field-independent basis, Debye-Ang):
   XX=           -384.3386   YY=           -391.6783   ZZ=           -418.2949
   XY=             14.9835   XZ=              3.3807   YZ=            -52.1506

 Normal termination of Gaussian 16 at Sat Apr 30 14:26:30 2022.
