 Gaussian 16, Revision A.03,
 Gaussian 16:  ES64L-G16RevA.03 25-Dec-2016

 ---------------------------------
 #p PBE1PBE/Def2SVP td=(nstates=5)
 ---------------------------------

 ----------------------------------------------------
 step_751_chromophore_8 TDDFT with PBE1PBE functional
 ----------------------------------------------------
 Symbolic Z-matrix:
 Charge =  0 Multiplicity = 1

                         Standard orientation:
 ---------------------------------------------------------------------
 Center     Atomic      Atomic             Coordinates (Angstroms)
 Number     Number       Type             X           Y           Z
 ---------------------------------------------------------------------
      1         12           0       -4.755510   -0.924859    0.178813
      2          6           0       -3.515298    2.325162    0.739862
      3          6           0       -4.639885   -0.261882   -3.270464
      4          6           0       -4.900307   -4.209899   -0.488083
      5          6           0       -4.103637   -1.616810    3.600249
      6          7           0       -4.067163    0.823351   -1.099024
      7          6           0       -3.667492    2.072226   -0.615748
      8          6           0       -3.322693    3.069294   -1.781263
      9          6           0       -3.942008    2.292527   -3.020513
     10          6           0       -4.232899    0.877378   -2.418075
     11          6           0       -5.214029    2.952114   -3.599500
     12          6           0       -1.764334    3.393754   -1.940445
     13          6           0       -1.381484    4.878736   -1.721934
     14          6           0       -0.100571    5.123087   -1.041677
     15          8           0       -0.036842    5.247004    0.185268
     16          8           0        1.006351    5.045197   -1.945473
     17          7           0       -5.016263   -2.035193   -1.590066
     18          6           0       -4.957046   -1.617230   -2.908475
     19          6           0       -5.164460   -2.722928   -3.863459
     20          6           0       -5.253834   -3.854992   -3.086256
     21          6           0       -5.042916   -3.402831   -1.640613
     22          6           0       -5.424999   -2.471485   -5.360767
     23          6           0       -5.662065   -5.311662   -3.585085
     24          8           0       -5.804088   -5.488217   -4.840422
     25          6           0       -5.875844   -6.475915   -2.684378
     26          7           0       -4.482354   -2.686970    1.495799
     27          6           0       -4.650049   -3.900095    0.939121
     28          6           0       -4.706966   -4.984645    1.974408
     29          6           0       -4.552335   -4.206733    3.302088
     30          6           0       -4.345770   -2.710871    2.847416
     31          6           0       -6.177292   -5.733639    1.878231
     32          6           0       -3.277753   -4.804962    4.022365
     33          6           0       -3.408842   -6.077041    4.901576
     34          7           0       -4.116395    0.107525    1.803876
     35          6           0       -3.923428   -0.284323    3.130485
     36          6           0       -3.298514    0.695044    3.925610
     37          6           0       -3.233247    1.815554    3.046960
     38          6           0       -3.621766    1.396887    1.748079
     39          6           0       -2.926085    0.515517    5.376713
     40          6           0       -2.851559    3.211319    2.927754
     41          8           0       -2.450966    4.037876    3.767990
     42          6           0       -3.143532    3.580955    1.418560
     43          6           0       -4.324197    4.479211    1.403627
     44          8           0       -5.452306    4.210700    1.851921
     45          8           0       -4.085839    5.698126    0.707451
     46          6           0       -5.244457    6.645498    0.654842
     47          6           0        2.303357    5.203296   -1.261543
     48          6           0        2.792132    3.883475   -0.764913
     49          6           0        3.659959    3.687667    0.267855
     50          6           0        4.197476    4.807569    1.169698
     51          6           0        4.169724    2.310771    0.696788
     52          6           0        5.144851    2.016175   -0.481055
     53          6           0        4.811465    0.583527   -1.021393
     54          6           0        6.074534   -0.049556   -1.588613
     55          6           0        5.989407   -0.460519   -3.067726
     56          6           0        6.658415   -1.097709   -0.651579
     57          6           0        8.055393   -0.806494   -0.210290
     58          6           0        8.546053   -2.065806    0.600195
     59          6           0        9.972446   -2.435272    0.299065
     60          6           0       10.206556   -3.948815    0.785132
     61          6           0       10.984556   -1.377488    0.873293
     62          6           0       11.892115   -0.805157   -0.180894
     63          6           0       13.276167   -0.744079    0.400367
     64          6           0       14.169179   -1.963147   -0.054543
     65          6           0       14.887967   -1.622774   -1.437941
     66          6           0       15.229897   -2.275894    0.911107
     67          1           0       -4.513517   -0.000210   -4.323472
     68          1           0       -5.148184   -5.261596   -0.646729
     69          1           0       -3.914586   -1.825665    4.655345
     70          1           0       -3.828262    4.033983   -1.755379
     71          1           0       -3.146357    2.204688   -3.760136
     72          1           0       -6.193564    2.480199   -3.678041
     73          1           0       -4.855845    3.342051   -4.553208
     74          1           0       -5.404503    3.843209   -3.002533
     75          1           0       -1.287377    2.963663   -2.820397
     76          1           0       -1.345101    2.749417   -1.166813
     77          1           0       -2.175507    5.318199   -1.118915
     78          1           0       -1.404067    5.299129   -2.727252
     79          1           0       -5.980479   -3.352098   -5.685307
     80          1           0       -4.485579   -2.563822   -5.906946
     81          1           0       -5.837994   -1.509436   -5.663068
     82          1           0       -6.718725   -6.299850   -2.015067
     83          1           0       -4.991802   -6.795712   -2.132784
     84          1           0       -6.112288   -7.370925   -3.260487
     85          1           0       -3.901526   -5.673342    1.720720
     86          1           0       -5.477849   -4.258834    3.877156
     87          1           0       -6.124584   -6.675918    1.333089
     88          1           0       -6.962451   -5.108652    1.453010
     89          1           0       -6.515245   -6.065495    2.860281
     90          1           0       -2.766840   -4.057822    4.630292
     91          1           0       -2.472633   -4.999322    3.313236
     92          1           0       -3.093135   -5.783464    5.902719
     93          1           0       -2.710331   -6.825959    4.528806
     94          1           0       -4.382828   -6.561326    4.971056
     95          1           0       -3.851264    0.314338    5.916988
     96          1           0       -2.481622    1.446889    5.726506
     97          1           0       -2.185416   -0.269914    5.526757
     98          1           0       -2.242558    4.043519    1.016245
     99          1           0       -5.460947    7.027925    1.652744
    100          1           0       -6.158930    6.225139    0.237530
    101          1           0       -5.022307    7.414723   -0.085490
    102          1           0        2.264083    6.012782   -0.532862
    103          1           0        2.995199    5.474405   -2.059174
    104          1           0        2.511092    2.965060   -1.280315
    105          1           0        5.219007    4.508884    1.402312
    106          1           0        3.595967    4.943861    2.069090
    107          1           0        4.183333    5.674175    0.508306
    108          1           0        3.272703    1.692934    0.633987
    109          1           0        4.695190    2.319541    1.651935
    110          1           0        6.173424    2.093057   -0.129640
    111          1           0        4.990567    2.623577   -1.372705
    112          1           0        4.162529    0.696253   -1.889876
    113          1           0        4.312081   -0.018542   -0.262784
    114          1           0        6.859891    0.706038   -1.558802
    115          1           0        5.392641   -1.358742   -3.226328
    116          1           0        6.980204   -0.771516   -3.399045
    117          1           0        5.744814    0.314577   -3.794564
    118          1           0        6.667206   -2.023001   -1.227244
    119          1           0        6.032493   -1.343908    0.205878
    120          1           0        7.946774    0.009396    0.504313
    121          1           0        8.651192   -0.564925   -1.090244
    122          1           0        7.859557   -2.911741    0.631604
    123          1           0        8.559579   -1.686178    1.621215
    124          1           0       10.146846   -2.379602   -0.774966
    125          1           0       11.064730   -4.019289    1.453527
    126          1           0       10.300356   -4.582231   -0.096800
    127          1           0        9.281702   -4.326265    1.222750
    128          1           0       11.485690   -1.950953    1.652069
    129          1           0       10.427862   -0.589753    1.381600
    130          1           0       11.618508    0.244319   -0.296538
    131          1           0       11.956010   -1.317003   -1.141505
    132          1           0       13.235683   -0.654906    1.485834
    133          1           0       13.751883    0.157611    0.014219
    134          1           0       13.559542   -2.861153   -0.142972
    135          1           0       14.822504   -2.583181   -1.947672
    136          1           0       15.957727   -1.422020   -1.369277
    137          1           0       14.398980   -0.836602   -2.013312
    138          1           0       14.793643   -2.416914    1.899178
    139          1           0       16.026989   -1.532538    0.922302
    140          1           0       15.666547   -3.197928    0.526990
 ---------------------------------------------------------------------

 SCF Done:  E(RPBE1PBE) =  -3005.32926667     A.U. after   16 cycles

 Excitation energies and oscillator strengths:

 Excited State   1:      Singlet-A      1.9311 eV  642.04 nm  f=0.3271  <S**2>=0.000
     245 -> 248        0.17932
     246 -> 247        0.68668
 This state for optimization and/or second-order correction.
 Total Energy, E(TD-HF/TD-DFT) =  -3005.25830016
 Copying the excited state density for this state as the 1-particle RhoCI density.

 Excited State   2:      Singlet-A      2.2979 eV  539.55 nm  f=0.0734  <S**2>=0.000
     245 -> 247        0.63143
     246 -> 248       -0.30136

 Excited State   3:      Singlet-A      2.9825 eV  415.70 nm  f=0.0000  <S**2>=0.000
     244 -> 247        0.70303

 Excited State   4:      Singlet-A      2.9948 eV  414.00 nm  f=0.0002  <S**2>=0.000
     242 -> 247        0.15730
     243 -> 247        0.65007
     243 -> 249        0.13090
     243 -> 250       -0.10588

 Excited State   5:      Singlet-A      3.1638 eV  391.88 nm  f=0.0024  <S**2>=0.000
     242 -> 247        0.66423
     243 -> 247       -0.18000

 The electronic state is 1-A.
 Alpha  occ. eigenvalues --  -46.93061 -19.25192 -19.25082 -19.20423 -19.20377
 Alpha  occ. eigenvalues --  -19.19595 -19.17961 -14.42169 -14.41267 -14.40214
 Alpha  occ. eigenvalues --  -14.38679 -10.36300 -10.36267 -10.34397 -10.31164
 Alpha  occ. eigenvalues --  -10.29875 -10.29818 -10.29624 -10.29028 -10.28783
 Alpha  occ. eigenvalues --  -10.28674 -10.28562 -10.27614 -10.27193 -10.26723
 Alpha  occ. eigenvalues --  -10.26675 -10.26507 -10.26463 -10.26256 -10.26171
 Alpha  occ. eigenvalues --  -10.25562 -10.25556 -10.25170 -10.25152 -10.25006
 Alpha  occ. eigenvalues --  -10.24960 -10.24821 -10.24754 -10.24454 -10.24398
 Alpha  occ. eigenvalues --  -10.24314 -10.23967 -10.23902 -10.23790 -10.23702
 Alpha  occ. eigenvalues --  -10.23223 -10.23054 -10.22987 -10.22801 -10.22724
 Alpha  occ. eigenvalues --  -10.22537 -10.22441 -10.22312 -10.22139 -10.22077
 Alpha  occ. eigenvalues --  -10.21969 -10.21941 -10.21941 -10.21837 -10.21763
 Alpha  occ. eigenvalues --  -10.21693 -10.21669 -10.21629 -10.21401 -10.21232
 Alpha  occ. eigenvalues --  -10.21099  -3.15061  -1.87881  -1.87451  -1.87270
 Alpha  occ. eigenvalues --   -1.08939  -1.08333  -1.03133  -1.01970  -1.01946
 Alpha  occ. eigenvalues --   -1.00389  -0.98766  -0.98219  -0.97709  -0.96403
 Alpha  occ. eigenvalues --   -0.87407  -0.84789  -0.84068  -0.83526  -0.83026
 Alpha  occ. eigenvalues --   -0.82661  -0.82434  -0.81474  -0.81358  -0.80927
 Alpha  occ. eigenvalues --   -0.80271  -0.79830  -0.78448  -0.77785  -0.77259
 Alpha  occ. eigenvalues --   -0.76900  -0.76385  -0.75366  -0.74871  -0.74246
 Alpha  occ. eigenvalues --   -0.73554  -0.72088  -0.71872  -0.71412  -0.70273
 Alpha  occ. eigenvalues --   -0.69684  -0.69221  -0.69144  -0.68676  -0.67881
 Alpha  occ. eigenvalues --   -0.67309  -0.66759  -0.66252  -0.64648  -0.63606
 Alpha  occ. eigenvalues --   -0.62576  -0.62096  -0.61468  -0.60511  -0.60409
 Alpha  occ. eigenvalues --   -0.60015  -0.59447  -0.59394  -0.58538  -0.58007
 Alpha  occ. eigenvalues --   -0.57270  -0.56919  -0.56347  -0.55895  -0.54547
 Alpha  occ. eigenvalues --   -0.54353  -0.53814  -0.53196  -0.52844  -0.52403
 Alpha  occ. eigenvalues --   -0.52080  -0.51537  -0.51092  -0.49827  -0.49237
 Alpha  occ. eigenvalues --   -0.49035  -0.48881  -0.48445  -0.48324  -0.48122
 Alpha  occ. eigenvalues --   -0.47783  -0.47682  -0.47376  -0.47123  -0.46999
 Alpha  occ. eigenvalues --   -0.46852  -0.46615  -0.46289  -0.46219  -0.46199
 Alpha  occ. eigenvalues --   -0.45892  -0.45531  -0.45394  -0.44831  -0.44660
 Alpha  occ. eigenvalues --   -0.44504  -0.44403  -0.44338  -0.44211  -0.44011
 Alpha  occ. eigenvalues --   -0.43629  -0.43486  -0.43296  -0.43113  -0.42880
 Alpha  occ. eigenvalues --   -0.42740  -0.42696  -0.42497  -0.42307  -0.42091
 Alpha  occ. eigenvalues --   -0.41863  -0.41640  -0.41347  -0.41300  -0.41198
 Alpha  occ. eigenvalues --   -0.40909  -0.40761  -0.40595  -0.40487  -0.40240
 Alpha  occ. eigenvalues --   -0.40047  -0.39777  -0.39657  -0.39644  -0.39578
 Alpha  occ. eigenvalues --   -0.39213  -0.39186  -0.39027  -0.38773  -0.38589
 Alpha  occ. eigenvalues --   -0.38419  -0.38126  -0.38043  -0.37877  -0.37754
 Alpha  occ. eigenvalues --   -0.37498  -0.37369  -0.37314  -0.36997  -0.36847
 Alpha  occ. eigenvalues --   -0.36686  -0.36330  -0.36283  -0.36192  -0.35952
 Alpha  occ. eigenvalues --   -0.35833  -0.35738  -0.35723  -0.35503  -0.35408
 Alpha  occ. eigenvalues --   -0.35282  -0.34768  -0.34200  -0.33923  -0.33515
 Alpha  occ. eigenvalues --   -0.33387  -0.33213  -0.32797  -0.31983  -0.31913
 Alpha  occ. eigenvalues --   -0.31803  -0.31646  -0.31438  -0.31038  -0.30736
 Alpha  occ. eigenvalues --   -0.30363  -0.30266  -0.29686  -0.29087  -0.28773
 Alpha  occ. eigenvalues --   -0.28706  -0.28393  -0.28018  -0.27556  -0.26722
 Alpha  occ. eigenvalues --   -0.26287  -0.24806  -0.24509  -0.22910  -0.20916
 Alpha  occ. eigenvalues --   -0.18778
 Alpha virt. eigenvalues --   -0.10580  -0.05735  -0.04493  -0.01949  -0.00996
 Alpha virt. eigenvalues --   -0.00335   0.00428   0.01366   0.01912   0.02641
 Alpha virt. eigenvalues --    0.03769   0.04953   0.05149   0.05813   0.05958

 Mulliken charges:
               1
     1  Mg   0.988860
     2  C   -0.046871
     3  C   -0.057077
     4  C   -0.065842
     5  C   -0.089404
     6  N   -0.347384
     7  C    0.021152
     8  C   -0.103403
     9  C   -0.144042
    10  C    0.056429
    11  C    0.017548
    12  C    0.000174
    13  C   -0.006950
    14  C    0.252068
    15  O   -0.254660
    16  O   -0.402789
    17  N   -0.485079
    18  C    0.143035
    19  C   -0.149747
    20  C   -0.075664
    21  C    0.169029
    22  C    0.068144
    23  C    0.083205
    24  O   -0.273823
    25  C   -0.014939
    26  N   -0.370737
    27  C    0.068657
    28  C   -0.124239
    29  C   -0.036709
    30  C    0.067088
    31  C   -0.032739
    32  C   -0.062614
    33  C   -0.053372
    34  N   -0.501920
    35  C    0.173917
    36  C   -0.221921
    37  C   -0.010422
    38  C    0.169574
    39  C    0.076151
    40  C    0.133002
    41  O   -0.237363
    42  C   -0.111378
    43  C    0.329936
    44  O   -0.270913
    45  O   -0.394846
    46  C    0.131524
    47  C    0.254568
    48  C   -0.126260
    49  C   -0.287149
    50  C    0.032137
    51  C    0.038396
    52  C   -0.091998
    53  C    0.015880
    54  C   -0.204096
    55  C   -0.011225
    56  C   -0.027653
    57  C   -0.047736
    58  C   -0.007727
    59  C   -0.239469
    60  C   -0.006742
    61  C    0.011051
    62  C   -0.011178
    63  C   -0.033817
    64  C   -0.243935
    65  C   -0.037741
    66  C    0.001320
    67  H    0.008629
    68  H   -0.023695
    69  H    0.001305
    70  H    0.053218
    71  H    0.049815
    72  H    0.062663
    73  H    0.043773
    74  H    0.031257
    75  H    0.045288
    76  H    0.049472
    77  H    0.078389
    78  H    0.054362
    79  H    0.068785
    80  H    0.049153
    81  H    0.054485
    82  H    0.074735
    83  H    0.080210
    84  H    0.054736
    85  H    0.060522
    86  H    0.050696
    87  H    0.042641
    88  H    0.059047
    89  H    0.043013
    90  H    0.029082
    91  H    0.030777
    92  H    0.045804
    93  H    0.040429
    94  H    0.041594
    95  H    0.059406
    96  H    0.061413
    97  H    0.050308
    98  H    0.080801
    99  H    0.071716
   100  H    0.049253
   101  H    0.051316
   102  H    0.064574
   103  H    0.046104
   104  H    0.016865
   105  H    0.033450
   106  H    0.080549
   107  H    0.033874
   108  H    0.058575
   109  H    0.035866
   110  H    0.039736
   111  H    0.059369
   112  H    0.016260
   113  H    0.033600
   114  H    0.031574
   115  H    0.033938
   116  H    0.017942
   117  H    0.036464
   118  H    0.012329
   119  H    0.021397
   120  H    0.030635
   121  H    0.043560
   122  H    0.029341
   123  H    0.018047
   124  H    0.029555
   125  H    0.039632
   126  H    0.034216
   127  H    0.028365
   128  H    0.022384
   129  H    0.029127
   130  H    0.025802
   131  H    0.037751
   132  H    0.021446
   133  H    0.013523
   134  H    0.033530
   135  H    0.032758
   136  H    0.038811
   137  H    0.041505
   138  H    0.033050
   139  H    0.033611
   140  H    0.027217
 Sum of Mulliken charges =  -0.00000

 Dipole moment (field-independent basis, Debye):
    X=              0.0579    Y=             -3.9568    Z=             -2.2606  Tot=              4.5574
 Quadrupole moment (field-independent basis, Debye-Ang):
   XX=           -383.3364   YY=           -389.4742   ZZ=           -413.8575
   XY=             12.5767   XZ=             -0.4799   YZ=            -54.1385

 Normal termination of Gaussian 16 at Sat Apr 30 14:50:32 2022.
