 Gaussian 16, Revision A.03,
 Gaussian 16:  ES64L-G16RevA.03 25-Dec-2016

 --------------------------------
 #p wB97XD/Def2SVP td=(nstates=5)
 --------------------------------

 ---------------------------------------------------
 step_751_chromophore_8 TDDFT with wB97XD functional
 ---------------------------------------------------
 Symbolic Z-matrix:
 Charge =  0 Multiplicity = 1

                         Standard orientation:
 ---------------------------------------------------------------------
 Center     Atomic      Atomic             Coordinates (Angstroms)
 Number     Number       Type             X           Y           Z
 ---------------------------------------------------------------------
      1         12           0       -4.755510   -0.924859    0.178813
      2          6           0       -3.515298    2.325162    0.739862
      3          6           0       -4.639885   -0.261882   -3.270464
      4          6           0       -4.900307   -4.209899   -0.488083
      5          6           0       -4.103637   -1.616810    3.600249
      6          7           0       -4.067163    0.823351   -1.099024
      7          6           0       -3.667492    2.072226   -0.615748
      8          6           0       -3.322693    3.069294   -1.781263
      9          6           0       -3.942008    2.292527   -3.020513
     10          6           0       -4.232899    0.877378   -2.418075
     11          6           0       -5.214029    2.952114   -3.599500
     12          6           0       -1.764334    3.393754   -1.940445
     13          6           0       -1.381484    4.878736   -1.721934
     14          6           0       -0.100571    5.123087   -1.041677
     15          8           0       -0.036842    5.247004    0.185268
     16          8           0        1.006351    5.045197   -1.945473
     17          7           0       -5.016263   -2.035193   -1.590066
     18          6           0       -4.957046   -1.617230   -2.908475
     19          6           0       -5.164460   -2.722928   -3.863459
     20          6           0       -5.253834   -3.854992   -3.086256
     21          6           0       -5.042916   -3.402831   -1.640613
     22          6           0       -5.424999   -2.471485   -5.360767
     23          6           0       -5.662065   -5.311662   -3.585085
     24          8           0       -5.804088   -5.488217   -4.840422
     25          6           0       -5.875844   -6.475915   -2.684378
     26          7           0       -4.482354   -2.686970    1.495799
     27          6           0       -4.650049   -3.900095    0.939121
     28          6           0       -4.706966   -4.984645    1.974408
     29          6           0       -4.552335   -4.206733    3.302088
     30          6           0       -4.345770   -2.710871    2.847416
     31          6           0       -6.177292   -5.733639    1.878231
     32          6           0       -3.277753   -4.804962    4.022365
     33          6           0       -3.408842   -6.077041    4.901576
     34          7           0       -4.116395    0.107525    1.803876
     35          6           0       -3.923428   -0.284323    3.130485
     36          6           0       -3.298514    0.695044    3.925610
     37          6           0       -3.233247    1.815554    3.046960
     38          6           0       -3.621766    1.396887    1.748079
     39          6           0       -2.926085    0.515517    5.376713
     40          6           0       -2.851559    3.211319    2.927754
     41          8           0       -2.450966    4.037876    3.767990
     42          6           0       -3.143532    3.580955    1.418560
     43          6           0       -4.324197    4.479211    1.403627
     44          8           0       -5.452306    4.210700    1.851921
     45          8           0       -4.085839    5.698126    0.707451
     46          6           0       -5.244457    6.645498    0.654842
     47          6           0        2.303357    5.203296   -1.261543
     48          6           0        2.792132    3.883475   -0.764913
     49          6           0        3.659959    3.687667    0.267855
     50          6           0        4.197476    4.807569    1.169698
     51          6           0        4.169724    2.310771    0.696788
     52          6           0        5.144851    2.016175   -0.481055
     53          6           0        4.811465    0.583527   -1.021393
     54          6           0        6.074534   -0.049556   -1.588613
     55          6           0        5.989407   -0.460519   -3.067726
     56          6           0        6.658415   -1.097709   -0.651579
     57          6           0        8.055393   -0.806494   -0.210290
     58          6           0        8.546053   -2.065806    0.600195
     59          6           0        9.972446   -2.435272    0.299065
     60          6           0       10.206556   -3.948815    0.785132
     61          6           0       10.984556   -1.377488    0.873293
     62          6           0       11.892115   -0.805157   -0.180894
     63          6           0       13.276167   -0.744079    0.400367
     64          6           0       14.169179   -1.963147   -0.054543
     65          6           0       14.887967   -1.622774   -1.437941
     66          6           0       15.229897   -2.275894    0.911107
     67          1           0       -4.513517   -0.000210   -4.323472
     68          1           0       -5.148184   -5.261596   -0.646729
     69          1           0       -3.914586   -1.825665    4.655345
     70          1           0       -3.828262    4.033983   -1.755379
     71          1           0       -3.146357    2.204688   -3.760136
     72          1           0       -6.193564    2.480199   -3.678041
     73          1           0       -4.855845    3.342051   -4.553208
     74          1           0       -5.404503    3.843209   -3.002533
     75          1           0       -1.287377    2.963663   -2.820397
     76          1           0       -1.345101    2.749417   -1.166813
     77          1           0       -2.175507    5.318199   -1.118915
     78          1           0       -1.404067    5.299129   -2.727252
     79          1           0       -5.980479   -3.352098   -5.685307
     80          1           0       -4.485579   -2.563822   -5.906946
     81          1           0       -5.837994   -1.509436   -5.663068
     82          1           0       -6.718725   -6.299850   -2.015067
     83          1           0       -4.991802   -6.795712   -2.132784
     84          1           0       -6.112288   -7.370925   -3.260487
     85          1           0       -3.901526   -5.673342    1.720720
     86          1           0       -5.477849   -4.258834    3.877156
     87          1           0       -6.124584   -6.675918    1.333089
     88          1           0       -6.962451   -5.108652    1.453010
     89          1           0       -6.515245   -6.065495    2.860281
     90          1           0       -2.766840   -4.057822    4.630292
     91          1           0       -2.472633   -4.999322    3.313236
     92          1           0       -3.093135   -5.783464    5.902719
     93          1           0       -2.710331   -6.825959    4.528806
     94          1           0       -4.382828   -6.561326    4.971056
     95          1           0       -3.851264    0.314338    5.916988
     96          1           0       -2.481622    1.446889    5.726506
     97          1           0       -2.185416   -0.269914    5.526757
     98          1           0       -2.242558    4.043519    1.016245
     99          1           0       -5.460947    7.027925    1.652744
    100          1           0       -6.158930    6.225139    0.237530
    101          1           0       -5.022307    7.414723   -0.085490
    102          1           0        2.264083    6.012782   -0.532862
    103          1           0        2.995199    5.474405   -2.059174
    104          1           0        2.511092    2.965060   -1.280315
    105          1           0        5.219007    4.508884    1.402312
    106          1           0        3.595967    4.943861    2.069090
    107          1           0        4.183333    5.674175    0.508306
    108          1           0        3.272703    1.692934    0.633987
    109          1           0        4.695190    2.319541    1.651935
    110          1           0        6.173424    2.093057   -0.129640
    111          1           0        4.990567    2.623577   -1.372705
    112          1           0        4.162529    0.696253   -1.889876
    113          1           0        4.312081   -0.018542   -0.262784
    114          1           0        6.859891    0.706038   -1.558802
    115          1           0        5.392641   -1.358742   -3.226328
    116          1           0        6.980204   -0.771516   -3.399045
    117          1           0        5.744814    0.314577   -3.794564
    118          1           0        6.667206   -2.023001   -1.227244
    119          1           0        6.032493   -1.343908    0.205878
    120          1           0        7.946774    0.009396    0.504313
    121          1           0        8.651192   -0.564925   -1.090244
    122          1           0        7.859557   -2.911741    0.631604
    123          1           0        8.559579   -1.686178    1.621215
    124          1           0       10.146846   -2.379602   -0.774966
    125          1           0       11.064730   -4.019289    1.453527
    126          1           0       10.300356   -4.582231   -0.096800
    127          1           0        9.281702   -4.326265    1.222750
    128          1           0       11.485690   -1.950953    1.652069
    129          1           0       10.427862   -0.589753    1.381600
    130          1           0       11.618508    0.244319   -0.296538
    131          1           0       11.956010   -1.317003   -1.141505
    132          1           0       13.235683   -0.654906    1.485834
    133          1           0       13.751883    0.157611    0.014219
    134          1           0       13.559542   -2.861153   -0.142972
    135          1           0       14.822504   -2.583181   -1.947672
    136          1           0       15.957727   -1.422020   -1.369277
    137          1           0       14.398980   -0.836602   -2.013312
    138          1           0       14.793643   -2.416914    1.899178
    139          1           0       16.026989   -1.532538    0.922302
    140          1           0       15.666547   -3.197928    0.526990
 ---------------------------------------------------------------------

 SCF Done:  E(RwB97XD) =  -3007.84232391     A.U. after   17 cycles

 Excitation energies and oscillator strengths:

 Excited State   1:      Singlet-A      1.9751 eV  627.74 nm  f=0.3396  <S**2>=0.000
     245 -> 248        0.17452
     246 -> 247        0.67999
 This state for optimization and/or second-order correction.
 Total Energy, E(TD-HF/TD-DFT) =  -3007.76974037
 Copying the excited state density for this state as the 1-particle RhoCI density.

 Excited State   2:      Singlet-A      2.3125 eV  536.14 nm  f=0.0675  <S**2>=0.000
     245 -> 247        0.61033
     246 -> 248       -0.32866

 Excited State   3:      Singlet-A      3.4838 eV  355.89 nm  f=0.5101  <S**2>=0.000
     240 -> 247       -0.23935
     240 -> 249        0.14054
     241 -> 247        0.18087
     245 -> 247        0.27404
     246 -> 248        0.53446

 Excited State   4:      Singlet-A      3.5460 eV  349.64 nm  f=0.1452  <S**2>=0.000
     239 -> 247        0.27182
     239 -> 248       -0.10344
     239 -> 249       -0.26897
     240 -> 247        0.32609
     240 -> 248       -0.11110
     240 -> 249       -0.29744
     240 -> 250       -0.10288
     245 -> 247        0.14475
     246 -> 248        0.24774

 Excited State   5:      Singlet-A      3.6756 eV  337.32 nm  f=0.0102  <S**2>=0.000
     241 -> 247       -0.10684
     242 -> 247       -0.32636
     242 -> 249       -0.22029
     242 -> 250        0.26722
     242 -> 251       -0.11453
     243 -> 247        0.42653
     243 -> 249        0.13634

 The electronic state is 1-A.
 Alpha  occ. eigenvalues --  -46.95976 -19.29687 -19.29508 -19.25611 -19.25026
 Alpha  occ. eigenvalues --  -19.24129 -19.22223 -14.47309 -14.46313 -14.45368
 Alpha  occ. eigenvalues --  -14.43290 -10.43030 -10.42921 -10.41631 -10.37564
 Alpha  occ. eigenvalues --  -10.36696 -10.36687 -10.36636 -10.36125 -10.35221
 Alpha  occ. eigenvalues --  -10.34976 -10.34565 -10.34357 -10.33699 -10.33526
 Alpha  occ. eigenvalues --  -10.32897 -10.32856 -10.32818 -10.32397 -10.32152
 Alpha  occ. eigenvalues --  -10.31732 -10.31620 -10.31613 -10.31401 -10.31342
 Alpha  occ. eigenvalues --  -10.31294 -10.31195 -10.31125 -10.30805 -10.30713
 Alpha  occ. eigenvalues --  -10.30625 -10.30488 -10.30157 -10.29919 -10.29835
 Alpha  occ. eigenvalues --  -10.29566 -10.29318 -10.29092 -10.28966 -10.28955
 Alpha  occ. eigenvalues --  -10.28833 -10.28823 -10.28431 -10.28388 -10.28366
 Alpha  occ. eigenvalues --  -10.28330 -10.28249 -10.28186 -10.28178 -10.28025
 Alpha  occ. eigenvalues --  -10.27984 -10.27976 -10.27969 -10.27737 -10.27579
 Alpha  occ. eigenvalues --  -10.27533  -3.21866  -1.95430  -1.95001  -1.94815
 Alpha  occ. eigenvalues --   -1.16268  -1.15595  -1.11065  -1.09230  -1.08981
 Alpha  occ. eigenvalues --   -1.07601  -1.06323  -1.05722  -1.05326  -1.03335
 Alpha  occ. eigenvalues --   -0.94709  -0.92412  -0.91697  -0.91142  -0.90652
 Alpha  occ. eigenvalues --   -0.90398  -0.90151  -0.89288  -0.89107  -0.88614
 Alpha  occ. eigenvalues --   -0.87781  -0.87259  -0.86089  -0.85687  -0.84774
 Alpha  occ. eigenvalues --   -0.84594  -0.84071  -0.82930  -0.82431  -0.81863
 Alpha  occ. eigenvalues --   -0.81155  -0.79957  -0.79573  -0.79024  -0.77757
 Alpha  occ. eigenvalues --   -0.77256  -0.76864  -0.76829  -0.76340  -0.75504
 Alpha  occ. eigenvalues --   -0.74752  -0.74311  -0.73807  -0.72270  -0.71169
 Alpha  occ. eigenvalues --   -0.70214  -0.69705  -0.68958  -0.68140  -0.67875
 Alpha  occ. eigenvalues --   -0.67562  -0.67016  -0.66932  -0.65941  -0.65670
 Alpha  occ. eigenvalues --   -0.64911  -0.64336  -0.63961  -0.63169  -0.62310
 Alpha  occ. eigenvalues --   -0.61917  -0.61150  -0.60676  -0.60273  -0.59705
 Alpha  occ. eigenvalues --   -0.59360  -0.58918  -0.58575  -0.57049  -0.56586
 Alpha  occ. eigenvalues --   -0.56475  -0.56171  -0.55804  -0.55700  -0.55541
 Alpha  occ. eigenvalues --   -0.55172  -0.55049  -0.55011  -0.54634  -0.54374
 Alpha  occ. eigenvalues --   -0.54186  -0.54019  -0.53607  -0.53568  -0.53462
 Alpha  occ. eigenvalues --   -0.53211  -0.52726  -0.52645  -0.52451  -0.52139
 Alpha  occ. eigenvalues --   -0.52054  -0.51799  -0.51687  -0.51392  -0.51292
 Alpha  occ. eigenvalues --   -0.50787  -0.50734  -0.50593  -0.50249  -0.50168
 Alpha  occ. eigenvalues --   -0.50003  -0.49895  -0.49779  -0.49739  -0.49346
 Alpha  occ. eigenvalues --   -0.49059  -0.48963  -0.48686  -0.48525  -0.48427
 Alpha  occ. eigenvalues --   -0.48339  -0.47996  -0.47906  -0.47678  -0.47400
 Alpha  occ. eigenvalues --   -0.47182  -0.46954  -0.46865  -0.46838  -0.46511
 Alpha  occ. eigenvalues --   -0.46394  -0.46209  -0.46194  -0.45786  -0.45677
 Alpha  occ. eigenvalues --   -0.45556  -0.45223  -0.45062  -0.44934  -0.44759
 Alpha  occ. eigenvalues --   -0.44627  -0.44437  -0.44400  -0.44338  -0.44014
 Alpha  occ. eigenvalues --   -0.43807  -0.43391  -0.43364  -0.43201  -0.42958
 Alpha  occ. eigenvalues --   -0.42843  -0.42822  -0.42680  -0.42505  -0.42396
 Alpha  occ. eigenvalues --   -0.42186  -0.41786  -0.41274  -0.40858  -0.40564
 Alpha  occ. eigenvalues --   -0.40282  -0.40256  -0.39748  -0.38986  -0.38915
 Alpha  occ. eigenvalues --   -0.38872  -0.38533  -0.38451  -0.38034  -0.37689
 Alpha  occ. eigenvalues --   -0.37273  -0.37171  -0.36378  -0.35967  -0.35819
 Alpha  occ. eigenvalues --   -0.35575  -0.35131  -0.34854  -0.34800  -0.34066
 Alpha  occ. eigenvalues --   -0.32945  -0.31282  -0.30645  -0.29582  -0.26146
 Alpha  occ. eigenvalues --   -0.23188
 Alpha virt. eigenvalues --   -0.06057  -0.00236   0.01650   0.04642   0.05056
 Alpha virt. eigenvalues --    0.06547   0.07438   0.08106   0.08636   0.09268
 Alpha virt. eigenvalues --    0.09955   0.11524   0.12126   0.12592   0.12608

 Mulliken charges:
               1
     1  Mg   0.981526
     2  C   -0.030504
     3  C   -0.081294
     4  C   -0.082200
     5  C   -0.099864
     6  N   -0.313648
     7  C   -0.017630
     8  C   -0.077162
     9  C   -0.117932
    10  C    0.046304
    11  C    0.024407
    12  C    0.006310
    13  C    0.017547
    14  C    0.241147
    15  O   -0.250885
    16  O   -0.403981
    17  N   -0.461043
    18  C    0.148703
    19  C   -0.140868
    20  C   -0.072565
    21  C    0.177887
    22  C    0.080623
    23  C    0.081190
    24  O   -0.267210
    25  C   -0.003919
    26  N   -0.336498
    27  C    0.060441
    28  C   -0.103690
    29  C   -0.007757
    30  C    0.044698
    31  C   -0.019870
    32  C   -0.046527
    33  C   -0.040762
    34  N   -0.467068
    35  C    0.159375
    36  C   -0.226022
    37  C   -0.007404
    38  C    0.142158
    39  C    0.087894
    40  C    0.113501
    41  O   -0.232337
    42  C   -0.061072
    43  C    0.303639
    44  O   -0.266681
    45  O   -0.393642
    46  C    0.146708
    47  C    0.271970
    48  C   -0.140845
    49  C   -0.266477
    50  C    0.046715
    51  C    0.051864
    52  C   -0.072650
    53  C    0.030913
    54  C   -0.169927
    55  C    0.003023
    56  C   -0.017153
    57  C   -0.027027
    58  C    0.013700
    59  C   -0.211609
    60  C    0.007699
    61  C    0.023467
    62  C    0.006096
    63  C   -0.016047
    64  C   -0.214381
    65  C   -0.027644
    66  C    0.014793
    67  H    0.003586
    68  H   -0.043139
    69  H   -0.005397
    70  H    0.036071
    71  H    0.040577
    72  H    0.058772
    73  H    0.038955
    74  H    0.026722
    75  H    0.038840
    76  H    0.039734
    77  H    0.067050
    78  H    0.049026
    79  H    0.065277
    80  H    0.047001
    81  H    0.053069
    82  H    0.070566
    83  H    0.078092
    84  H    0.055041
    85  H    0.051616
    86  H    0.041730
    87  H    0.036906
    88  H    0.052840
    89  H    0.038443
    90  H    0.021286
    91  H    0.021689
    92  H    0.040716
    93  H    0.034223
    94  H    0.035159
    95  H    0.051548
    96  H    0.056434
    97  H    0.042484
    98  H    0.065562
    99  H    0.068147
   100  H    0.044254
   101  H    0.047502
   102  H    0.059410
   103  H    0.041320
   104  H    0.012313
   105  H    0.026638
   106  H    0.077151
   107  H    0.026324
   108  H    0.049913
   109  H    0.031239
   110  H    0.030114
   111  H    0.047164
   112  H    0.006337
   113  H    0.024037
   114  H    0.013769
   115  H    0.027351
   116  H    0.010597
   117  H    0.031211
   118  H    0.000662
   119  H    0.012820
   120  H    0.019935
   121  H    0.032715
   122  H    0.020022
   123  H    0.006577
   124  H    0.014031
   125  H    0.033773
   126  H    0.028433
   127  H    0.021729
   128  H    0.009049
   129  H    0.020693
   130  H    0.018753
   131  H    0.027736
   132  H    0.012038
   133  H    0.004793
   134  H    0.021170
   135  H    0.026271
   136  H    0.033232
   137  H    0.035962
   138  H    0.026847
   139  H    0.026510
   140  H    0.020473
 Sum of Mulliken charges =  -0.00000

 Dipole moment (field-independent basis, Debye):
    X=             -0.3341    Y=             -4.6359    Z=             -3.3817  Tot=              5.7480
 Quadrupole moment (field-independent basis, Debye-Ang):
   XX=           -379.8971   YY=           -387.0742   ZZ=           -413.9757
   XY=             16.0185   XZ=              4.6247   YZ=            -52.8301

 Normal termination of Gaussian 16 at Sat Apr 30 15:26:14 2022.
