 Gaussian 16, Revision A.03,
 Gaussian 16:  ES64L-G16RevA.03 25-Dec-2016

 --------------------
 #p ZINDO=(nstates=5)
 --------------------

 ----------------------------
 step_751_chromophore_8 ZINDO
 ----------------------------
 Symbolic Z-matrix:
 Charge =  0 Multiplicity = 1

                         Standard orientation:
 ---------------------------------------------------------------------
 Center     Atomic      Atomic             Coordinates (Angstroms)
 Number     Number       Type             X           Y           Z
 ---------------------------------------------------------------------
      1         12           0       -4.755510   -0.924859    0.178813
      2          6           0       -3.515298    2.325162    0.739862
      3          6           0       -4.639885   -0.261882   -3.270464
      4          6           0       -4.900307   -4.209899   -0.488083
      5          6           0       -4.103637   -1.616810    3.600249
      6          7           0       -4.067163    0.823351   -1.099024
      7          6           0       -3.667492    2.072226   -0.615748
      8          6           0       -3.322693    3.069294   -1.781263
      9          6           0       -3.942008    2.292527   -3.020513
     10          6           0       -4.232899    0.877378   -2.418075
     11          6           0       -5.214029    2.952114   -3.599500
     12          6           0       -1.764334    3.393754   -1.940445
     13          6           0       -1.381484    4.878736   -1.721934
     14          6           0       -0.100571    5.123087   -1.041677
     15          8           0       -0.036842    5.247004    0.185268
     16          8           0        1.006351    5.045197   -1.945473
     17          7           0       -5.016263   -2.035193   -1.590066
     18          6           0       -4.957046   -1.617230   -2.908475
     19          6           0       -5.164460   -2.722928   -3.863459
     20          6           0       -5.253834   -3.854992   -3.086256
     21          6           0       -5.042916   -3.402831   -1.640613
     22          6           0       -5.424999   -2.471485   -5.360767
     23          6           0       -5.662065   -5.311662   -3.585085
     24          8           0       -5.804088   -5.488217   -4.840422
     25          6           0       -5.875844   -6.475915   -2.684378
     26          7           0       -4.482354   -2.686970    1.495799
     27          6           0       -4.650049   -3.900095    0.939121
     28          6           0       -4.706966   -4.984645    1.974408
     29          6           0       -4.552335   -4.206733    3.302088
     30          6           0       -4.345770   -2.710871    2.847416
     31          6           0       -6.177292   -5.733639    1.878231
     32          6           0       -3.277753   -4.804962    4.022365
     33          6           0       -3.408842   -6.077041    4.901576
     34          7           0       -4.116395    0.107525    1.803876
     35          6           0       -3.923428   -0.284323    3.130485
     36          6           0       -3.298514    0.695044    3.925610
     37          6           0       -3.233247    1.815554    3.046960
     38          6           0       -3.621766    1.396887    1.748079
     39          6           0       -2.926085    0.515517    5.376713
     40          6           0       -2.851559    3.211319    2.927754
     41          8           0       -2.450966    4.037876    3.767990
     42          6           0       -3.143532    3.580955    1.418560
     43          6           0       -4.324197    4.479211    1.403627
     44          8           0       -5.452306    4.210700    1.851921
     45          8           0       -4.085839    5.698126    0.707451
     46          6           0       -5.244457    6.645498    0.654842
     47          6           0        2.303357    5.203296   -1.261543
     48          6           0        2.792132    3.883475   -0.764913
     49          6           0        3.659959    3.687667    0.267855
     50          6           0        4.197476    4.807569    1.169698
     51          6           0        4.169724    2.310771    0.696788
     52          6           0        5.144851    2.016175   -0.481055
     53          6           0        4.811465    0.583527   -1.021393
     54          6           0        6.074534   -0.049556   -1.588613
     55          6           0        5.989407   -0.460519   -3.067726
     56          6           0        6.658415   -1.097709   -0.651579
     57          6           0        8.055393   -0.806494   -0.210290
     58          6           0        8.546053   -2.065806    0.600195
     59          6           0        9.972446   -2.435272    0.299065
     60          6           0       10.206556   -3.948815    0.785132
     61          6           0       10.984556   -1.377488    0.873293
     62          6           0       11.892115   -0.805157   -0.180894
     63          6           0       13.276167   -0.744079    0.400367
     64          6           0       14.169179   -1.963147   -0.054543
     65          6           0       14.887967   -1.622774   -1.437941
     66          6           0       15.229897   -2.275894    0.911107
     67          1           0       -4.513517   -0.000210   -4.323472
     68          1           0       -5.148184   -5.261596   -0.646729
     69          1           0       -3.914586   -1.825665    4.655345
     70          1           0       -3.828262    4.033983   -1.755379
     71          1           0       -3.146357    2.204688   -3.760136
     72          1           0       -6.193564    2.480199   -3.678041
     73          1           0       -4.855845    3.342051   -4.553208
     74          1           0       -5.404503    3.843209   -3.002533
     75          1           0       -1.287377    2.963663   -2.820397
     76          1           0       -1.345101    2.749417   -1.166813
     77          1           0       -2.175507    5.318199   -1.118915
     78          1           0       -1.404067    5.299129   -2.727252
     79          1           0       -5.980479   -3.352098   -5.685307
     80          1           0       -4.485579   -2.563822   -5.906946
     81          1           0       -5.837994   -1.509436   -5.663068
     82          1           0       -6.718725   -6.299850   -2.015067
     83          1           0       -4.991802   -6.795712   -2.132784
     84          1           0       -6.112288   -7.370925   -3.260487
     85          1           0       -3.901526   -5.673342    1.720720
     86          1           0       -5.477849   -4.258834    3.877156
     87          1           0       -6.124584   -6.675918    1.333089
     88          1           0       -6.962451   -5.108652    1.453010
     89          1           0       -6.515245   -6.065495    2.860281
     90          1           0       -2.766840   -4.057822    4.630292
     91          1           0       -2.472633   -4.999322    3.313236
     92          1           0       -3.093135   -5.783464    5.902719
     93          1           0       -2.710331   -6.825959    4.528806
     94          1           0       -4.382828   -6.561326    4.971056
     95          1           0       -3.851264    0.314338    5.916988
     96          1           0       -2.481622    1.446889    5.726506
     97          1           0       -2.185416   -0.269914    5.526757
     98          1           0       -2.242558    4.043519    1.016245
     99          1           0       -5.460947    7.027925    1.652744
    100          1           0       -6.158930    6.225139    0.237530
    101          1           0       -5.022307    7.414723   -0.085490
    102          1           0        2.264083    6.012782   -0.532862
    103          1           0        2.995199    5.474405   -2.059174
    104          1           0        2.511092    2.965060   -1.280315
    105          1           0        5.219007    4.508884    1.402312
    106          1           0        3.595967    4.943861    2.069090
    107          1           0        4.183333    5.674175    0.508306
    108          1           0        3.272703    1.692934    0.633987
    109          1           0        4.695190    2.319541    1.651935
    110          1           0        6.173424    2.093057   -0.129640
    111          1           0        4.990567    2.623577   -1.372705
    112          1           0        4.162529    0.696253   -1.889876
    113          1           0        4.312081   -0.018542   -0.262784
    114          1           0        6.859891    0.706038   -1.558802
    115          1           0        5.392641   -1.358742   -3.226328
    116          1           0        6.980204   -0.771516   -3.399045
    117          1           0        5.744814    0.314577   -3.794564
    118          1           0        6.667206   -2.023001   -1.227244
    119          1           0        6.032493   -1.343908    0.205878
    120          1           0        7.946774    0.009396    0.504313
    121          1           0        8.651192   -0.564925   -1.090244
    122          1           0        7.859557   -2.911741    0.631604
    123          1           0        8.559579   -1.686178    1.621215
    124          1           0       10.146846   -2.379602   -0.774966
    125          1           0       11.064730   -4.019289    1.453527
    126          1           0       10.300356   -4.582231   -0.096800
    127          1           0        9.281702   -4.326265    1.222750
    128          1           0       11.485690   -1.950953    1.652069
    129          1           0       10.427862   -0.589753    1.381600
    130          1           0       11.618508    0.244319   -0.296538
    131          1           0       11.956010   -1.317003   -1.141505
    132          1           0       13.235683   -0.654906    1.485834
    133          1           0       13.751883    0.157611    0.014219
    134          1           0       13.559542   -2.861153   -0.142972
    135          1           0       14.822504   -2.583181   -1.947672
    136          1           0       15.957727   -1.422020   -1.369277
    137          1           0       14.398980   -0.836602   -2.013312
    138          1           0       14.793643   -2.416914    1.899178
    139          1           0       16.026989   -1.532538    0.922302
    140          1           0       15.666547   -3.197928    0.526990
 ---------------------------------------------------------------------

 SCF Done:  E(RZINDO/S) =  -473.909477409     A.U. after   17 cycles

 Excitation energies and oscillator strengths:

 Excited State   1:      Singlet-A      1.6199 eV  765.37 nm  f=0.4508  <S**2>=0.000
     175 ->178         0.12418
     176 ->177         0.67859
 This state for optimization and/or second-order correction.
 Total Energy, E(CIS/TDA) =  -473.849946648
 Copying the excited state density for this state as the 1-particle RhoCI density.

 Excited State   2:      Singlet-A      2.0163 eV  614.90 nm  f=0.0076  <S**2>=0.000
     175 ->177         0.48537
     176 ->178        -0.46688

 Excited State   3:      Singlet-A      2.9279 eV  423.46 nm  f=0.0119  <S**2>=0.000
     166 ->177        -0.10017
     166 ->179         0.15808
     167 ->177        -0.28504
     167 ->178         0.13274
     167 ->179         0.44377
     167 ->181        -0.19835
     167 ->183         0.11136
     167 ->184        -0.10020
     169 ->177         0.10898
     169 ->179        -0.11292

 Excited State   4:      Singlet-A      2.9595 eV  418.94 nm  f=0.9533  <S**2>=0.000
     175 ->177         0.43457
     176 ->178         0.46206
     176 ->179        -0.12812

 Excited State   5:      Singlet-A      3.0887 eV  401.41 nm  f=0.0554  <S**2>=0.000
     171 ->177         0.20321
     171 ->178        -0.14339
     171 ->179         0.22708
     171 ->180        -0.16757
     171 ->181         0.25299
     171 ->182         0.12642
     171 ->185         0.24362
     171 ->186         0.12415
     171 ->189         0.17090
     171 ->207        -0.10070
     176 ->179         0.23599
     176 ->181         0.18119

 The electronic state is 1-A.
 Alpha  occ. eigenvalues --   -1.82927  -1.79793  -1.78580  -1.70981  -1.69708
 Alpha  occ. eigenvalues --   -1.67837  -1.67517  -1.63384  -1.56890  -1.56805
 Alpha  occ. eigenvalues --   -1.56522  -1.52145  -1.49027  -1.46327  -1.44905
 Alpha  occ. eigenvalues --   -1.43451  -1.41272  -1.39473  -1.39393  -1.36886
 Alpha  occ. eigenvalues --   -1.35091  -1.33491  -1.32983  -1.31023  -1.28168
 Alpha  occ. eigenvalues --   -1.26694  -1.26408  -1.22704  -1.20046  -1.17890
 Alpha  occ. eigenvalues --   -1.15557  -1.14662  -1.13984  -1.13788  -1.12874
 Alpha  occ. eigenvalues --   -1.12779  -1.10783  -1.08905  -1.05291  -1.03368
 Alpha  occ. eigenvalues --   -1.01342  -1.01188  -0.98446  -0.98108  -0.96369
 Alpha  occ. eigenvalues --   -0.95495  -0.94638  -0.94161  -0.93060  -0.92504
 Alpha  occ. eigenvalues --   -0.91063  -0.90543  -0.89942  -0.88460  -0.86539
 Alpha  occ. eigenvalues --   -0.86198  -0.83898  -0.83256  -0.82272  -0.79869
 Alpha  occ. eigenvalues --   -0.78940  -0.78406  -0.77276  -0.77015  -0.76460
 Alpha  occ. eigenvalues --   -0.76133  -0.75815  -0.75042  -0.73929  -0.73417
 Alpha  occ. eigenvalues --   -0.72709  -0.72196  -0.71391  -0.71253  -0.70726
 Alpha  occ. eigenvalues --   -0.69778  -0.69698  -0.68670  -0.68381  -0.67539
 Alpha  occ. eigenvalues --   -0.66825  -0.66659  -0.66022  -0.65700  -0.65274
 Alpha  occ. eigenvalues --   -0.64668  -0.63973  -0.63897  -0.63485  -0.62770
 Alpha  occ. eigenvalues --   -0.62665  -0.62170  -0.62097  -0.61912  -0.61788
 Alpha  occ. eigenvalues --   -0.61668  -0.61151  -0.60456  -0.60174  -0.59701
 Alpha  occ. eigenvalues --   -0.59454  -0.59393  -0.58779  -0.58354  -0.57820
 Alpha  occ. eigenvalues --   -0.57680  -0.56858  -0.56803  -0.56669  -0.56560
 Alpha  occ. eigenvalues --   -0.56056  -0.55742  -0.55403  -0.55283  -0.54965
 Alpha  occ. eigenvalues --   -0.54410  -0.54332  -0.53935  -0.53686  -0.53124
 Alpha  occ. eigenvalues --   -0.52781  -0.52495  -0.52002  -0.51924  -0.51584
 Alpha  occ. eigenvalues --   -0.51286  -0.51182  -0.50984  -0.50567  -0.50295
 Alpha  occ. eigenvalues --   -0.50106  -0.49868  -0.49593  -0.49347  -0.48968
 Alpha  occ. eigenvalues --   -0.48691  -0.48501  -0.48298  -0.48163  -0.47843
 Alpha  occ. eigenvalues --   -0.47488  -0.47251  -0.47160  -0.46973  -0.46734
 Alpha  occ. eigenvalues --   -0.46441  -0.46094  -0.45543  -0.45479  -0.45328
 Alpha  occ. eigenvalues --   -0.44627  -0.44498  -0.43856  -0.43568  -0.43425
 Alpha  occ. eigenvalues --   -0.43356  -0.43025  -0.42639  -0.42176  -0.41995
 Alpha  occ. eigenvalues --   -0.41027  -0.40818  -0.39816  -0.38714  -0.38530
 Alpha  occ. eigenvalues --   -0.37741  -0.37579  -0.37248  -0.35416  -0.34615
 Alpha  occ. eigenvalues --   -0.33126  -0.32524  -0.30884  -0.29522  -0.27269
 Alpha  occ. eigenvalues --   -0.22350
 Alpha virt. eigenvalues --   -0.07447  -0.02572  -0.01363   0.00971   0.01106
 Alpha virt. eigenvalues --    0.01511   0.02851   0.03243   0.04012   0.04587
 Alpha virt. eigenvalues --    0.05705   0.06298   0.06732   0.07205   0.07445

 Mulliken charges:
               1
     1  Mg   0.440174
     2  C    0.015333
     3  C   -0.113990
     4  C   -0.132626
     5  C   -0.046066
     6  N   -0.265533
     7  C    0.059715
     8  C   -0.008614
     9  C    0.006513
    10  C    0.191086
    11  C   -0.051920
    12  C   -0.026939
    13  C    0.011355
    14  C    0.470363
    15  O   -0.501762
    16  O   -0.285833
    17  N   -0.340199
    18  C    0.156267
    19  C    0.069523
    20  C   -0.029669
    21  C    0.161437
    22  C   -0.039394
    23  C    0.331270
    24  O   -0.524231
    25  C   -0.017896
    26  N   -0.270341
    27  C    0.196567
    28  C    0.004633
    29  C    0.007196
    30  C    0.061941
    31  C   -0.058874
    32  C   -0.034597
    33  C   -0.058855
    34  N   -0.326058
    35  C    0.056219
    36  C   -0.004924
    37  C   -0.059776
    38  C    0.088371
    39  C   -0.036480
    40  C    0.325680
    41  O   -0.539190
    42  C    0.068761
    43  C    0.489748
    44  O   -0.528818
    45  O   -0.286964
    46  C    0.075245
    47  C    0.113608
    48  C   -0.110794
    49  C   -0.000980
    50  C   -0.050425
    51  C   -0.028478
    52  C   -0.034305
    53  C   -0.039454
    54  C   -0.014249
    55  C   -0.055378
    56  C   -0.030822
    57  C   -0.037409
    58  C   -0.038778
    59  C   -0.024239
    60  C   -0.068251
    61  C   -0.031339
    62  C   -0.029766
    63  C   -0.037421
    64  C   -0.011957
    65  C   -0.064421
    66  C   -0.050027
    67  H    0.025273
    68  H    0.020098
    69  H    0.025881
    70  H    0.036642
    71  H    0.034231
    72  H    0.040896
    73  H    0.016065
    74  H    0.019004
    75  H    0.028846
    76  H    0.022994
    77  H    0.044486
    78  H    0.031099
    79  H    0.048606
    80  H    0.033511
    81  H    0.038608
    82  H    0.042340
    83  H    0.043019
    84  H    0.034591
    85  H    0.044421
    86  H    0.039656
    87  H    0.016780
    88  H    0.031437
    89  H    0.019151
    90  H    0.016114
    91  H    0.016866
    92  H    0.020217
    93  H    0.016207
    94  H    0.022934
    95  H    0.030545
    96  H    0.027276
    97  H    0.026576
    98  H    0.058714
    99  H    0.054238
   100  H    0.038327
   101  H    0.026814
   102  H    0.058905
   103  H    0.030110
   104  H    0.028560
   105  H    0.022993
   106  H    0.045915
   107  H    0.021445
   108  H    0.033859
   109  H    0.034591
   110  H    0.022378
   111  H    0.031227
   112  H    0.013774
   113  H    0.025967
   114  H    0.011444
   115  H    0.018552
   116  H    0.003922
   117  H    0.020996
   118  H    0.005078
   119  H    0.017976
   120  H    0.020916
   121  H    0.030554
   122  H    0.026383
   123  H    0.007710
   124  H    0.016831
   125  H    0.027769
   126  H    0.015817
   127  H    0.020298
   128  H    0.019942
   129  H    0.021198
   130  H    0.012913
   131  H    0.031839
   132  H    0.018958
   133  H    0.008352
   134  H    0.023804
   135  H    0.011092
   136  H    0.024583
   137  H    0.023134
   138  H    0.014221
   139  H    0.020012
   140  H    0.010558
 Sum of Mulliken charges =  -0.00000

 Dipole moment (field-independent basis, Debye):
    X=              0.2589    Y=             -6.7444    Z=             -7.5337  Tot=             10.1149
 N-N= 4.392177658631D+03 E-N= 0.000000000000D+00  KE=-9.458772023661D+03
 Leave Link  601 at Sat Apr 30 15:42:50 2022, MaxMem=  6710886400 cpu:               1.2 elap:               0.1
 (Enter /sw/apps/gaussian-16.0/g16/l9999.exe)
 1\1\GINC-BP1-COMPUTE137\SP\RZINDO CIS\STO-3G\C55H74Mg1N4O6\OF15641\30-
 Apr-2022\0\\#p ZINDO=(nstates=5)\\step_751_chromophore_8 ZINDO\\0,1\Mg
 ,0,44.694,2.603,47.159\C,0,42.472,5.246,46.457\C,0,41.991,0.381,46.832
 \C,0,46.815,0.033,46.767\C,0,47.359,4.909,46.723\N,0,42.497,2.814,46.6
 19\C,0,41.817,4.023,46.449\C,0,40.29,3.8,46.149\C,0,40.139,2.267,46.53
 6\C,0,41.629,1.807,46.672\C,0,39.334,2.026,47.833\C,0,39.852,4.129,44.
 646\C,0,38.823,5.278,44.503\C,0,38.994,6.158,43.337\O,0,39.672,7.188,4

 Normal termination of Gaussian 16 at Sat Apr 30 15:42:50 2022.
