 Gaussian 16, Revision A.03,
 Gaussian 16:  ES64L-G16RevA.03 25-Dec-2016

 ------------------------------
 #p blyp/Def2SVP td=(nstates=5)
 ------------------------------

 --------------------------------------------------
 step_601_chromophore_14 TDDFT with blyp functional
 --------------------------------------------------
 Symbolic Z-matrix:
 Charge =  0 Multiplicity = 1

                         Standard orientation:
 ---------------------------------------------------------------------
 Center     Atomic      Atomic             Coordinates (Angstroms)
 Number     Number       Type             X           Y           Z
 ---------------------------------------------------------------------
      1         12           0        5.161485    0.923690   -0.119898
      2          6           0        4.992327   -2.596125    0.323653
      3          6           0        4.118009    0.410465   -3.400003
      4          6           0        4.713128    4.215519   -0.266096
      5          6           0        5.752575    1.170566    3.276007
      6          7           0        4.653851   -0.823157   -1.294016
      7          6           0        4.552775   -2.186010   -0.923594
      8          6           0        4.018532   -3.094934   -2.101728
      9          6           0        4.191754   -2.129854   -3.278616
     10          6           0        4.304921   -0.753667   -2.612257
     11          6           0        5.432897   -2.441677   -4.192929
     12          6           0        2.560953   -3.619262   -1.916399
     13          6           0        1.563950   -2.627376   -1.428509
     14          6           0       -0.014302   -2.946452   -1.536888
     15          8           0       -0.464743   -3.897244   -2.114910
     16          8           0       -0.786792   -1.903358   -1.107019
     17          7           0        4.480783    2.187119   -1.590827
     18          6           0        4.072077    1.805819   -2.889853
     19          6           0        3.643090    2.923840   -3.602269
     20          6           0        3.858980    4.096826   -2.782981
     21          6           0        4.391492    3.536061   -1.456778
     22          6           0        3.169192    2.879142   -5.082304
     23          6           0        3.699448    5.560194   -3.211997
     24          8           0        3.262381    5.796256   -4.357557
     25          6           0        4.062156    6.647837   -2.271643
     26          7           0        5.170015    2.469445    1.319876
     27          6           0        5.072205    3.770091    0.989804
     28          6           0        5.183618    4.654897    2.227119
     29          6           0        5.437943    3.708923    3.426714
     30          6           0        5.489010    2.382102    2.659802
     31          6           0        6.189529    5.912968    2.048026
     32          6           0        4.283518    3.735444    4.447479
     33          6           0        4.660046    3.505437    5.886011
     34          7           0        5.437438   -0.378342    1.480200
     35          6           0        5.752606   -0.128796    2.753347
     36          6           0        6.098656   -1.397232    3.455386
     37          6           0        5.767844   -2.350723    2.548089
     38          6           0        5.344101   -1.718518    1.343553
     39          6           0        6.418017   -1.592663    4.885295
     40          6           0        5.676421   -3.793038    2.356000
     41          8           0        5.834096   -4.696914    3.151870
     42          6           0        5.110521   -3.989433    0.872309
     43          6           0        6.057567   -4.847643    0.120223
     44          8           0        5.757565   -5.811150   -0.544761
     45          8           0        7.348770   -4.370297    0.203239
     46          6           0        8.379350   -4.944409   -0.653966
     47          6           0       -2.187442   -2.182425   -1.114004
     48          6           0       -2.870917   -0.840672   -0.650075
     49          6           0       -4.079356   -0.212939   -1.079035
     50          6           0       -4.947955   -0.911091   -2.136793
     51          6           0       -4.519960    1.034212   -0.423668
     52          6           0       -5.427299    0.884394    0.761369
     53          6           0       -6.985810    1.074380    0.405033
     54          6           0       -7.988843    0.220416    1.268473
     55          6           0       -7.715040    0.214814    2.794407
     56          6           0       -8.168255   -1.154255    0.631631
     57          6           0       -9.533563   -1.357230   -0.060575
     58          6           0      -10.534653   -1.970776    0.945240
     59          6           0      -11.773169   -0.989118    0.968786
     60          6           0      -12.530292   -1.255264    2.269841
     61          6           0      -12.740406   -1.196687   -0.220555
     62          6           0      -13.498855    0.061875   -0.686071
     63          6           0      -15.062541    0.086221   -0.607213
     64          6           0      -15.563884    1.297341    0.254410
     65          6           0      -16.694844    0.830195    1.262354
     66          6           0      -15.971462    2.476556   -0.630232
     67          1           0        4.053397    0.220419   -4.473492
     68          1           0        4.511084    5.289230   -0.297965
     69          1           0        6.107853    1.210737    4.307536
     70          1           0        4.635302   -3.985545   -2.215292
     71          1           0        3.248085   -2.120836   -3.824952
     72          1           0        5.058230   -2.770521   -5.162390
     73          1           0        6.006922   -3.248426   -3.735409
     74          1           0        6.095865   -1.589288   -4.337083
     75          1           0        2.676383   -4.325210   -1.093782
     76          1           0        2.332878   -4.025343   -2.902083
     77          1           0        1.781915   -1.641315   -1.838860
     78          1           0        1.709254   -2.783705   -0.360156
     79          1           0        2.105177    2.644033   -5.038810
     80          1           0        3.604922    2.077378   -5.678478
     81          1           0        3.266285    3.836957   -5.593397
     82          1           0        5.079708    6.553964   -1.889723
     83          1           0        3.333552    6.604405   -1.462055
     84          1           0        3.934677    7.590621   -2.801813
     85          1           0        4.197078    5.118499    2.235670
     86          1           0        6.444470    3.821870    3.828155
     87          1           0        7.099303    5.595095    1.539199
     88          1           0        6.531596    6.349649    2.986790
     89          1           0        5.679726    6.765521    1.601212
     90          1           0        3.634902    2.967931    4.025001
     91          1           0        3.726449    4.671551    4.426169
     92          1           0        5.098629    4.361310    6.398384
     93          1           0        5.222417    2.577075    5.993326
     94          1           0        3.797978    2.991649    6.313784
     95          1           0        7.481784   -1.822751    4.930686
     96          1           0        5.954475   -2.533320    5.182684
     97          1           0        6.173268   -0.709725    5.475291
     98          1           0        4.181950   -4.547676    0.989705
     99          1           0        9.368432   -4.735765   -0.244858
    100          1           0        8.297476   -4.483749   -1.638068
    101          1           0        8.258427   -6.016280   -0.810570
    102          1           0       -2.497345   -3.007384   -0.471225
    103          1           0       -2.413939   -2.496196   -2.132328
    104          1           0       -2.327079   -0.274570    0.106734
    105          1           0       -5.988649   -1.015842   -1.830142
    106          1           0       -4.601454   -1.900960   -2.434790
    107          1           0       -4.869275   -0.298876   -3.034760
    108          1           0       -5.067139    1.523404   -1.230228
    109          1           0       -3.663794    1.669061   -0.192461
    110          1           0       -5.175457    1.591969    1.551383
    111          1           0       -5.496694   -0.097287    1.228789
    112          1           0       -7.093121    0.806595   -0.645952
    113          1           0       -7.232663    2.135980    0.422898
    114          1           0       -8.908296    0.769281    1.067445
    115          1           0       -8.541160    0.055630    3.488310
    116          1           0       -7.245929    1.182329    2.974053
    117          1           0       -7.051262   -0.622149    3.009234
    118          1           0       -8.058830   -1.876434    1.441266
    119          1           0       -7.407036   -1.255257   -0.141721
    120          1           0       -9.386534   -2.118955   -0.825635
    121          1           0       -9.720301   -0.390783   -0.528831
    122          1           0      -10.102211   -1.875104    1.941016
    123          1           0      -10.910522   -2.966561    0.707278
    124          1           0      -11.504022    0.067275    0.978815
    125          1           0      -12.472672   -2.340286    2.361700
    126          1           0      -13.549909   -0.886609    2.154651
    127          1           0      -12.091870   -0.895894    3.201230
    128          1           0      -13.461227   -1.964716    0.061038
    129          1           0      -12.098572   -1.475054   -1.056956
    130          1           0      -13.194709    0.216131   -1.721685
    131          1           0      -13.033429    0.885246   -0.145323
    132          1           0      -15.432256   -0.841230   -0.168830
    133          1           0      -15.402434    0.230449   -1.632212
    134          1           0      -14.733763    1.602078    0.892677
    135          1           0      -17.090448   -0.113606    0.886564
    136          1           0      -17.496434    1.568491    1.302881
    137          1           0      -16.211332    0.796901    2.237989
    138          1           0      -15.600892    3.273303    0.015255
    139          1           0      -17.060299    2.501852   -0.654022
    140          1           0      -15.501681    2.511652   -1.613193
 ---------------------------------------------------------------------

 SCF Done:  E(RB-LYP) =  -3007.38550400     A.U. after   21 cycles

 Excitation energies and oscillator strengths:

 Excited State   1:      Singlet-A      1.7712 eV  700.01 nm  f=0.3029  <S**2>=0.000
     245 -> 248        0.18031
     246 -> 247        0.69470
     246 <- 247       -0.15994
 This state for optimization and/or second-order correction.
 Total Energy, E(TD-HF/TD-DFT) =  -3007.32041430
 Copying the excited state density for this state as the 1-particle RhoCI density.

 Excited State   2:      Singlet-A      1.8031 eV  687.62 nm  f=0.0032  <S**2>=0.000
     244 -> 247        0.70422

 Excited State   3:      Singlet-A      1.9634 eV  631.47 nm  f=0.0000  <S**2>=0.000
     243 -> 247        0.70476

 Excited State   4:      Singlet-A      1.9750 eV  627.76 nm  f=0.0123  <S**2>=0.000
     242 -> 247        0.63791
     245 -> 247        0.28334

 Excited State   5:      Singlet-A      2.0776 eV  596.78 nm  f=0.0712  <S**2>=0.000
     242 -> 247       -0.29614
     245 -> 247        0.57568
     246 -> 248       -0.24583

 The electronic state is 1-A.
 Alpha  occ. eigenvalues --  -46.26806 -18.82004 -18.81967 -18.77009 -18.76922
 Alpha  occ. eigenvalues --  -18.76460 -18.75241 -14.03824 -14.03443 -14.01342
 Alpha  occ. eigenvalues --  -14.01150 -10.04177 -10.04139 -10.00076  -9.99815
 Alpha  occ. eigenvalues --   -9.98053  -9.97969  -9.96976  -9.96640  -9.96620
 Alpha  occ. eigenvalues --   -9.96586  -9.96493  -9.95852  -9.95687  -9.94725
 Alpha  occ. eigenvalues --   -9.94648  -9.94388  -9.94192  -9.94147  -9.93863
 Alpha  occ. eigenvalues --   -9.93750  -9.93633  -9.93507  -9.93504  -9.93446
 Alpha  occ. eigenvalues --   -9.93428  -9.93376  -9.93268  -9.92955  -9.92893
 Alpha  occ. eigenvalues --   -9.92724  -9.92669  -9.92664  -9.92612  -9.92492
 Alpha  occ. eigenvalues --   -9.92314  -9.92223  -9.92136  -9.91922  -9.91826
 Alpha  occ. eigenvalues --   -9.91654  -9.91558  -9.91551  -9.91425  -9.91364
 Alpha  occ. eigenvalues --   -9.91354  -9.91251  -9.91029  -9.90901  -9.90877
 Alpha  occ. eigenvalues --   -9.90862  -9.90704  -9.90640  -9.90608  -9.90557
 Alpha  occ. eigenvalues --   -9.90241  -2.91582  -1.72004  -1.71450  -1.71306
 Alpha  occ. eigenvalues --   -0.98936  -0.97961  -0.92226  -0.90878  -0.90237
 Alpha  occ. eigenvalues --   -0.89981  -0.87522  -0.86575  -0.85278  -0.84211
 Alpha  occ. eigenvalues --   -0.76303  -0.73600  -0.73373  -0.73201  -0.72749
 Alpha  occ. eigenvalues --   -0.71907  -0.71628  -0.71309  -0.70553  -0.70283
 Alpha  occ. eigenvalues --   -0.69277  -0.68462  -0.68081  -0.67826  -0.67327
 Alpha  occ. eigenvalues --   -0.66523  -0.66189  -0.65372  -0.64881  -0.64608
 Alpha  occ. eigenvalues --   -0.64034  -0.62807  -0.62088  -0.61654  -0.60944
 Alpha  occ. eigenvalues --   -0.60681  -0.59992  -0.59983  -0.59223  -0.58992
 Alpha  occ. eigenvalues --   -0.58242  -0.57522  -0.57090  -0.55561  -0.55493
 Alpha  occ. eigenvalues --   -0.54235  -0.53745  -0.52563  -0.52286  -0.52150
 Alpha  occ. eigenvalues --   -0.51496  -0.51007  -0.50726  -0.50232  -0.49610
 Alpha  occ. eigenvalues --   -0.49357  -0.49169  -0.48364  -0.47768  -0.46592
 Alpha  occ. eigenvalues --   -0.46173  -0.46011  -0.45435  -0.45142  -0.44423
 Alpha  occ. eigenvalues --   -0.44141  -0.43660  -0.43151  -0.42860  -0.42498
 Alpha  occ. eigenvalues --   -0.42297  -0.42108  -0.41890  -0.41670  -0.41633
 Alpha  occ. eigenvalues --   -0.41067  -0.40553  -0.40514  -0.40214  -0.40123
 Alpha  occ. eigenvalues --   -0.39912  -0.39782  -0.39637  -0.39366  -0.39171
 Alpha  occ. eigenvalues --   -0.39008  -0.38888  -0.38789  -0.38649  -0.38360
 Alpha  occ. eigenvalues --   -0.38274  -0.38093  -0.37882  -0.37670  -0.37466
 Alpha  occ. eigenvalues --   -0.37193  -0.37050  -0.36935  -0.36574  -0.36425
 Alpha  occ. eigenvalues --   -0.36354  -0.36195  -0.35960  -0.35670  -0.35574
 Alpha  occ. eigenvalues --   -0.35411  -0.35272  -0.35090  -0.34967  -0.34682
 Alpha  occ. eigenvalues --   -0.34637  -0.34589  -0.34356  -0.34336  -0.34295
 Alpha  occ. eigenvalues --   -0.34043  -0.33731  -0.33584  -0.33389  -0.33264
 Alpha  occ. eigenvalues --   -0.33216  -0.33143  -0.32958  -0.32848  -0.32474
 Alpha  occ. eigenvalues --   -0.32285  -0.32045  -0.31878  -0.31768  -0.31525
 Alpha  occ. eigenvalues --   -0.31254  -0.31166  -0.30943  -0.30913  -0.30816
 Alpha  occ. eigenvalues --   -0.30725  -0.30526  -0.30432  -0.30164  -0.29867
 Alpha  occ. eigenvalues --   -0.29787  -0.29758  -0.29502  -0.28985  -0.28817
 Alpha  occ. eigenvalues --   -0.28531  -0.28508  -0.28420  -0.28292  -0.28125
 Alpha  occ. eigenvalues --   -0.27913  -0.27812  -0.27061  -0.26835  -0.26612
 Alpha  occ. eigenvalues --   -0.26181  -0.26085  -0.25897  -0.25331  -0.25175
 Alpha  occ. eigenvalues --   -0.25115  -0.24942  -0.24226  -0.24225  -0.23823
 Alpha  occ. eigenvalues --   -0.23212  -0.22736  -0.21973  -0.21767  -0.21272
 Alpha  occ. eigenvalues --   -0.20134  -0.19144  -0.19126  -0.18441  -0.17724
 Alpha  occ. eigenvalues --   -0.15983
 Alpha virt. eigenvalues --   -0.11910  -0.07040  -0.06184  -0.04720  -0.02957
 Alpha virt. eigenvalues --   -0.02736  -0.02615  -0.01917  -0.01709   0.00115
 Alpha virt. eigenvalues --    0.00789   0.01573   0.02001   0.02364   0.02498

 Mulliken charges:
               1
     1  Mg   0.709271
     2  C   -0.005663
     3  C   -0.066558
     4  C   -0.062007
     5  C   -0.078976
     6  N   -0.232867
     7  C   -0.090396
     8  C   -0.002307
     9  C    0.006676
    10  C    0.016449
    11  C    0.136798
    12  C    0.128238
    13  C    0.076550
    14  C    0.075416
    15  O   -0.167782
    16  O   -0.252858
    17  N   -0.320730
    18  C    0.141563
    19  C   -0.129707
    20  C    0.002854
    21  C    0.122038
    22  C    0.174831
    23  C   -0.083727
    24  O   -0.181546
    25  C    0.156304
    26  N   -0.228739
    27  C    0.034261
    28  C    0.014024
    29  C    0.105374
    30  C   -0.027120
    31  C    0.098753
    32  C    0.082298
    33  C    0.116529
    34  N   -0.216656
    35  C    0.085740
    36  C   -0.218948
    37  C    0.107051
    38  C    0.091396
    39  C    0.200485
    40  C   -0.053172
    41  O   -0.112926
    42  C    0.079916
    43  C    0.088799
    44  O   -0.157783
    45  O   -0.286198
    46  C    0.219788
    47  C    0.299255
    48  C   -0.090605
    49  C   -0.174118
    50  C    0.125064
    51  C    0.188410
    52  C    0.095704
    53  C    0.012894
    54  C   -0.067983
    55  C    0.115266
    56  C    0.103400
    57  C    0.084675
    58  C    0.118753
    59  C   -0.126350
    60  C    0.103217
    61  C    0.110061
    62  C    0.055354
    63  C    0.126046
    64  C   -0.153544
    65  C    0.099173
    66  C    0.125257
    67  H   -0.050158
    68  H   -0.094404
    69  H   -0.073141
    70  H   -0.017049
    71  H   -0.032296
    72  H    0.001087
    73  H   -0.003749
    74  H   -0.001811
    75  H   -0.014775
    76  H   -0.004281
    77  H    0.030906
    78  H    0.001350
    79  H   -0.007953
    80  H   -0.015418
    81  H    0.013816
    82  H    0.021492
    83  H    0.021076
    84  H   -0.012362
    85  H   -0.019700
    86  H   -0.028526
    87  H    0.000100
    88  H   -0.015770
    89  H   -0.001909
    90  H   -0.017977
    91  H   -0.016541
    92  H    0.018042
    93  H   -0.039115
    94  H   -0.023402
    95  H   -0.002874
    96  H    0.008822
    97  H   -0.003762
    98  H    0.000169
    99  H    0.020097
   100  H    0.002900
   101  H    0.020317
   102  H    0.006067
   103  H   -0.004897
   104  H   -0.036334
   105  H    0.005994
   106  H   -0.016549
   107  H   -0.001739
   108  H   -0.036956
   109  H   -0.025450
   110  H   -0.026830
   111  H   -0.024967
   112  H   -0.039484
   113  H   -0.033841
   114  H   -0.041262
   115  H   -0.006921
   116  H   -0.013742
   117  H   -0.012166
   118  H   -0.042651
   119  H   -0.040750
   120  H   -0.041145
   121  H   -0.019366
   122  H   -0.026341
   123  H   -0.015837
   124  H   -0.034058
   125  H   -0.026197
   126  H   -0.016399
   127  H   -0.019488
   128  H   -0.034579
   129  H   -0.042545
   130  H   -0.040298
   131  H   -0.036202
   132  H   -0.028779
   133  H   -0.031707
   134  H   -0.029431
   135  H   -0.006109
   136  H   -0.024812
   137  H   -0.004754
   138  H   -0.017693
   139  H   -0.012852
   140  H   -0.006796
 Sum of Mulliken charges =  -0.00000

 Dipole moment (field-independent basis, Debye):
    X=              1.6157    Y=              4.6387    Z=              2.5791  Tot=              5.5480
 Quadrupole moment (field-independent basis, Debye-Ang):
   XX=           -367.8461   YY=           -438.9428   ZZ=           -409.1430
   XY=             18.7459   XZ=              2.7360   YZ=             38.8546

 Normal termination of Gaussian 16 at Sat Apr 30 05:50:38 2022.
