 Gaussian 16, Revision A.03,
 Gaussian 16:  ES64L-G16RevA.03 25-Dec-2016

 -----------------------------------
 #p cam-b3lyp/Def2SVP td=(nstates=5)
 -----------------------------------

 -------------------------------------------------------
 step_601_chromophore_14 TDDFT with cam-b3lyp functional
 -------------------------------------------------------
 Symbolic Z-matrix:
 Charge =  0 Multiplicity = 1

                         Standard orientation:
 ---------------------------------------------------------------------
 Center     Atomic      Atomic             Coordinates (Angstroms)
 Number     Number       Type             X           Y           Z
 ---------------------------------------------------------------------
      1         12           0        5.161485    0.923690   -0.119898
      2          6           0        4.992327   -2.596125    0.323653
      3          6           0        4.118009    0.410465   -3.400003
      4          6           0        4.713128    4.215519   -0.266096
      5          6           0        5.752575    1.170566    3.276007
      6          7           0        4.653851   -0.823157   -1.294016
      7          6           0        4.552775   -2.186010   -0.923594
      8          6           0        4.018532   -3.094934   -2.101728
      9          6           0        4.191754   -2.129854   -3.278616
     10          6           0        4.304921   -0.753667   -2.612257
     11          6           0        5.432897   -2.441677   -4.192929
     12          6           0        2.560953   -3.619262   -1.916399
     13          6           0        1.563950   -2.627376   -1.428509
     14          6           0       -0.014302   -2.946452   -1.536888
     15          8           0       -0.464743   -3.897244   -2.114910
     16          8           0       -0.786792   -1.903358   -1.107019
     17          7           0        4.480783    2.187119   -1.590827
     18          6           0        4.072077    1.805819   -2.889853
     19          6           0        3.643090    2.923840   -3.602269
     20          6           0        3.858980    4.096826   -2.782981
     21          6           0        4.391492    3.536061   -1.456778
     22          6           0        3.169192    2.879142   -5.082304
     23          6           0        3.699448    5.560194   -3.211997
     24          8           0        3.262381    5.796256   -4.357557
     25          6           0        4.062156    6.647837   -2.271643
     26          7           0        5.170015    2.469445    1.319876
     27          6           0        5.072205    3.770091    0.989804
     28          6           0        5.183618    4.654897    2.227119
     29          6           0        5.437943    3.708923    3.426714
     30          6           0        5.489010    2.382102    2.659802
     31          6           0        6.189529    5.912968    2.048026
     32          6           0        4.283518    3.735444    4.447479
     33          6           0        4.660046    3.505437    5.886011
     34          7           0        5.437438   -0.378342    1.480200
     35          6           0        5.752606   -0.128796    2.753347
     36          6           0        6.098656   -1.397232    3.455386
     37          6           0        5.767844   -2.350723    2.548089
     38          6           0        5.344101   -1.718518    1.343553
     39          6           0        6.418017   -1.592663    4.885295
     40          6           0        5.676421   -3.793038    2.356000
     41          8           0        5.834096   -4.696914    3.151870
     42          6           0        5.110521   -3.989433    0.872309
     43          6           0        6.057567   -4.847643    0.120223
     44          8           0        5.757565   -5.811150   -0.544761
     45          8           0        7.348770   -4.370297    0.203239
     46          6           0        8.379350   -4.944409   -0.653966
     47          6           0       -2.187442   -2.182425   -1.114004
     48          6           0       -2.870917   -0.840672   -0.650075
     49          6           0       -4.079356   -0.212939   -1.079035
     50          6           0       -4.947955   -0.911091   -2.136793
     51          6           0       -4.519960    1.034212   -0.423668
     52          6           0       -5.427299    0.884394    0.761369
     53          6           0       -6.985810    1.074380    0.405033
     54          6           0       -7.988843    0.220416    1.268473
     55          6           0       -7.715040    0.214814    2.794407
     56          6           0       -8.168255   -1.154255    0.631631
     57          6           0       -9.533563   -1.357230   -0.060575
     58          6           0      -10.534653   -1.970776    0.945240
     59          6           0      -11.773169   -0.989118    0.968786
     60          6           0      -12.530292   -1.255264    2.269841
     61          6           0      -12.740406   -1.196687   -0.220555
     62          6           0      -13.498855    0.061875   -0.686071
     63          6           0      -15.062541    0.086221   -0.607213
     64          6           0      -15.563884    1.297341    0.254410
     65          6           0      -16.694844    0.830195    1.262354
     66          6           0      -15.971462    2.476556   -0.630232
     67          1           0        4.053397    0.220419   -4.473492
     68          1           0        4.511084    5.289230   -0.297965
     69          1           0        6.107853    1.210737    4.307536
     70          1           0        4.635302   -3.985545   -2.215292
     71          1           0        3.248085   -2.120836   -3.824952
     72          1           0        5.058230   -2.770521   -5.162390
     73          1           0        6.006922   -3.248426   -3.735409
     74          1           0        6.095865   -1.589288   -4.337083
     75          1           0        2.676383   -4.325210   -1.093782
     76          1           0        2.332878   -4.025343   -2.902083
     77          1           0        1.781915   -1.641315   -1.838860
     78          1           0        1.709254   -2.783705   -0.360156
     79          1           0        2.105177    2.644033   -5.038810
     80          1           0        3.604922    2.077378   -5.678478
     81          1           0        3.266285    3.836957   -5.593397
     82          1           0        5.079708    6.553964   -1.889723
     83          1           0        3.333552    6.604405   -1.462055
     84          1           0        3.934677    7.590621   -2.801813
     85          1           0        4.197078    5.118499    2.235670
     86          1           0        6.444470    3.821870    3.828155
     87          1           0        7.099303    5.595095    1.539199
     88          1           0        6.531596    6.349649    2.986790
     89          1           0        5.679726    6.765521    1.601212
     90          1           0        3.634902    2.967931    4.025001
     91          1           0        3.726449    4.671551    4.426169
     92          1           0        5.098629    4.361310    6.398384
     93          1           0        5.222417    2.577075    5.993326
     94          1           0        3.797978    2.991649    6.313784
     95          1           0        7.481784   -1.822751    4.930686
     96          1           0        5.954475   -2.533320    5.182684
     97          1           0        6.173268   -0.709725    5.475291
     98          1           0        4.181950   -4.547676    0.989705
     99          1           0        9.368432   -4.735765   -0.244858
    100          1           0        8.297476   -4.483749   -1.638068
    101          1           0        8.258427   -6.016280   -0.810570
    102          1           0       -2.497345   -3.007384   -0.471225
    103          1           0       -2.413939   -2.496196   -2.132328
    104          1           0       -2.327079   -0.274570    0.106734
    105          1           0       -5.988649   -1.015842   -1.830142
    106          1           0       -4.601454   -1.900960   -2.434790
    107          1           0       -4.869275   -0.298876   -3.034760
    108          1           0       -5.067139    1.523404   -1.230228
    109          1           0       -3.663794    1.669061   -0.192461
    110          1           0       -5.175457    1.591969    1.551383
    111          1           0       -5.496694   -0.097287    1.228789
    112          1           0       -7.093121    0.806595   -0.645952
    113          1           0       -7.232663    2.135980    0.422898
    114          1           0       -8.908296    0.769281    1.067445
    115          1           0       -8.541160    0.055630    3.488310
    116          1           0       -7.245929    1.182329    2.974053
    117          1           0       -7.051262   -0.622149    3.009234
    118          1           0       -8.058830   -1.876434    1.441266
    119          1           0       -7.407036   -1.255257   -0.141721
    120          1           0       -9.386534   -2.118955   -0.825635
    121          1           0       -9.720301   -0.390783   -0.528831
    122          1           0      -10.102211   -1.875104    1.941016
    123          1           0      -10.910522   -2.966561    0.707278
    124          1           0      -11.504022    0.067275    0.978815
    125          1           0      -12.472672   -2.340286    2.361700
    126          1           0      -13.549909   -0.886609    2.154651
    127          1           0      -12.091870   -0.895894    3.201230
    128          1           0      -13.461227   -1.964716    0.061038
    129          1           0      -12.098572   -1.475054   -1.056956
    130          1           0      -13.194709    0.216131   -1.721685
    131          1           0      -13.033429    0.885246   -0.145323
    132          1           0      -15.432256   -0.841230   -0.168830
    133          1           0      -15.402434    0.230449   -1.632212
    134          1           0      -14.733763    1.602078    0.892677
    135          1           0      -17.090448   -0.113606    0.886564
    136          1           0      -17.496434    1.568491    1.302881
    137          1           0      -16.211332    0.796901    2.237989
    138          1           0      -15.600892    3.273303    0.015255
    139          1           0      -17.060299    2.501852   -0.654022
    140          1           0      -15.501681    2.511652   -1.613193
 ---------------------------------------------------------------------

 SCF Done:  E(RCAM-B3LYP) =  -3007.18060795     A.U. after   17 cycles

 Excitation energies and oscillator strengths:

 Excited State   1:      Singlet-A      1.6441 eV  754.10 nm  f=0.3768  <S**2>=0.000
     245 -> 248        0.16690
     246 -> 247        0.68983
     245 <- 248        0.10781
 This state for optimization and/or second-order correction.
 Total Energy, E(TD-HF/TD-DFT) =  -3007.12018738
 Copying the excited state density for this state as the 1-particle RhoCI density.

 Excited State   2:      Singlet-A      2.2592 eV  548.80 nm  f=0.1061  <S**2>=0.000
     245 -> 247        0.63388
     246 -> 248       -0.29956

 Excited State   3:      Singlet-A      3.2123 eV  385.97 nm  f=0.0079  <S**2>=0.000
     243 -> 247        0.68719

 Excited State   4:      Singlet-A      3.4928 eV  354.97 nm  f=0.0073  <S**2>=0.000
     241 -> 247        0.54703
     241 -> 248        0.16685
     241 -> 249        0.22874
     241 -> 250        0.12791
     241 -> 251       -0.22770
     242 -> 247       -0.13286

 Excited State   5:      Singlet-A      3.5566 eV  348.60 nm  f=0.5843  <S**2>=0.000
     242 -> 247        0.25324
     245 -> 247        0.27408
     246 -> 248        0.58362
     245 <- 247       -0.10528

 The electronic state is 1-A.
 Alpha  occ. eigenvalues --  -46.88345 -19.24926 -19.24787 -19.20158 -19.19954
 Alpha  occ. eigenvalues --  -19.19804 -19.18430 -14.42799 -14.42352 -14.39842
 Alpha  occ. eigenvalues --  -14.39671 -10.39652 -10.39427 -10.35558 -10.35047
 Alpha  occ. eigenvalues --  -10.32042 -10.31954 -10.31627 -10.31118 -10.31076
 Alpha  occ. eigenvalues --  -10.31061 -10.31023 -10.30205 -10.29988 -10.29008
 Alpha  occ. eigenvalues --  -10.28739 -10.28708 -10.28331 -10.28269 -10.28068
 Alpha  occ. eigenvalues --  -10.28008 -10.27906 -10.27848 -10.27845 -10.27607
 Alpha  occ. eigenvalues --  -10.27521 -10.27339 -10.27255 -10.26963 -10.26761
 Alpha  occ. eigenvalues --  -10.26755 -10.26612 -10.26609 -10.26361 -10.26358
 Alpha  occ. eigenvalues --  -10.26178 -10.26092 -10.25880 -10.25540 -10.25533
 Alpha  occ. eigenvalues --  -10.25313 -10.25302 -10.25300 -10.25214 -10.25051
 Alpha  occ. eigenvalues --  -10.25049 -10.24979 -10.24955 -10.24663 -10.24586
 Alpha  occ. eigenvalues --  -10.24498 -10.24365 -10.24260 -10.24198 -10.24190
 Alpha  occ. eigenvalues --  -10.23831  -3.17029  -1.91926  -1.91473  -1.91348
 Alpha  occ. eigenvalues --   -1.17381  -1.16608  -1.10787  -1.08727  -1.08306
 Alpha  occ. eigenvalues --   -1.08258  -1.05310  -1.04279  -1.02948  -1.01705
 Alpha  occ. eigenvalues --   -0.93578  -0.90462  -0.90103  -0.90024  -0.89536
 Alpha  occ. eigenvalues --   -0.88577  -0.88303  -0.88039  -0.87123  -0.86817
 Alpha  occ. eigenvalues --   -0.85702  -0.84972  -0.84298  -0.84050  -0.83520
 Alpha  occ. eigenvalues --   -0.82700  -0.82205  -0.81243  -0.80717  -0.80515
 Alpha  occ. eigenvalues --   -0.79764  -0.78386  -0.77685  -0.77175  -0.76451
 Alpha  occ. eigenvalues --   -0.76054  -0.75356  -0.75328  -0.74492  -0.74243
 Alpha  occ. eigenvalues --   -0.73349  -0.72516  -0.72038  -0.70378  -0.70117
 Alpha  occ. eigenvalues --   -0.68912  -0.68275  -0.66922  -0.66613  -0.66510
 Alpha  occ. eigenvalues --   -0.65795  -0.65110  -0.64661  -0.64289  -0.63377
 Alpha  occ. eigenvalues --   -0.63189  -0.63162  -0.62256  -0.61542  -0.60307
 Alpha  occ. eigenvalues --   -0.59811  -0.59430  -0.58830  -0.58561  -0.58048
 Alpha  occ. eigenvalues --   -0.57458  -0.57082  -0.56299  -0.56187  -0.55651
 Alpha  occ. eigenvalues --   -0.55472  -0.55087  -0.54990  -0.54918  -0.54453
 Alpha  occ. eigenvalues --   -0.53894  -0.53656  -0.53316  -0.53030  -0.52988
 Alpha  occ. eigenvalues --   -0.52838  -0.52449  -0.52354  -0.52057  -0.51911
 Alpha  occ. eigenvalues --   -0.51640  -0.51370  -0.51194  -0.51131  -0.50733
 Alpha  occ. eigenvalues --   -0.50614  -0.50394  -0.50093  -0.49998  -0.49776
 Alpha  occ. eigenvalues --   -0.49666  -0.49411  -0.49306  -0.49049  -0.48799
 Alpha  occ. eigenvalues --   -0.48689  -0.48446  -0.48290  -0.47981  -0.47609
 Alpha  occ. eigenvalues --   -0.47449  -0.47268  -0.46977  -0.46937  -0.46689
 Alpha  occ. eigenvalues --   -0.46471  -0.46393  -0.46353  -0.46199  -0.46120
 Alpha  occ. eigenvalues --   -0.46073  -0.45752  -0.45529  -0.45280  -0.44993
 Alpha  occ. eigenvalues --   -0.44786  -0.44756  -0.44566  -0.44370  -0.44067
 Alpha  occ. eigenvalues --   -0.44016  -0.43769  -0.43632  -0.43480  -0.43026
 Alpha  occ. eigenvalues --   -0.42561  -0.42531  -0.42307  -0.42267  -0.42210
 Alpha  occ. eigenvalues --   -0.42178  -0.41978  -0.41822  -0.41765  -0.41565
 Alpha  occ. eigenvalues --   -0.41379  -0.41244  -0.40659  -0.40153  -0.39867
 Alpha  occ. eigenvalues --   -0.39737  -0.39499  -0.39447  -0.39310  -0.39024
 Alpha  occ. eigenvalues --   -0.38765  -0.38708  -0.38147  -0.37848  -0.37597
 Alpha  occ. eigenvalues --   -0.37015  -0.36898  -0.36722  -0.36618  -0.36488
 Alpha  occ. eigenvalues --   -0.35914  -0.35492  -0.35234  -0.34910  -0.34692
 Alpha  occ. eigenvalues --   -0.33648  -0.33518  -0.33209  -0.31643  -0.31150
 Alpha  occ. eigenvalues --   -0.30811  -0.30697  -0.29394  -0.28512  -0.24587
 Alpha  occ. eigenvalues --   -0.21245
 Alpha virt. eigenvalues --   -0.09099  -0.01881   0.00349   0.02016   0.02405
 Alpha virt. eigenvalues --    0.04798   0.04973   0.05124   0.06253   0.06785
 Alpha virt. eigenvalues --    0.07478   0.08142   0.08490   0.08568   0.08685

 Mulliken charges:
               1
     1  Mg   0.843689
     2  C   -0.035665
     3  C   -0.073552
     4  C   -0.083428
     5  C   -0.086504
     6  N   -0.300121
     7  C   -0.050667
     8  C   -0.045805
     9  C   -0.051713
    10  C    0.027695
    11  C    0.081833
    12  C    0.086793
    13  C    0.005852
    14  C    0.158182
    15  O   -0.208559
    16  O   -0.315601
    17  N   -0.408381
    18  C    0.145830
    19  C   -0.138643
    20  C   -0.062793
    21  C    0.153200
    22  C    0.121209
    23  C   -0.001456
    24  O   -0.224555
    25  C    0.064941
    26  N   -0.301733
    27  C    0.058717
    28  C   -0.043138
    29  C    0.043695
    30  C   -0.006020
    31  C    0.044977
    32  C    0.027422
    33  C    0.049396
    34  N   -0.305548
    35  C    0.090745
    36  C   -0.203677
    37  C    0.024010
    38  C    0.124623
    39  C    0.141608
    40  C    0.052234
    41  O   -0.150599
    42  C    0.001084
    43  C    0.181604
    44  O   -0.197098
    45  O   -0.349853
    46  C    0.182043
    47  C    0.265393
    48  C   -0.109935
    49  C   -0.195039
    50  C    0.069168
    51  C    0.120734
    52  C    0.038372
    53  C   -0.025984
    54  C   -0.125948
    55  C    0.056467
    56  C    0.050384
    57  C    0.030006
    58  C    0.063161
    59  C   -0.176736
    60  C    0.050519
    61  C    0.055173
    62  C    0.004699
    63  C    0.066631
    64  C   -0.206236
    65  C    0.041933
    66  C    0.064276
    67  H   -0.015161
    68  H   -0.059089
    69  H   -0.039284
    70  H    0.019408
    71  H    0.004210
    72  H    0.025211
    73  H    0.018002
    74  H    0.023892
    75  H    0.011605
    76  H    0.026447
    77  H    0.058725
    78  H    0.030961
    79  H    0.019468
    80  H    0.009072
    81  H    0.044849
    82  H    0.048950
    83  H    0.047539
    84  H    0.025257
    85  H    0.015793
    86  H    0.007878
    87  H    0.024260
    88  H    0.009873
    89  H    0.019909
    90  H    0.013517
    91  H    0.011936
    92  H    0.041120
    93  H   -0.016937
    94  H    0.003874
    95  H    0.025560
    96  H    0.036877
    97  H    0.019339
    98  H    0.041674
    99  H    0.043057
   100  H    0.023233
   101  H    0.045217
   102  H    0.032973
   103  H    0.024444
   104  H   -0.002103
   105  H    0.022850
   106  H    0.008659
   107  H    0.022930
   108  H   -0.006516
   109  H    0.007831
   110  H    0.002445
   111  H    0.002594
   112  H   -0.014152
   113  H   -0.004842
   114  H   -0.008974
   115  H    0.016927
   116  H    0.010147
   117  H    0.009588
   118  H   -0.013090
   119  H   -0.016083
   120  H   -0.009775
   121  H    0.005766
   122  H    0.000644
   123  H    0.012811
   124  H   -0.006000
   125  H   -0.002792
   126  H    0.003373
   127  H    0.005401
   128  H   -0.006511
   129  H   -0.011949
   130  H   -0.010318
   131  H   -0.009677
   132  H   -0.001806
   133  H   -0.001782
   134  H    0.000075
   135  H    0.016757
   136  H   -0.000023
   137  H    0.017517
   138  H    0.006253
   139  H    0.010512
   140  H    0.016341
 Sum of Mulliken charges =  -0.00000

 Dipole moment (field-independent basis, Debye):
    X=              1.8559    Y=              4.8960    Z=              2.6088  Tot=              5.8499
 Quadrupole moment (field-independent basis, Debye-Ang):
   XX=           -366.5660   YY=           -435.9008   ZZ=           -407.7786
   XY=             19.4680   XZ=              2.4290   YZ=             39.6336

 Normal termination of Gaussian 16 at Sat Apr 30 04:49:51 2022.
