 Gaussian 16, Revision A.03,
 Gaussian 16:  ES64L-G16RevA.03 25-Dec-2016

 ---------------------------------
 #p PBE1PBE/Def2SVP td=(nstates=5)
 ---------------------------------

 -----------------------------------------------------
 step_601_chromophore_14 TDDFT with PBE1PBE functional
 -----------------------------------------------------
 Symbolic Z-matrix:
 Charge =  0 Multiplicity = 1

                         Standard orientation:
 ---------------------------------------------------------------------
 Center     Atomic      Atomic             Coordinates (Angstroms)
 Number     Number       Type             X           Y           Z
 ---------------------------------------------------------------------
      1         12           0        5.161485    0.923690   -0.119898
      2          6           0        4.992327   -2.596125    0.323653
      3          6           0        4.118009    0.410465   -3.400003
      4          6           0        4.713128    4.215519   -0.266096
      5          6           0        5.752575    1.170566    3.276007
      6          7           0        4.653851   -0.823157   -1.294016
      7          6           0        4.552775   -2.186010   -0.923594
      8          6           0        4.018532   -3.094934   -2.101728
      9          6           0        4.191754   -2.129854   -3.278616
     10          6           0        4.304921   -0.753667   -2.612257
     11          6           0        5.432897   -2.441677   -4.192929
     12          6           0        2.560953   -3.619262   -1.916399
     13          6           0        1.563950   -2.627376   -1.428509
     14          6           0       -0.014302   -2.946452   -1.536888
     15          8           0       -0.464743   -3.897244   -2.114910
     16          8           0       -0.786792   -1.903358   -1.107019
     17          7           0        4.480783    2.187119   -1.590827
     18          6           0        4.072077    1.805819   -2.889853
     19          6           0        3.643090    2.923840   -3.602269
     20          6           0        3.858980    4.096826   -2.782981
     21          6           0        4.391492    3.536061   -1.456778
     22          6           0        3.169192    2.879142   -5.082304
     23          6           0        3.699448    5.560194   -3.211997
     24          8           0        3.262381    5.796256   -4.357557
     25          6           0        4.062156    6.647837   -2.271643
     26          7           0        5.170015    2.469445    1.319876
     27          6           0        5.072205    3.770091    0.989804
     28          6           0        5.183618    4.654897    2.227119
     29          6           0        5.437943    3.708923    3.426714
     30          6           0        5.489010    2.382102    2.659802
     31          6           0        6.189529    5.912968    2.048026
     32          6           0        4.283518    3.735444    4.447479
     33          6           0        4.660046    3.505437    5.886011
     34          7           0        5.437438   -0.378342    1.480200
     35          6           0        5.752606   -0.128796    2.753347
     36          6           0        6.098656   -1.397232    3.455386
     37          6           0        5.767844   -2.350723    2.548089
     38          6           0        5.344101   -1.718518    1.343553
     39          6           0        6.418017   -1.592663    4.885295
     40          6           0        5.676421   -3.793038    2.356000
     41          8           0        5.834096   -4.696914    3.151870
     42          6           0        5.110521   -3.989433    0.872309
     43          6           0        6.057567   -4.847643    0.120223
     44          8           0        5.757565   -5.811150   -0.544761
     45          8           0        7.348770   -4.370297    0.203239
     46          6           0        8.379350   -4.944409   -0.653966
     47          6           0       -2.187442   -2.182425   -1.114004
     48          6           0       -2.870917   -0.840672   -0.650075
     49          6           0       -4.079356   -0.212939   -1.079035
     50          6           0       -4.947955   -0.911091   -2.136793
     51          6           0       -4.519960    1.034212   -0.423668
     52          6           0       -5.427299    0.884394    0.761369
     53          6           0       -6.985810    1.074380    0.405033
     54          6           0       -7.988843    0.220416    1.268473
     55          6           0       -7.715040    0.214814    2.794407
     56          6           0       -8.168255   -1.154255    0.631631
     57          6           0       -9.533563   -1.357230   -0.060575
     58          6           0      -10.534653   -1.970776    0.945240
     59          6           0      -11.773169   -0.989118    0.968786
     60          6           0      -12.530292   -1.255264    2.269841
     61          6           0      -12.740406   -1.196687   -0.220555
     62          6           0      -13.498855    0.061875   -0.686071
     63          6           0      -15.062541    0.086221   -0.607213
     64          6           0      -15.563884    1.297341    0.254410
     65          6           0      -16.694844    0.830195    1.262354
     66          6           0      -15.971462    2.476556   -0.630232
     67          1           0        4.053397    0.220419   -4.473492
     68          1           0        4.511084    5.289230   -0.297965
     69          1           0        6.107853    1.210737    4.307536
     70          1           0        4.635302   -3.985545   -2.215292
     71          1           0        3.248085   -2.120836   -3.824952
     72          1           0        5.058230   -2.770521   -5.162390
     73          1           0        6.006922   -3.248426   -3.735409
     74          1           0        6.095865   -1.589288   -4.337083
     75          1           0        2.676383   -4.325210   -1.093782
     76          1           0        2.332878   -4.025343   -2.902083
     77          1           0        1.781915   -1.641315   -1.838860
     78          1           0        1.709254   -2.783705   -0.360156
     79          1           0        2.105177    2.644033   -5.038810
     80          1           0        3.604922    2.077378   -5.678478
     81          1           0        3.266285    3.836957   -5.593397
     82          1           0        5.079708    6.553964   -1.889723
     83          1           0        3.333552    6.604405   -1.462055
     84          1           0        3.934677    7.590621   -2.801813
     85          1           0        4.197078    5.118499    2.235670
     86          1           0        6.444470    3.821870    3.828155
     87          1           0        7.099303    5.595095    1.539199
     88          1           0        6.531596    6.349649    2.986790
     89          1           0        5.679726    6.765521    1.601212
     90          1           0        3.634902    2.967931    4.025001
     91          1           0        3.726449    4.671551    4.426169
     92          1           0        5.098629    4.361310    6.398384
     93          1           0        5.222417    2.577075    5.993326
     94          1           0        3.797978    2.991649    6.313784
     95          1           0        7.481784   -1.822751    4.930686
     96          1           0        5.954475   -2.533320    5.182684
     97          1           0        6.173268   -0.709725    5.475291
     98          1           0        4.181950   -4.547676    0.989705
     99          1           0        9.368432   -4.735765   -0.244858
    100          1           0        8.297476   -4.483749   -1.638068
    101          1           0        8.258427   -6.016280   -0.810570
    102          1           0       -2.497345   -3.007384   -0.471225
    103          1           0       -2.413939   -2.496196   -2.132328
    104          1           0       -2.327079   -0.274570    0.106734
    105          1           0       -5.988649   -1.015842   -1.830142
    106          1           0       -4.601454   -1.900960   -2.434790
    107          1           0       -4.869275   -0.298876   -3.034760
    108          1           0       -5.067139    1.523404   -1.230228
    109          1           0       -3.663794    1.669061   -0.192461
    110          1           0       -5.175457    1.591969    1.551383
    111          1           0       -5.496694   -0.097287    1.228789
    112          1           0       -7.093121    0.806595   -0.645952
    113          1           0       -7.232663    2.135980    0.422898
    114          1           0       -8.908296    0.769281    1.067445
    115          1           0       -8.541160    0.055630    3.488310
    116          1           0       -7.245929    1.182329    2.974053
    117          1           0       -7.051262   -0.622149    3.009234
    118          1           0       -8.058830   -1.876434    1.441266
    119          1           0       -7.407036   -1.255257   -0.141721
    120          1           0       -9.386534   -2.118955   -0.825635
    121          1           0       -9.720301   -0.390783   -0.528831
    122          1           0      -10.102211   -1.875104    1.941016
    123          1           0      -10.910522   -2.966561    0.707278
    124          1           0      -11.504022    0.067275    0.978815
    125          1           0      -12.472672   -2.340286    2.361700
    126          1           0      -13.549909   -0.886609    2.154651
    127          1           0      -12.091870   -0.895894    3.201230
    128          1           0      -13.461227   -1.964716    0.061038
    129          1           0      -12.098572   -1.475054   -1.056956
    130          1           0      -13.194709    0.216131   -1.721685
    131          1           0      -13.033429    0.885246   -0.145323
    132          1           0      -15.432256   -0.841230   -0.168830
    133          1           0      -15.402434    0.230449   -1.632212
    134          1           0      -14.733763    1.602078    0.892677
    135          1           0      -17.090448   -0.113606    0.886564
    136          1           0      -17.496434    1.568491    1.302881
    137          1           0      -16.211332    0.796901    2.237989
    138          1           0      -15.600892    3.273303    0.015255
    139          1           0      -17.060299    2.501852   -0.654022
    140          1           0      -15.501681    2.511652   -1.613193
 ---------------------------------------------------------------------

 SCF Done:  E(RPBE1PBE) =  -3005.36923646     A.U. after   15 cycles

 Excitation energies and oscillator strengths:

 Excited State   1:      Singlet-A      1.8066 eV  686.29 nm  f=0.3661  <S**2>=0.000
     245 -> 248        0.16076
     246 -> 247        0.69775
     246 <- 247       -0.11734
 This state for optimization and/or second-order correction.
 Total Energy, E(TD-HF/TD-DFT) =  -3005.30284528
 Copying the excited state density for this state as the 1-particle RhoCI density.

 Excited State   2:      Singlet-A      2.2737 eV  545.30 nm  f=0.1054  <S**2>=0.000
     245 -> 247        0.64438
     246 -> 248       -0.27510

 Excited State   3:      Singlet-A      2.8611 eV  433.35 nm  f=0.0064  <S**2>=0.000
     242 -> 247       -0.18722
     243 -> 247        0.66598

 Excited State   4:      Singlet-A      2.9568 eV  419.31 nm  f=0.0000  <S**2>=0.000
     244 -> 247        0.70693

 Excited State   5:      Singlet-A      2.9704 eV  417.40 nm  f=0.0035  <S**2>=0.000
     242 -> 247        0.64974
     243 -> 247        0.20129

 The electronic state is 1-A.
 Alpha  occ. eigenvalues --  -46.91746 -19.25520 -19.25487 -19.20347 -19.20233
 Alpha  occ. eigenvalues --  -19.19984 -19.18668 -14.42328 -14.41854 -14.39505
 Alpha  occ. eigenvalues --  -14.39272 -10.36625 -10.36496 -10.32694 -10.32183
 Alpha  occ. eigenvalues --  -10.29406 -10.29365 -10.29216 -10.28865 -10.28813
 Alpha  occ. eigenvalues --  -10.28743 -10.28699 -10.27931 -10.27688 -10.26692
 Alpha  occ. eigenvalues --  -10.26564 -10.26279 -10.26141 -10.26091 -10.25817
 Alpha  occ. eigenvalues --  -10.25659 -10.25658 -10.25578 -10.25521 -10.25292
 Alpha  occ. eigenvalues --  -10.25146 -10.24980 -10.24749 -10.24573 -10.24392
 Alpha  occ. eigenvalues --  -10.24379 -10.24211 -10.24108 -10.23798 -10.23774
 Alpha  occ. eigenvalues --  -10.23662 -10.23534 -10.23269 -10.23254 -10.23060
 Alpha  occ. eigenvalues --  -10.22990 -10.22911 -10.22864 -10.22728 -10.22688
 Alpha  occ. eigenvalues --  -10.22672 -10.22634 -10.22355 -10.22230 -10.22161
 Alpha  occ. eigenvalues --  -10.21919 -10.21912 -10.21812 -10.21770 -10.21577
 Alpha  occ. eigenvalues --  -10.21206  -3.14005  -1.86843  -1.86369  -1.86247
 Alpha  occ. eigenvalues --   -1.12230  -1.11320  -1.05506  -1.03627  -1.03054
 Alpha  occ. eigenvalues --   -1.03020  -0.99964  -0.98897  -0.97522  -0.96361
 Alpha  occ. eigenvalues --   -0.87904  -0.84542  -0.84386  -0.84257  -0.83636
 Alpha  occ. eigenvalues --   -0.82895  -0.82414  -0.82356  -0.81240  -0.81131
 Alpha  occ. eigenvalues --   -0.79974  -0.79227  -0.78568  -0.78257  -0.77711
 Alpha  occ. eigenvalues --   -0.76920  -0.76394  -0.75548  -0.74984  -0.74773
 Alpha  occ. eigenvalues --   -0.73949  -0.72697  -0.71955  -0.71424  -0.70751
 Alpha  occ. eigenvalues --   -0.70184  -0.69681  -0.69424  -0.68627  -0.68418
 Alpha  occ. eigenvalues --   -0.67774  -0.66851  -0.66422  -0.64682  -0.64484
 Alpha  occ. eigenvalues --   -0.63361  -0.62569  -0.61377  -0.60965  -0.60791
 Alpha  occ. eigenvalues --   -0.59978  -0.59598  -0.59229  -0.58801  -0.57890
 Alpha  occ. eigenvalues --   -0.57685  -0.57250  -0.56436  -0.55780  -0.54773
 Alpha  occ. eigenvalues --   -0.54333  -0.54011  -0.53378  -0.53046  -0.52584
 Alpha  occ. eigenvalues --   -0.51872  -0.51521  -0.50842  -0.50629  -0.50167
 Alpha  occ. eigenvalues --   -0.49987  -0.49535  -0.49503  -0.49389  -0.48872
 Alpha  occ. eigenvalues --   -0.48521  -0.48078  -0.47938  -0.47562  -0.47482
 Alpha  occ. eigenvalues --   -0.47401  -0.47014  -0.46865  -0.46562  -0.46348
 Alpha  occ. eigenvalues --   -0.46215  -0.45879  -0.45771  -0.45697  -0.45412
 Alpha  occ. eigenvalues --   -0.45139  -0.44918  -0.44623  -0.44611  -0.44396
 Alpha  occ. eigenvalues --   -0.44189  -0.43956  -0.43902  -0.43662  -0.43366
 Alpha  occ. eigenvalues --   -0.43280  -0.43056  -0.42855  -0.42639  -0.42266
 Alpha  occ. eigenvalues --   -0.42132  -0.41936  -0.41685  -0.41534  -0.41396
 Alpha  occ. eigenvalues --   -0.41124  -0.41057  -0.40922  -0.40888  -0.40773
 Alpha  occ. eigenvalues --   -0.40703  -0.40461  -0.40245  -0.40019  -0.39737
 Alpha  occ. eigenvalues --   -0.39572  -0.39502  -0.39334  -0.39075  -0.38883
 Alpha  occ. eigenvalues --   -0.38724  -0.38545  -0.38433  -0.38260  -0.37820
 Alpha  occ. eigenvalues --   -0.37403  -0.37268  -0.37157  -0.37083  -0.36939
 Alpha  occ. eigenvalues --   -0.36916  -0.36856  -0.36669  -0.36538  -0.36378
 Alpha  occ. eigenvalues --   -0.36210  -0.36090  -0.35411  -0.35047  -0.34642
 Alpha  occ. eigenvalues --   -0.34612  -0.34399  -0.34225  -0.34148  -0.34001
 Alpha  occ. eigenvalues --   -0.33627  -0.33500  -0.33145  -0.32862  -0.32359
 Alpha  occ. eigenvalues --   -0.32004  -0.31718  -0.31641  -0.31471  -0.31434
 Alpha  occ. eigenvalues --   -0.30799  -0.30387  -0.30369  -0.29774  -0.29604
 Alpha  occ. eigenvalues --   -0.28799  -0.28556  -0.28430  -0.27261  -0.26359
 Alpha  occ. eigenvalues --   -0.25962  -0.25584  -0.24974  -0.23859  -0.21479
 Alpha  occ. eigenvalues --   -0.18907
 Alpha virt. eigenvalues --   -0.11543  -0.05388  -0.03888  -0.02169  -0.00607
 Alpha virt. eigenvalues --    0.00333   0.00453   0.00890   0.01597   0.03084
 Alpha virt. eigenvalues --    0.03535   0.04486   0.04805   0.05303   0.05371

 Mulliken charges:
               1
     1  Mg   0.993525
     2  C   -0.051556
     3  C   -0.058569
     4  C   -0.087160
     5  C   -0.078581
     6  N   -0.400109
     7  C    0.030396
     8  C   -0.107701
     9  C   -0.127245
    10  C    0.054429
    11  C    0.026358
    12  C    0.033239
    13  C   -0.078439
    14  C    0.228488
    15  O   -0.241323
    16  O   -0.346754
    17  N   -0.523097
    18  C    0.167618
    19  C   -0.165403
    20  C   -0.104274
    21  C    0.189262
    22  C    0.063012
    23  C    0.046397
    24  O   -0.260821
    25  C   -0.012963
    26  N   -0.406476
    27  C    0.101551
    28  C   -0.115790
    29  C   -0.038661
    30  C    0.030705
    31  C   -0.013945
    32  C   -0.031285
    33  C   -0.024936
    34  N   -0.436278
    35  C    0.113638
    36  C   -0.214595
    37  C   -0.034499
    38  C    0.172368
    39  C    0.082080
    40  C    0.158999
    41  O   -0.198362
    42  C   -0.115270
    43  C    0.277124
    44  O   -0.237041
    45  O   -0.379782
    46  C    0.127579
    47  C    0.225040
    48  C   -0.116925
    49  C   -0.237692
    50  C    0.002771
    51  C    0.048095
    52  C   -0.023415
    53  C   -0.080225
    54  C   -0.205980
    55  C   -0.007040
    56  C   -0.019154
    57  C   -0.033277
    58  C    0.004019
    59  C   -0.262475
    60  C   -0.013829
    61  C    0.001647
    62  C   -0.052276
    63  C    0.007957
    64  C   -0.292810
    65  C   -0.020384
    66  C    0.000959
    67  H    0.015276
    68  H   -0.023490
    69  H   -0.004830
    70  H    0.058432
    71  H    0.040610
    72  H    0.052480
    73  H    0.045786
    74  H    0.050853
    75  H    0.047540
    76  H    0.057987
    77  H    0.091939
    78  H    0.065415
    79  H    0.048981
    80  H    0.036109
    81  H    0.071848
    82  H    0.075274
    83  H    0.074108
    84  H    0.053651
    85  H    0.053169
    86  H    0.044756
    87  H    0.052050
    88  H    0.038046
    89  H    0.045973
    90  H    0.047202
    91  H    0.044744
    92  H    0.067674
    93  H    0.012183
    94  H    0.032833
    95  H    0.054960
    96  H    0.064690
    97  H    0.045256
    98  H    0.077848
    99  H    0.064620
   100  H    0.045702
   101  H    0.065780
   102  H    0.060037
   103  H    0.050205
   104  H    0.028317
   105  H    0.051571
   106  H    0.035735
   107  H    0.051386
   108  H    0.027841
   109  H    0.039433
   110  H    0.034716
   111  H    0.037569
   112  H    0.020318
   113  H    0.027978
   114  H    0.031492
   115  H    0.044371
   116  H    0.038994
   117  H    0.035778
   118  H    0.020356
   119  H    0.028005
   120  H    0.024116
   121  H    0.036998
   122  H    0.035894
   123  H    0.043546
   124  H    0.032185
   125  H    0.026078
   126  H    0.035039
   127  H    0.033491
   128  H    0.025549
   129  H    0.022911
   130  H    0.022496
   131  H    0.021102
   132  H    0.029293
   133  H    0.031452
   134  H    0.037449
   135  H    0.043517
   136  H    0.027761
   137  H    0.044705
   138  H    0.034553
   139  H    0.038182
   140  H    0.043268
 Sum of Mulliken charges =  -0.00000

 Dipole moment (field-independent basis, Debye):
    X=              1.8202    Y=              4.9464    Z=              2.6486  Tot=              5.8987
 Quadrupole moment (field-independent basis, Debye-Ang):
   XX=           -363.8480   YY=           -432.8264   ZZ=           -403.3669
   XY=             19.8472   XZ=              2.9440   YZ=             40.7993

 Normal termination of Gaussian 16 at Sat Apr 30 05:08:10 2022.
