 Gaussian 16, Revision A.03,
 Gaussian 16:  ES64L-G16RevA.03 25-Dec-2016

 --------------------------------
 #p wB97XD/Def2SVP td=(nstates=5)
 --------------------------------

 ----------------------------------------------------
 step_601_chromophore_14 TDDFT with wB97XD functional
 ----------------------------------------------------
 Symbolic Z-matrix:
 Charge =  0 Multiplicity = 1

                         Standard orientation:
 ---------------------------------------------------------------------
 Center     Atomic      Atomic             Coordinates (Angstroms)
 Number     Number       Type             X           Y           Z
 ---------------------------------------------------------------------
      1         12           0        5.161485    0.923690   -0.119898
      2          6           0        4.992327   -2.596125    0.323653
      3          6           0        4.118009    0.410465   -3.400003
      4          6           0        4.713128    4.215519   -0.266096
      5          6           0        5.752575    1.170566    3.276007
      6          7           0        4.653851   -0.823157   -1.294016
      7          6           0        4.552775   -2.186010   -0.923594
      8          6           0        4.018532   -3.094934   -2.101728
      9          6           0        4.191754   -2.129854   -3.278616
     10          6           0        4.304921   -0.753667   -2.612257
     11          6           0        5.432897   -2.441677   -4.192929
     12          6           0        2.560953   -3.619262   -1.916399
     13          6           0        1.563950   -2.627376   -1.428509
     14          6           0       -0.014302   -2.946452   -1.536888
     15          8           0       -0.464743   -3.897244   -2.114910
     16          8           0       -0.786792   -1.903358   -1.107019
     17          7           0        4.480783    2.187119   -1.590827
     18          6           0        4.072077    1.805819   -2.889853
     19          6           0        3.643090    2.923840   -3.602269
     20          6           0        3.858980    4.096826   -2.782981
     21          6           0        4.391492    3.536061   -1.456778
     22          6           0        3.169192    2.879142   -5.082304
     23          6           0        3.699448    5.560194   -3.211997
     24          8           0        3.262381    5.796256   -4.357557
     25          6           0        4.062156    6.647837   -2.271643
     26          7           0        5.170015    2.469445    1.319876
     27          6           0        5.072205    3.770091    0.989804
     28          6           0        5.183618    4.654897    2.227119
     29          6           0        5.437943    3.708923    3.426714
     30          6           0        5.489010    2.382102    2.659802
     31          6           0        6.189529    5.912968    2.048026
     32          6           0        4.283518    3.735444    4.447479
     33          6           0        4.660046    3.505437    5.886011
     34          7           0        5.437438   -0.378342    1.480200
     35          6           0        5.752606   -0.128796    2.753347
     36          6           0        6.098656   -1.397232    3.455386
     37          6           0        5.767844   -2.350723    2.548089
     38          6           0        5.344101   -1.718518    1.343553
     39          6           0        6.418017   -1.592663    4.885295
     40          6           0        5.676421   -3.793038    2.356000
     41          8           0        5.834096   -4.696914    3.151870
     42          6           0        5.110521   -3.989433    0.872309
     43          6           0        6.057567   -4.847643    0.120223
     44          8           0        5.757565   -5.811150   -0.544761
     45          8           0        7.348770   -4.370297    0.203239
     46          6           0        8.379350   -4.944409   -0.653966
     47          6           0       -2.187442   -2.182425   -1.114004
     48          6           0       -2.870917   -0.840672   -0.650075
     49          6           0       -4.079356   -0.212939   -1.079035
     50          6           0       -4.947955   -0.911091   -2.136793
     51          6           0       -4.519960    1.034212   -0.423668
     52          6           0       -5.427299    0.884394    0.761369
     53          6           0       -6.985810    1.074380    0.405033
     54          6           0       -7.988843    0.220416    1.268473
     55          6           0       -7.715040    0.214814    2.794407
     56          6           0       -8.168255   -1.154255    0.631631
     57          6           0       -9.533563   -1.357230   -0.060575
     58          6           0      -10.534653   -1.970776    0.945240
     59          6           0      -11.773169   -0.989118    0.968786
     60          6           0      -12.530292   -1.255264    2.269841
     61          6           0      -12.740406   -1.196687   -0.220555
     62          6           0      -13.498855    0.061875   -0.686071
     63          6           0      -15.062541    0.086221   -0.607213
     64          6           0      -15.563884    1.297341    0.254410
     65          6           0      -16.694844    0.830195    1.262354
     66          6           0      -15.971462    2.476556   -0.630232
     67          1           0        4.053397    0.220419   -4.473492
     68          1           0        4.511084    5.289230   -0.297965
     69          1           0        6.107853    1.210737    4.307536
     70          1           0        4.635302   -3.985545   -2.215292
     71          1           0        3.248085   -2.120836   -3.824952
     72          1           0        5.058230   -2.770521   -5.162390
     73          1           0        6.006922   -3.248426   -3.735409
     74          1           0        6.095865   -1.589288   -4.337083
     75          1           0        2.676383   -4.325210   -1.093782
     76          1           0        2.332878   -4.025343   -2.902083
     77          1           0        1.781915   -1.641315   -1.838860
     78          1           0        1.709254   -2.783705   -0.360156
     79          1           0        2.105177    2.644033   -5.038810
     80          1           0        3.604922    2.077378   -5.678478
     81          1           0        3.266285    3.836957   -5.593397
     82          1           0        5.079708    6.553964   -1.889723
     83          1           0        3.333552    6.604405   -1.462055
     84          1           0        3.934677    7.590621   -2.801813
     85          1           0        4.197078    5.118499    2.235670
     86          1           0        6.444470    3.821870    3.828155
     87          1           0        7.099303    5.595095    1.539199
     88          1           0        6.531596    6.349649    2.986790
     89          1           0        5.679726    6.765521    1.601212
     90          1           0        3.634902    2.967931    4.025001
     91          1           0        3.726449    4.671551    4.426169
     92          1           0        5.098629    4.361310    6.398384
     93          1           0        5.222417    2.577075    5.993326
     94          1           0        3.797978    2.991649    6.313784
     95          1           0        7.481784   -1.822751    4.930686
     96          1           0        5.954475   -2.533320    5.182684
     97          1           0        6.173268   -0.709725    5.475291
     98          1           0        4.181950   -4.547676    0.989705
     99          1           0        9.368432   -4.735765   -0.244858
    100          1           0        8.297476   -4.483749   -1.638068
    101          1           0        8.258427   -6.016280   -0.810570
    102          1           0       -2.497345   -3.007384   -0.471225
    103          1           0       -2.413939   -2.496196   -2.132328
    104          1           0       -2.327079   -0.274570    0.106734
    105          1           0       -5.988649   -1.015842   -1.830142
    106          1           0       -4.601454   -1.900960   -2.434790
    107          1           0       -4.869275   -0.298876   -3.034760
    108          1           0       -5.067139    1.523404   -1.230228
    109          1           0       -3.663794    1.669061   -0.192461
    110          1           0       -5.175457    1.591969    1.551383
    111          1           0       -5.496694   -0.097287    1.228789
    112          1           0       -7.093121    0.806595   -0.645952
    113          1           0       -7.232663    2.135980    0.422898
    114          1           0       -8.908296    0.769281    1.067445
    115          1           0       -8.541160    0.055630    3.488310
    116          1           0       -7.245929    1.182329    2.974053
    117          1           0       -7.051262   -0.622149    3.009234
    118          1           0       -8.058830   -1.876434    1.441266
    119          1           0       -7.407036   -1.255257   -0.141721
    120          1           0       -9.386534   -2.118955   -0.825635
    121          1           0       -9.720301   -0.390783   -0.528831
    122          1           0      -10.102211   -1.875104    1.941016
    123          1           0      -10.910522   -2.966561    0.707278
    124          1           0      -11.504022    0.067275    0.978815
    125          1           0      -12.472672   -2.340286    2.361700
    126          1           0      -13.549909   -0.886609    2.154651
    127          1           0      -12.091870   -0.895894    3.201230
    128          1           0      -13.461227   -1.964716    0.061038
    129          1           0      -12.098572   -1.475054   -1.056956
    130          1           0      -13.194709    0.216131   -1.721685
    131          1           0      -13.033429    0.885246   -0.145323
    132          1           0      -15.432256   -0.841230   -0.168830
    133          1           0      -15.402434    0.230449   -1.632212
    134          1           0      -14.733763    1.602078    0.892677
    135          1           0      -17.090448   -0.113606    0.886564
    136          1           0      -17.496434    1.568491    1.302881
    137          1           0      -16.211332    0.796901    2.237989
    138          1           0      -15.600892    3.273303    0.015255
    139          1           0      -17.060299    2.501852   -0.654022
    140          1           0      -15.501681    2.511652   -1.613193
 ---------------------------------------------------------------------

 SCF Done:  E(RwB97XD) =  -3007.88089203     A.U. after   20 cycles

 Excitation energies and oscillator strengths:

 Excited State   1:      Singlet-A      1.5851 eV  782.21 nm  f=0.3760  <S**2>=0.000
     245 -> 248        0.17259
     246 -> 247        0.68743
     245 <- 248        0.11714
 This state for optimization and/or second-order correction.
 Total Energy, E(TD-HF/TD-DFT) =  -3007.82264248
 Copying the excited state density for this state as the 1-particle RhoCI density.

 Excited State   2:      Singlet-A      2.2031 eV  562.76 nm  f=0.1029  <S**2>=0.000
     245 -> 247        0.63187
     246 -> 248       -0.30188

 Excited State   3:      Singlet-A      3.2413 eV  382.52 nm  f=0.0071  <S**2>=0.000
     243 -> 247        0.67913

 Excited State   4:      Singlet-A      3.5165 eV  352.58 nm  f=0.0128  <S**2>=0.000
     242 -> 247        0.54237
     242 -> 248        0.16834
     242 -> 249        0.24651
     242 -> 250        0.26627

 Excited State   5:      Singlet-A      3.5722 eV  347.08 nm  f=0.5936  <S**2>=0.000
     241 -> 247        0.26532
     245 -> 247        0.27366
     246 -> 248        0.57621
     245 <- 247       -0.10969

 The electronic state is 1-A.
 Alpha  occ. eigenvalues --  -46.94705 -19.30145 -19.30037 -19.25101 -19.24879
 Alpha  occ. eigenvalues --  -19.24860 -19.23469 -14.47434 -14.46947 -14.44461
 Alpha  occ. eigenvalues --  -14.44253 -10.43497 -10.43246 -10.39593 -10.39019
 Alpha  occ. eigenvalues --  -10.35847 -10.35757 -10.35686 -10.35161 -10.35080
 Alpha  occ. eigenvalues --  -10.35071 -10.35062 -10.34276 -10.33986 -10.33000
 Alpha  occ. eigenvalues --  -10.32788 -10.32748 -10.32367 -10.32347 -10.32164
 Alpha  occ. eigenvalues --  -10.32114 -10.32055 -10.31943 -10.31896 -10.31633
 Alpha  occ. eigenvalues --  -10.31467 -10.31420 -10.31135 -10.30880 -10.30808
 Alpha  occ. eigenvalues --  -10.30781 -10.30561 -10.30482 -10.30233 -10.30230
 Alpha  occ. eigenvalues --  -10.30167 -10.29920 -10.29730 -10.29525 -10.29448
 Alpha  occ. eigenvalues --  -10.29261 -10.29246 -10.29244 -10.29150 -10.29087
 Alpha  occ. eigenvalues --  -10.28991 -10.28953 -10.28794 -10.28589 -10.28509
 Alpha  occ. eigenvalues --  -10.28316 -10.28277 -10.28176 -10.28122 -10.28000
 Alpha  occ. eigenvalues --  -10.27646  -3.20806  -1.94395  -1.93923  -1.93800
 Alpha  occ. eigenvalues --   -1.19571  -1.18768  -1.13037  -1.10935  -1.10517
 Alpha  occ. eigenvalues --   -1.10461  -1.07325  -1.06286  -1.04952  -1.03752
 Alpha  occ. eigenvalues --   -0.95554  -0.92219  -0.91963  -0.91876  -0.91311
 Alpha  occ. eigenvalues --   -0.90495  -0.90077  -0.89981  -0.88897  -0.88751
 Alpha  occ. eigenvalues --   -0.87614  -0.86920  -0.86194  -0.85921  -0.85372
 Alpha  occ. eigenvalues --   -0.84618  -0.84056  -0.83188  -0.82622  -0.82420
 Alpha  occ. eigenvalues --   -0.81610  -0.80303  -0.79603  -0.79087  -0.78392
 Alpha  occ. eigenvalues --   -0.77878  -0.77303  -0.77119  -0.76311  -0.76080
 Alpha  occ. eigenvalues --   -0.75329  -0.74447  -0.73993  -0.72298  -0.72032
 Alpha  occ. eigenvalues --   -0.70907  -0.70181  -0.68908  -0.68500  -0.68412
 Alpha  occ. eigenvalues --   -0.67636  -0.67095  -0.66668  -0.66287  -0.65356
 Alpha  occ. eigenvalues --   -0.65147  -0.64950  -0.64082  -0.63394  -0.62254
 Alpha  occ. eigenvalues --   -0.61800  -0.61405  -0.60789  -0.60507  -0.60029
 Alpha  occ. eigenvalues --   -0.59368  -0.59002  -0.58262  -0.58101  -0.57601
 Alpha  occ. eigenvalues --   -0.57412  -0.56990  -0.56899  -0.56853  -0.56322
 Alpha  occ. eigenvalues --   -0.55855  -0.55530  -0.55284  -0.54913  -0.54889
 Alpha  occ. eigenvalues --   -0.54758  -0.54371  -0.54245  -0.54000  -0.53866
 Alpha  occ. eigenvalues --   -0.53595  -0.53239  -0.53079  -0.53051  -0.52664
 Alpha  occ. eigenvalues --   -0.52490  -0.52267  -0.51981  -0.51946  -0.51672
 Alpha  occ. eigenvalues --   -0.51532  -0.51323  -0.51208  -0.50997  -0.50751
 Alpha  occ. eigenvalues --   -0.50597  -0.50360  -0.50150  -0.49894  -0.49508
 Alpha  occ. eigenvalues --   -0.49378  -0.49197  -0.48910  -0.48819  -0.48587
 Alpha  occ. eigenvalues --   -0.48326  -0.48320  -0.48184  -0.48111  -0.48037
 Alpha  occ. eigenvalues --   -0.47965  -0.47710  -0.47427  -0.47243  -0.46910
 Alpha  occ. eigenvalues --   -0.46707  -0.46655  -0.46479  -0.46248  -0.45985
 Alpha  occ. eigenvalues --   -0.45897  -0.45760  -0.45548  -0.45393  -0.44935
 Alpha  occ. eigenvalues --   -0.44438  -0.44408  -0.44241  -0.44177  -0.44109
 Alpha  occ. eigenvalues --   -0.44078  -0.43887  -0.43705  -0.43652  -0.43477
 Alpha  occ. eigenvalues --   -0.43333  -0.43221  -0.42502  -0.42047  -0.41714
 Alpha  occ. eigenvalues --   -0.41639  -0.41389  -0.41309  -0.41159  -0.40939
 Alpha  occ. eigenvalues --   -0.40615  -0.40541  -0.40141  -0.39778  -0.39422
 Alpha  occ. eigenvalues --   -0.39010  -0.38744  -0.38726  -0.38545  -0.38454
 Alpha  occ. eigenvalues --   -0.37749  -0.37344  -0.37234  -0.36875  -0.36538
 Alpha  occ. eigenvalues --   -0.35550  -0.35464  -0.35371  -0.33851  -0.33163
 Alpha  occ. eigenvalues --   -0.32856  -0.32733  -0.31582  -0.30560  -0.26508
 Alpha  occ. eigenvalues --   -0.23043
 Alpha virt. eigenvalues --   -0.07446   0.00036   0.02412   0.04333   0.05325
 Alpha virt. eigenvalues --    0.07033   0.07241   0.07499   0.08528   0.09567
 Alpha virt. eigenvalues --    0.10180   0.11240   0.11498   0.11974   0.12115

 Mulliken charges:
               1
     1  Mg   0.981994
     2  C   -0.050589
     3  C   -0.078315
     4  C   -0.094759
     5  C   -0.093142
     6  N   -0.369706
     7  C   -0.010225
     8  C   -0.080297
     9  C   -0.104269
    10  C    0.045310
    11  C    0.034980
    12  C    0.045163
    13  C   -0.053241
    14  C    0.218673
    15  O   -0.239596
    16  O   -0.345766
    17  N   -0.490792
    18  C    0.160407
    19  C   -0.157093
    20  C   -0.101655
    21  C    0.180255
    22  C    0.076154
    23  C    0.043455
    24  O   -0.255829
    25  C    0.000794
    26  N   -0.374142
    27  C    0.086652
    28  C   -0.093046
    29  C   -0.013245
    30  C    0.021363
    31  C   -0.002112
    32  C   -0.017965
    33  C   -0.008074
    34  N   -0.395349
    35  C    0.104908
    36  C   -0.211739
    37  C   -0.026361
    38  C    0.156153
    39  C    0.094216
    40  C    0.135989
    41  O   -0.187861
    42  C   -0.073321
    43  C    0.252150
    44  O   -0.229933
    45  O   -0.379907
    46  C    0.142533
    47  C    0.238728
    48  C   -0.128352
    49  C   -0.224390
    50  C    0.019921
    51  C    0.071791
    52  C   -0.008700
    53  C   -0.059526
    54  C   -0.180259
    55  C    0.006515
    56  C    0.010184
    57  C   -0.016975
    58  C    0.021667
    59  C   -0.227581
    60  C    0.003708
    61  C    0.014724
    62  C   -0.036227
    63  C    0.023483
    64  C   -0.263621
    65  C   -0.006475
    66  C    0.012752
    67  H    0.010133
    68  H   -0.038285
    69  H   -0.017099
    70  H    0.045822
    71  H    0.030389
    72  H    0.047577
    73  H    0.039602
    74  H    0.045048
    75  H    0.037197
    76  H    0.051555
    77  H    0.081433
    78  H    0.055932
    79  H    0.043556
    80  H    0.030703
    81  H    0.068439
    82  H    0.069422
    83  H    0.068617
    84  H    0.052632
    85  H    0.042176
    86  H    0.035697
    87  H    0.045912
    88  H    0.032428
    89  H    0.040485
    90  H    0.038161
    91  H    0.036999
    92  H    0.064024
    93  H    0.002934
    94  H    0.026965
    95  H    0.049873
    96  H    0.060510
    97  H    0.040484
    98  H    0.072904
    99  H    0.061499
   100  H    0.041429
   101  H    0.062059
   102  H    0.055550
   103  H    0.043649
   104  H    0.025114
   105  H    0.042612
   106  H    0.030638
   107  H    0.045821
   108  H    0.017667
   109  H    0.034557
   110  H    0.028323
   111  H    0.023154
   112  H    0.004132
   113  H    0.020905
   114  H    0.016798
   115  H    0.039829
   116  H    0.032006
   117  H    0.028800
   118  H    0.009551
   119  H    0.006944
   120  H    0.017464
   121  H    0.025409
   122  H    0.021674
   123  H    0.036925
   124  H    0.015477
   125  H    0.017206
   126  H    0.024831
   127  H    0.028265
   128  H    0.015100
   129  H    0.013660
   130  H    0.016008
   131  H    0.008890
   132  H    0.018459
   133  H    0.023430
   134  H    0.023698
   135  H    0.037020
   136  H    0.021608
   137  H    0.039404
   138  H    0.028525
   139  H    0.031615
   140  H    0.037882
 Sum of Mulliken charges =  -0.00000

 Dipole moment (field-independent basis, Debye):
    X=              1.8797    Y=              4.9842    Z=              2.6176  Tot=              5.9353
 Quadrupole moment (field-independent basis, Debye-Ang):
   XX=           -362.4192   YY=           -432.0566   ZZ=           -403.2763
   XY=             19.5361   XZ=              2.4441   YZ=             40.0283

 Normal termination of Gaussian 16 at Sat Apr 30 05:38:30 2022.
