 Gaussian 16, Revision A.03,
 Gaussian 16:  ES64L-G16RevA.03 25-Dec-2016

 --------------------
 #p ZINDO=(nstates=5)
 --------------------

 -----------------------------
 step_601_chromophore_14 ZINDO
 -----------------------------
 Symbolic Z-matrix:
 Charge =  0 Multiplicity = 1

                         Standard orientation:
 ---------------------------------------------------------------------
 Center     Atomic      Atomic             Coordinates (Angstroms)
 Number     Number       Type             X           Y           Z
 ---------------------------------------------------------------------
      1         12           0        5.161485    0.923690   -0.119898
      2          6           0        4.992327   -2.596125    0.323653
      3          6           0        4.118009    0.410465   -3.400003
      4          6           0        4.713128    4.215519   -0.266096
      5          6           0        5.752575    1.170566    3.276007
      6          7           0        4.653851   -0.823157   -1.294016
      7          6           0        4.552775   -2.186010   -0.923594
      8          6           0        4.018532   -3.094934   -2.101728
      9          6           0        4.191754   -2.129854   -3.278616
     10          6           0        4.304921   -0.753667   -2.612257
     11          6           0        5.432897   -2.441677   -4.192929
     12          6           0        2.560953   -3.619262   -1.916399
     13          6           0        1.563950   -2.627376   -1.428509
     14          6           0       -0.014302   -2.946452   -1.536888
     15          8           0       -0.464743   -3.897244   -2.114910
     16          8           0       -0.786792   -1.903358   -1.107019
     17          7           0        4.480783    2.187119   -1.590827
     18          6           0        4.072077    1.805819   -2.889853
     19          6           0        3.643090    2.923840   -3.602269
     20          6           0        3.858980    4.096826   -2.782981
     21          6           0        4.391492    3.536061   -1.456778
     22          6           0        3.169192    2.879142   -5.082304
     23          6           0        3.699448    5.560194   -3.211997
     24          8           0        3.262381    5.796256   -4.357557
     25          6           0        4.062156    6.647837   -2.271643
     26          7           0        5.170015    2.469445    1.319876
     27          6           0        5.072205    3.770091    0.989804
     28          6           0        5.183618    4.654897    2.227119
     29          6           0        5.437943    3.708923    3.426714
     30          6           0        5.489010    2.382102    2.659802
     31          6           0        6.189529    5.912968    2.048026
     32          6           0        4.283518    3.735444    4.447479
     33          6           0        4.660046    3.505437    5.886011
     34          7           0        5.437438   -0.378342    1.480200
     35          6           0        5.752606   -0.128796    2.753347
     36          6           0        6.098656   -1.397232    3.455386
     37          6           0        5.767844   -2.350723    2.548089
     38          6           0        5.344101   -1.718518    1.343553
     39          6           0        6.418017   -1.592663    4.885295
     40          6           0        5.676421   -3.793038    2.356000
     41          8           0        5.834096   -4.696914    3.151870
     42          6           0        5.110521   -3.989433    0.872309
     43          6           0        6.057567   -4.847643    0.120223
     44          8           0        5.757565   -5.811150   -0.544761
     45          8           0        7.348770   -4.370297    0.203239
     46          6           0        8.379350   -4.944409   -0.653966
     47          6           0       -2.187442   -2.182425   -1.114004
     48          6           0       -2.870917   -0.840672   -0.650075
     49          6           0       -4.079356   -0.212939   -1.079035
     50          6           0       -4.947955   -0.911091   -2.136793
     51          6           0       -4.519960    1.034212   -0.423668
     52          6           0       -5.427299    0.884394    0.761369
     53          6           0       -6.985810    1.074380    0.405033
     54          6           0       -7.988843    0.220416    1.268473
     55          6           0       -7.715040    0.214814    2.794407
     56          6           0       -8.168255   -1.154255    0.631631
     57          6           0       -9.533563   -1.357230   -0.060575
     58          6           0      -10.534653   -1.970776    0.945240
     59          6           0      -11.773169   -0.989118    0.968786
     60          6           0      -12.530292   -1.255264    2.269841
     61          6           0      -12.740406   -1.196687   -0.220555
     62          6           0      -13.498855    0.061875   -0.686071
     63          6           0      -15.062541    0.086221   -0.607213
     64          6           0      -15.563884    1.297341    0.254410
     65          6           0      -16.694844    0.830195    1.262354
     66          6           0      -15.971462    2.476556   -0.630232
     67          1           0        4.053397    0.220419   -4.473492
     68          1           0        4.511084    5.289230   -0.297965
     69          1           0        6.107853    1.210737    4.307536
     70          1           0        4.635302   -3.985545   -2.215292
     71          1           0        3.248085   -2.120836   -3.824952
     72          1           0        5.058230   -2.770521   -5.162390
     73          1           0        6.006922   -3.248426   -3.735409
     74          1           0        6.095865   -1.589288   -4.337083
     75          1           0        2.676383   -4.325210   -1.093782
     76          1           0        2.332878   -4.025343   -2.902083
     77          1           0        1.781915   -1.641315   -1.838860
     78          1           0        1.709254   -2.783705   -0.360156
     79          1           0        2.105177    2.644033   -5.038810
     80          1           0        3.604922    2.077378   -5.678478
     81          1           0        3.266285    3.836957   -5.593397
     82          1           0        5.079708    6.553964   -1.889723
     83          1           0        3.333552    6.604405   -1.462055
     84          1           0        3.934677    7.590621   -2.801813
     85          1           0        4.197078    5.118499    2.235670
     86          1           0        6.444470    3.821870    3.828155
     87          1           0        7.099303    5.595095    1.539199
     88          1           0        6.531596    6.349649    2.986790
     89          1           0        5.679726    6.765521    1.601212
     90          1           0        3.634902    2.967931    4.025001
     91          1           0        3.726449    4.671551    4.426169
     92          1           0        5.098629    4.361310    6.398384
     93          1           0        5.222417    2.577075    5.993326
     94          1           0        3.797978    2.991649    6.313784
     95          1           0        7.481784   -1.822751    4.930686
     96          1           0        5.954475   -2.533320    5.182684
     97          1           0        6.173268   -0.709725    5.475291
     98          1           0        4.181950   -4.547676    0.989705
     99          1           0        9.368432   -4.735765   -0.244858
    100          1           0        8.297476   -4.483749   -1.638068
    101          1           0        8.258427   -6.016280   -0.810570
    102          1           0       -2.497345   -3.007384   -0.471225
    103          1           0       -2.413939   -2.496196   -2.132328
    104          1           0       -2.327079   -0.274570    0.106734
    105          1           0       -5.988649   -1.015842   -1.830142
    106          1           0       -4.601454   -1.900960   -2.434790
    107          1           0       -4.869275   -0.298876   -3.034760
    108          1           0       -5.067139    1.523404   -1.230228
    109          1           0       -3.663794    1.669061   -0.192461
    110          1           0       -5.175457    1.591969    1.551383
    111          1           0       -5.496694   -0.097287    1.228789
    112          1           0       -7.093121    0.806595   -0.645952
    113          1           0       -7.232663    2.135980    0.422898
    114          1           0       -8.908296    0.769281    1.067445
    115          1           0       -8.541160    0.055630    3.488310
    116          1           0       -7.245929    1.182329    2.974053
    117          1           0       -7.051262   -0.622149    3.009234
    118          1           0       -8.058830   -1.876434    1.441266
    119          1           0       -7.407036   -1.255257   -0.141721
    120          1           0       -9.386534   -2.118955   -0.825635
    121          1           0       -9.720301   -0.390783   -0.528831
    122          1           0      -10.102211   -1.875104    1.941016
    123          1           0      -10.910522   -2.966561    0.707278
    124          1           0      -11.504022    0.067275    0.978815
    125          1           0      -12.472672   -2.340286    2.361700
    126          1           0      -13.549909   -0.886609    2.154651
    127          1           0      -12.091870   -0.895894    3.201230
    128          1           0      -13.461227   -1.964716    0.061038
    129          1           0      -12.098572   -1.475054   -1.056956
    130          1           0      -13.194709    0.216131   -1.721685
    131          1           0      -13.033429    0.885246   -0.145323
    132          1           0      -15.432256   -0.841230   -0.168830
    133          1           0      -15.402434    0.230449   -1.632212
    134          1           0      -14.733763    1.602078    0.892677
    135          1           0      -17.090448   -0.113606    0.886564
    136          1           0      -17.496434    1.568491    1.302881
    137          1           0      -16.211332    0.796901    2.237989
    138          1           0      -15.600892    3.273303    0.015255
    139          1           0      -17.060299    2.501852   -0.654022
    140          1           0      -15.501681    2.511652   -1.613193
 ---------------------------------------------------------------------

 SCF Done:  E(RZINDO/S) =  -474.282404907     A.U. after   20 cycles

 Excitation energies and oscillator strengths:

 Excited State   1:      Singlet-A      1.2121 eV 1022.93 nm  f=0.6299  <S**2>=0.000
     175 ->178        -0.18357
     176 ->177         0.66503
 This state for optimization and/or second-order correction.
 Total Energy, E(CIS/TDA) =  -474.237862823
 Copying the excited state density for this state as the 1-particle RhoCI density.

 Excited State   2:      Singlet-A      1.9346 eV  640.89 nm  f=0.0291  <S**2>=0.000
     175 ->177         0.52821
     176 ->178         0.44769

 Excited State   3:      Singlet-A      2.9860 eV  415.21 nm  f=0.0062  <S**2>=0.000
     168 ->179         0.16464
     170 ->177         0.29707
     170 ->178         0.15255
     170 ->179         0.24096
     170 ->180         0.33114
     170 ->181        -0.10141
     170 ->184        -0.12656
     170 ->186         0.21720
     170 ->187         0.13151
     176 ->179         0.17590

 Excited State   4:      Singlet-A      2.9933 eV  414.21 nm  f=0.0008  <S**2>=0.000
     168 ->177         0.26293
     168 ->179        -0.33189
     168 ->180         0.19777
     168 ->186        -0.13073
     168 ->187         0.11497
     170 ->177         0.10048
     170 ->179         0.14598
     170 ->180         0.13126
     170 ->186         0.11554
     176 ->179        -0.32337

 Excited State   5:      Singlet-A      3.0129 eV  411.52 nm  f=0.0181  <S**2>=0.000
     168 ->177         0.17053
     168 ->179        -0.24424
     168 ->180         0.12536
     168 ->186        -0.10124
     176 ->179         0.54767

 The electronic state is 1-A.
 Alpha  occ. eigenvalues --   -1.86682  -1.81863  -1.79146  -1.74378  -1.72940
 Alpha  occ. eigenvalues --   -1.70730  -1.67050  -1.61164  -1.58874  -1.56994
 Alpha  occ. eigenvalues --   -1.55093  -1.51113  -1.49309  -1.48561  -1.48339
 Alpha  occ. eigenvalues --   -1.46932  -1.43812  -1.40643  -1.37646  -1.37583
 Alpha  occ. eigenvalues --   -1.36277  -1.35145  -1.31182  -1.29856  -1.28035
 Alpha  occ. eigenvalues --   -1.27470  -1.26853  -1.24004  -1.18605  -1.18145
 Alpha  occ. eigenvalues --   -1.16587  -1.15569  -1.15221  -1.14014  -1.13143
 Alpha  occ. eigenvalues --   -1.12935  -1.10374  -1.08506  -1.06638  -1.05018
 Alpha  occ. eigenvalues --   -1.02631  -1.01900  -1.00606  -0.98352  -0.97986
 Alpha  occ. eigenvalues --   -0.95253  -0.94113  -0.93978  -0.93076  -0.91615
 Alpha  occ. eigenvalues --   -0.91045  -0.90142  -0.88599  -0.87273  -0.85908
 Alpha  occ. eigenvalues --   -0.84614  -0.84171  -0.83828  -0.83152  -0.81711
 Alpha  occ. eigenvalues --   -0.80140  -0.79088  -0.78097  -0.77523  -0.76728
 Alpha  occ. eigenvalues --   -0.75535  -0.75343  -0.74376  -0.74107  -0.73148
 Alpha  occ. eigenvalues --   -0.72580  -0.72169  -0.71451  -0.71077  -0.70486
 Alpha  occ. eigenvalues --   -0.69889  -0.69481  -0.69023  -0.68680  -0.68024
 Alpha  occ. eigenvalues --   -0.67534  -0.67240  -0.66829  -0.65462  -0.65245
 Alpha  occ. eigenvalues --   -0.64873  -0.64529  -0.64460  -0.63707  -0.63409
 Alpha  occ. eigenvalues --   -0.63388  -0.63269  -0.62812  -0.61996  -0.61822
 Alpha  occ. eigenvalues --   -0.61494  -0.60957  -0.60821  -0.60650  -0.59993
 Alpha  occ. eigenvalues --   -0.59545  -0.59225  -0.59139  -0.58862  -0.58467
 Alpha  occ. eigenvalues --   -0.58115  -0.57511  -0.57309  -0.57152  -0.56996
 Alpha  occ. eigenvalues --   -0.56572  -0.56065  -0.55599  -0.55350  -0.54916
 Alpha  occ. eigenvalues --   -0.54620  -0.54595  -0.53850  -0.53681  -0.53416
 Alpha  occ. eigenvalues --   -0.52611  -0.52353  -0.52093  -0.51681  -0.51559
 Alpha  occ. eigenvalues --   -0.51176  -0.50929  -0.50695  -0.50509  -0.50087
 Alpha  occ. eigenvalues --   -0.49764  -0.49555  -0.49344  -0.49151  -0.49096
 Alpha  occ. eigenvalues --   -0.48736  -0.48559  -0.48361  -0.48199  -0.48073
 Alpha  occ. eigenvalues --   -0.47711  -0.47358  -0.47190  -0.46990  -0.46851
 Alpha  occ. eigenvalues --   -0.46726  -0.46442  -0.46042  -0.46004  -0.45554
 Alpha  occ. eigenvalues --   -0.45233  -0.45102  -0.44785  -0.44204  -0.44076
 Alpha  occ. eigenvalues --   -0.43567  -0.43517  -0.43085  -0.42455  -0.42314
 Alpha  occ. eigenvalues --   -0.42263  -0.41982  -0.41038  -0.39495  -0.38720
 Alpha  occ. eigenvalues --   -0.38459  -0.37899  -0.35562  -0.35154  -0.35087
 Alpha  occ. eigenvalues --   -0.33899  -0.33185  -0.32461  -0.30771  -0.27339
 Alpha  occ. eigenvalues --   -0.21959
 Alpha virt. eigenvalues --   -0.08988  -0.02447  -0.00777   0.01129   0.01561
 Alpha virt. eigenvalues --    0.02199   0.02428   0.02797   0.04049   0.04514
 Alpha virt. eigenvalues --    0.05860   0.06704   0.07213   0.07783   0.07956

 Mulliken charges:
               1
     1  Mg   0.426966
     2  C   -0.031317
     3  C   -0.087967
     4  C   -0.083948
     5  C   -0.075419
     6  N   -0.292349
     7  C    0.109124
     8  C   -0.001419
     9  C    0.002307
    10  C    0.128512
    11  C   -0.048065
    12  C   -0.017100
    13  C    0.000947
    14  C    0.450085
    15  O   -0.502787
    16  O   -0.262814
    17  N   -0.319864
    18  C    0.090979
    19  C    0.037310
    20  C   -0.074114
    21  C    0.125322
    22  C   -0.043524
    23  C    0.330363
    24  O   -0.536698
    25  C   -0.024065
    26  N   -0.275166
    27  C    0.138040
    28  C   -0.000515
    29  C    0.009897
    30  C    0.125251
    31  C   -0.060122
    32  C   -0.020155
    33  C   -0.068207
    34  N   -0.307076
    35  C    0.111028
    36  C    0.033695
    37  C   -0.045929
    38  C    0.106030
    39  C   -0.037539
    40  C    0.325046
    41  O   -0.504737
    42  C    0.057595
    43  C    0.492276
    44  O   -0.518864
    45  O   -0.277109
    46  C    0.079475
    47  C    0.111789
    48  C   -0.122447
    49  C   -0.004883
    50  C   -0.042981
    51  C    0.001130
    52  C   -0.031102
    53  C   -0.045077
    54  C   -0.012591
    55  C   -0.055936
    56  C   -0.038532
    57  C   -0.040353
    58  C   -0.034178
    59  C   -0.022096
    60  C   -0.065264
    61  C   -0.035210
    62  C   -0.045017
    63  C   -0.036773
    64  C   -0.022401
    65  C   -0.064997
    66  C   -0.059677
    67  H    0.039188
    68  H    0.018214
    69  H    0.017293
    70  H    0.038721
    71  H    0.027906
    72  H    0.022099
    73  H    0.024958
    74  H    0.027581
    75  H    0.027154
    76  H    0.036819
    77  H    0.052291
    78  H    0.040649
    79  H    0.026720
    80  H    0.023582
    81  H    0.046871
    82  H    0.040541
    83  H    0.041127
    84  H    0.034396
    85  H    0.030515
    86  H    0.037132
    87  H    0.027435
    88  H    0.014745
    89  H    0.024594
    90  H    0.027054
    91  H    0.018922
    92  H    0.040088
    93  H    0.016630
    94  H    0.020870
    95  H    0.035430
    96  H    0.041374
    97  H    0.031735
    98  H    0.061109
    99  H    0.036879
   100  H    0.032239
   101  H    0.050205
   102  H    0.050561
   103  H    0.050019
   104  H    0.028366
   105  H    0.030152
   106  H    0.023793
   107  H    0.027459
   108  H    0.017699
   109  H    0.024486
   110  H    0.018944
   111  H    0.026203
   112  H    0.015336
   113  H    0.012401
   114  H    0.011135
   115  H    0.023890
   116  H    0.018655
   117  H    0.018203
   118  H    0.018810
   119  H    0.016673
   120  H    0.008589
   121  H    0.033436
   122  H    0.024228
   123  H    0.035329
   124  H    0.022505
   125  H    0.013709
   126  H    0.017023
   127  H    0.015521
   128  H    0.024052
   129  H    0.014587
   130  H    0.009977
   131  H    0.019635
   132  H    0.024119
   133  H    0.022015
   134  H    0.018109
   135  H    0.026726
   136  H    0.017337
   137  H    0.022826
   138  H    0.015301
   139  H    0.024433
   140  H    0.027906
 Sum of Mulliken charges =  -0.00000

 Dipole moment (field-independent basis, Debye):
    X=              2.1250    Y=              5.7748    Z=              4.4898  Tot=              7.6172
 N-N= 4.320943144812D+03 E-N= 0.000000000000D+00  KE=-9.315774814393D+03
 Leave Link  601 at Sat Apr 30 05:50:45 2022, MaxMem=  6710886400 cpu:               1.0 elap:               0.1
 (Enter /sw/apps/gaussian-16.0/g16/l9999.exe)
 1\1\GINC-BP1-COMPUTE154\SP\RZINDO CIS\STO-3G\C55H74Mg1N4O6\OF15641\30-
 Apr-2022\0\\#p ZINDO=(nstates=5)\\step_601_chromophore_14 ZINDO\\0,1\M
 g,0,46.438,44.758,43.499\C,0,42.897,44.645,43.248\C,0,46.436,41.318,42
 .972\C,0,49.727,45.034,43.093\C,0,46.172,48.203,43.56\N,0,44.895,43.27
 5,43.171\C,0,43.496,43.42,43.008\C,0,42.783,42.053,42.658\C,0,43.904,4
 1.072,43.015\C,0,45.165,41.944,43.03\C,0,43.695,40.321,44.381\C,0,42.2
 77,41.935,41.187\C,0,43.214,42.407,40.131\C,0,42.957,42.014,38.587\O,0

 Normal termination of Gaussian 16 at Sat Apr 30 05:50:45 2022.
