 Gaussian 16, Revision A.03,
 Gaussian 16:  ES64L-G16RevA.03 25-Dec-2016

 ------------------------------
 #p blyp/Def2SVP td=(nstates=5)
 ------------------------------

 --------------------------------------------------
 step_801_chromophore_26 TDDFT with blyp functional
 --------------------------------------------------
 Symbolic Z-matrix:
 Charge =  0 Multiplicity = 1

                         Standard orientation:
 ---------------------------------------------------------------------
 Center     Atomic      Atomic             Coordinates (Angstroms)
 Number     Number       Type             X           Y           Z
 ---------------------------------------------------------------------
      1         12           0       -3.818720    1.107322    0.516558
      2          6           0       -4.958695   -2.100107   -0.178742
      3          6           0       -2.014137   -0.149071    3.191084
      4          6           0       -2.394687    4.110963    0.973380
      5          6           0       -5.469749    2.203537   -2.355621
      6          7           0       -3.422273   -0.847313    1.253604
      7          6           0       -4.000440   -2.060501    0.849682
      8          6           0       -3.454474   -3.207099    1.678884
      9          6           0       -2.762046   -2.551549    2.936650
     10          6           0       -2.782028   -1.084718    2.485153
     11          6           0       -3.522303   -2.826828    4.313593
     12          6           0       -2.526307   -4.144611    0.835903
     13          6           0       -1.590812   -3.434911   -0.184637
     14          6           0       -0.160090   -3.989237   -0.432618
     15          8           0        0.158025   -5.214474   -0.414045
     16          8           0        0.682332   -3.010307   -0.763525
     17          7           0       -2.382360    1.865669    1.922996
     18          6           0       -1.794278    1.236655    2.967521
     19          6           0       -0.956499    2.169016    3.764864
     20          6           0       -1.137339    3.434062    3.120524
     21          6           0       -2.024302    3.186208    1.937288
     22          6           0       -0.068771    1.829180    4.866609
     23          6           0       -0.677599    4.756949    3.582370
     24          8           0        0.047520    4.762377    4.590884
     25          6           0       -0.957893    6.063483    3.006358
     26          7           0       -3.717769    2.802649   -0.570344
     27          6           0       -3.216676    3.929736   -0.105175
     28          6           0       -3.739385    5.136850   -0.814157
     29          6           0       -4.445234    4.539597   -2.104594
     30          6           0       -4.595757    3.068084   -1.678611
     31          6           0       -4.637859    6.123608   -0.030024
     32          6           0       -3.657941    4.654251   -3.479843
     33          6           0       -3.959104    5.848428   -4.414790
     34          7           0       -5.059144    0.257628   -0.969975
     35          6           0       -5.745069    0.851785   -2.035587
     36          6           0       -6.623139   -0.125694   -2.642716
     37          6           0       -6.314478   -1.341738   -1.945757
     38          6           0       -5.399118   -1.004435   -0.915487
     39          6           0       -7.505433    0.144904   -3.802990
     40          6           0       -6.599491   -2.764169   -1.917665
     41          8           0       -7.308073   -3.524540   -2.598163
     42          6           0       -5.758838   -3.305597   -0.763894
     43          6           0       -6.643490   -3.994166    0.197311
     44          8           0       -6.446011   -5.135986    0.609775
     45          8           0       -7.752060   -3.290777    0.495158
     46          6           0       -8.881397   -4.076548    1.034479
     47          6           0        2.050748   -3.371292   -1.123861
     48          6           0        2.664756   -2.469147   -2.193388
     49          6           0        3.963839   -2.073302   -2.312935
     50          6           0        5.045919   -2.469547   -1.338176
     51          6           0        4.470157   -1.062153   -3.364529
     52          6           0        4.460431    0.317041   -2.770635
     53          6           0        5.773493    1.043513   -2.637157
     54          6           0        6.127747    1.325528   -1.181605
     55          6           0        6.460899    2.878778   -0.985244
     56          6           0        7.383796    0.557418   -0.761679
     57          6           0        7.485229    0.425239    0.826409
     58          6           0        7.600782   -1.044277    1.225867
     59          6           0        8.893406   -1.434816    1.909145
     60          6           0        8.706328   -2.599674    2.872646
     61          6           0       10.051617   -1.579022    0.821159
     62          6           0       11.115449   -0.463309    0.839987
     63          6           0       11.370318    0.164112   -0.588701
     64          6           0       12.888556    0.245796   -0.912547
     65          6           0       13.120867    1.410213   -1.900680
     66          6           0       13.457503   -1.151563   -1.420686
     67          1           0       -1.528149   -0.528675    4.092546
     68          1           0       -2.150684    5.160172    1.153206
     69          1           0       -5.926083    2.740438   -3.189813
     70          1           0       -4.321731   -3.813919    1.939177
     71          1           0       -1.723380   -2.820273    3.126186
     72          1           0       -4.121058   -1.950785    4.563718
     73          1           0       -2.886016   -3.004186    5.180928
     74          1           0       -4.188398   -3.688448    4.366376
     75          1           0       -3.169946   -4.858867    0.322024
     76          1           0       -1.857040   -4.718941    1.475925
     77          1           0       -1.478194   -2.365600   -0.006549
     78          1           0       -2.051288   -3.631896   -1.152712
     79          1           0       -0.217497    0.801331    5.200305
     80          1           0       -0.320289    2.351640    5.789650
     81          1           0        1.014047    1.887651    4.756699
     82          1           0       -2.014599    6.267212    2.830936
     83          1           0       -0.323100    6.091166    2.121126
     84          1           0       -0.670533    6.871499    3.678646
     85          1           0       -2.941218    5.746058   -1.237698
     86          1           0       -5.420942    5.000552   -2.257510
     87          1           0       -3.924376    6.793242    0.450317
     88          1           0       -5.128014    5.602386    0.791554
     89          1           0       -5.251152    6.771839   -0.657652
     90          1           0       -3.807809    3.765139   -4.092657
     91          1           0       -2.582426    4.625251   -3.301954
     92          1           0       -4.909870    6.311653   -4.148454
     93          1           0       -4.194078    5.395540   -5.378723
     94          1           0       -3.153733    6.581759   -4.421355
     95          1           0       -7.488738   -0.784668   -4.372161
     96          1           0       -7.122913    0.936737   -4.447037
     97          1           0       -8.542351    0.383824   -3.566616
     98          1           0       -5.077570   -4.024092   -1.218754
     99          1           0       -9.597402   -3.865329    0.239252
    100          1           0       -9.226010   -3.677941    1.988964
    101          1           0       -8.728598   -5.152381    1.117128
    102          1           0        2.127257   -4.359029   -1.579066
    103          1           0        2.585060   -3.605298   -0.202926
    104          1           0        1.957898   -1.976827   -2.860784
    105          1           0        4.958834   -1.798636   -0.483442
    106          1           0        6.047983   -2.460674   -1.765874
    107          1           0        4.825800   -3.465938   -0.953701
    108          1           0        3.877984   -1.054300   -4.279844
    109          1           0        5.463960   -1.409711   -3.647076
    110          1           0        3.825291    0.405114   -1.889205
    111          1           0        3.995358    0.907549   -3.559516
    112          1           0        5.627926    1.971851   -3.189465
    113          1           0        6.517172    0.414142   -3.126696
    114          1           0        5.263896    0.946140   -0.637954
    115          1           0        7.544710    2.979787   -1.053942
    116          1           0        6.280914    2.981944    0.084981
    117          1           0        5.908993    3.618313   -1.565069
    118          1           0        8.336496    0.932560   -1.135519
    119          1           0        7.153783   -0.389210   -1.252777
    120          1           0        6.555420    0.848273    1.206445
    121          1           0        8.407396    0.955041    1.065732
    122          1           0        7.429265   -1.666209    0.347995
    123          1           0        6.692571   -1.083560    1.828324
    124          1           0        9.191916   -0.626582    2.576570
    125          1           0        7.722627   -3.069231    2.865541
    126          1           0        8.903431   -2.327274    3.909838
    127          1           0        9.536359   -3.265030    2.634192
    128          1           0        9.530256   -1.814131   -0.107261
    129          1           0       10.730285   -2.419413    0.967707
    130          1           0       12.048109   -0.890422    1.207086
    131          1           0       10.884635    0.383582    1.487841
    132          1           0       11.025883    1.198292   -0.578341
    133          1           0       10.864143   -0.281014   -1.445284
    134          1           0       13.382735    0.466585    0.033930
    135          1           0       13.953320    1.280227   -2.591929
    136          1           0       13.128363    2.393450   -1.430746
    137          1           0       12.291210    1.392112   -2.607761
    138          1           0       12.682644   -1.874872   -1.168074
    139          1           0       14.430406   -1.401251   -0.996501
    140          1           0       13.480556   -1.219210   -2.508578
 ---------------------------------------------------------------------

 SCF Done:  E(RB-LYP) =  -3007.37131167     A.U. after   23 cycles

 Excitation energies and oscillator strengths:

 Excited State   1:      Singlet-A      1.5747 eV  787.35 nm  f=0.0022  <S**2>=0.000
     244 -> 247        0.53028
     245 -> 247        0.46383
 This state for optimization and/or second-order correction.
 Total Energy, E(TD-HF/TD-DFT) =  -3007.31344232
 Copying the excited state density for this state as the 1-particle RhoCI density.

 Excited State   2:      Singlet-A      1.6922 eV  732.67 nm  f=0.0036  <S**2>=0.000
     243 -> 247        0.58212
     244 -> 247        0.27377
     245 -> 247       -0.28691

 Excited State   3:      Singlet-A      1.7633 eV  703.13 nm  f=0.3288  <S**2>=0.000
     245 -> 248        0.11783
     246 -> 247        0.69497
     246 <- 247       -0.16170

 Excited State   4:      Singlet-A      1.9501 eV  635.78 nm  f=0.0026  <S**2>=0.000
     242 -> 247        0.70518

 Excited State   5:      Singlet-A      2.0325 eV  610.01 nm  f=0.0704  <S**2>=0.000
     243 -> 247        0.37334
     244 -> 247       -0.34094
     245 -> 247        0.40266
     246 -> 248       -0.22441

 The electronic state is 1-A.
 Alpha  occ. eigenvalues --  -46.26878 -18.82954 -18.82207 -18.75947 -18.75756
 Alpha  occ. eigenvalues --  -18.75330 -18.74628 -14.04147 -14.03774 -14.01530
 Alpha  occ. eigenvalues --  -14.00923 -10.04020 -10.03640  -9.99291  -9.99213
 Alpha  occ. eigenvalues --   -9.98184  -9.97650  -9.97356  -9.97232  -9.97085
 Alpha  occ. eigenvalues --   -9.96693  -9.96376  -9.96319  -9.95817  -9.95044
 Alpha  occ. eigenvalues --   -9.94598  -9.94495  -9.94260  -9.94245  -9.94145
 Alpha  occ. eigenvalues --   -9.94108  -9.93991  -9.93704  -9.93698  -9.93428
 Alpha  occ. eigenvalues --   -9.93400  -9.93215  -9.93146  -9.93060  -9.93015
 Alpha  occ. eigenvalues --   -9.92987  -9.92814  -9.92582  -9.92482  -9.92469
 Alpha  occ. eigenvalues --   -9.92445  -9.92209  -9.92194  -9.92147  -9.92039
 Alpha  occ. eigenvalues --   -9.91877  -9.91680  -9.91621  -9.91582  -9.91390
 Alpha  occ. eigenvalues --   -9.91269  -9.91187  -9.91156  -9.90955  -9.90832
 Alpha  occ. eigenvalues --   -9.90811  -9.90739  -9.90737  -9.90464  -9.90336
 Alpha  occ. eigenvalues --   -9.90322  -2.91667  -1.72080  -1.71523  -1.71412
 Alpha  occ. eigenvalues --   -0.98446  -0.98170  -0.90602  -0.90052  -0.89044
 Alpha  occ. eigenvalues --   -0.87632  -0.86982  -0.86388  -0.85699  -0.84646
 Alpha  occ. eigenvalues --   -0.75706  -0.74136  -0.72909  -0.72828  -0.72167
 Alpha  occ. eigenvalues --   -0.72110  -0.71744  -0.71107  -0.70865  -0.70523
 Alpha  occ. eigenvalues --   -0.70192  -0.69218  -0.68555  -0.68076  -0.67540
 Alpha  occ. eigenvalues --   -0.66819  -0.66379  -0.65727  -0.65437  -0.64872
 Alpha  occ. eigenvalues --   -0.64073  -0.62926  -0.62459  -0.62309  -0.61229
 Alpha  occ. eigenvalues --   -0.60608  -0.60464  -0.60191  -0.59154  -0.58858
 Alpha  occ. eigenvalues --   -0.58669  -0.58064  -0.57491  -0.55768  -0.54887
 Alpha  occ. eigenvalues --   -0.54228  -0.53995  -0.53321  -0.52335  -0.51816
 Alpha  occ. eigenvalues --   -0.51416  -0.51305  -0.50585  -0.50475  -0.50026
 Alpha  occ. eigenvalues --   -0.49700  -0.49437  -0.49310  -0.49093  -0.46844
 Alpha  occ. eigenvalues --   -0.46470  -0.46393  -0.45927  -0.45207  -0.44615
 Alpha  occ. eigenvalues --   -0.44074  -0.43772  -0.43247  -0.42951  -0.42650
 Alpha  occ. eigenvalues --   -0.42177  -0.42059  -0.41834  -0.41750  -0.41297
 Alpha  occ. eigenvalues --   -0.40770  -0.40693  -0.40542  -0.40351  -0.40154
 Alpha  occ. eigenvalues --   -0.39878  -0.39665  -0.39623  -0.39456  -0.39191
 Alpha  occ. eigenvalues --   -0.39020  -0.38858  -0.38589  -0.38561  -0.38366
 Alpha  occ. eigenvalues --   -0.38327  -0.38218  -0.37809  -0.37417  -0.37244
 Alpha  occ. eigenvalues --   -0.36898  -0.36770  -0.36584  -0.36538  -0.36412
 Alpha  occ. eigenvalues --   -0.36260  -0.36159  -0.35909  -0.35812  -0.35736
 Alpha  occ. eigenvalues --   -0.35536  -0.35470  -0.34923  -0.34875  -0.34758
 Alpha  occ. eigenvalues --   -0.34668  -0.34436  -0.34172  -0.34121  -0.33932
 Alpha  occ. eigenvalues --   -0.33780  -0.33696  -0.33661  -0.33507  -0.33406
 Alpha  occ. eigenvalues --   -0.33103  -0.32826  -0.32694  -0.32658  -0.32518
 Alpha  occ. eigenvalues --   -0.32426  -0.31943  -0.31882  -0.31680  -0.31445
 Alpha  occ. eigenvalues --   -0.31226  -0.31118  -0.31002  -0.30901  -0.30828
 Alpha  occ. eigenvalues --   -0.30343  -0.30303  -0.30193  -0.30144  -0.30074
 Alpha  occ. eigenvalues --   -0.30052  -0.29739  -0.29645  -0.29553  -0.29184
 Alpha  occ. eigenvalues --   -0.28981  -0.28694  -0.28488  -0.28107  -0.27680
 Alpha  occ. eigenvalues --   -0.27581  -0.27385  -0.27163  -0.26909  -0.26514
 Alpha  occ. eigenvalues --   -0.26224  -0.26158  -0.25708  -0.25462  -0.24990
 Alpha  occ. eigenvalues --   -0.24711  -0.24547  -0.24353  -0.24215  -0.24074
 Alpha  occ. eigenvalues --   -0.23069  -0.22475  -0.21347  -0.20997  -0.20899
 Alpha  occ. eigenvalues --   -0.20578  -0.19451  -0.18543  -0.18017  -0.17931
 Alpha  occ. eigenvalues --   -0.16321
 Alpha virt. eigenvalues --   -0.12287  -0.07197  -0.06491  -0.05215  -0.02977
 Alpha virt. eigenvalues --   -0.02529  -0.02463  -0.02334  -0.01941   0.00239
 Alpha virt. eigenvalues --    0.00750   0.01505   0.02049   0.02148   0.02689

 Mulliken charges:
               1
     1  Mg   0.695026
     2  C   -0.022831
     3  C   -0.066291
     4  C   -0.054460
     5  C   -0.061251
     6  N   -0.273088
     7  C   -0.079001
     8  C    0.077087
     9  C    0.015382
    10  C    0.063877
    11  C    0.092356
    12  C    0.102979
    13  C    0.091324
    14  C    0.064544
    15  O   -0.238751
    16  O   -0.226232
    17  N   -0.243453
    18  C    0.104959
    19  C   -0.090714
    20  C    0.072118
    21  C    0.126465
    22  C    0.185796
    23  C   -0.139094
    24  O   -0.198117
    25  C    0.196398
    26  N   -0.275413
    27  C    0.040170
    28  C    0.020205
    29  C    0.016685
    30  C    0.024747
    31  C    0.140365
    32  C    0.059052
    33  C    0.081146
    34  N   -0.232883
    35  C    0.140502
    36  C   -0.153754
    37  C    0.046387
    38  C    0.092636
    39  C    0.161464
    40  C   -0.056646
    41  O   -0.150483
    42  C    0.113343
    43  C    0.092963
    44  O   -0.190640
    45  O   -0.262428
    46  C    0.202865
    47  C    0.288931
    48  C   -0.037894
    49  C   -0.210767
    50  C    0.126477
    51  C    0.160430
    52  C    0.055454
    53  C    0.145705
    54  C   -0.091545
    55  C    0.120479
    56  C    0.024339
    57  C    0.083506
    58  C    0.088170
    59  C   -0.058654
    60  C    0.128064
    61  C    0.105038
    62  C    0.074731
    63  C    0.044929
    64  C   -0.096650
    65  C    0.111578
    66  C    0.103699
    67  H   -0.066359
    68  H   -0.100252
    69  H   -0.061393
    70  H   -0.020099
    71  H   -0.010474
    72  H   -0.008142
    73  H   -0.009437
    74  H    0.002506
    75  H    0.000992
    76  H   -0.010123
    77  H    0.017382
    78  H    0.011306
    79  H   -0.051649
    80  H    0.000678
    81  H    0.013358
    82  H    0.009814
    83  H    0.017166
    84  H   -0.015037
    85  H   -0.035449
    86  H   -0.037022
    87  H   -0.015315
    88  H   -0.002896
    89  H    0.002616
    90  H   -0.024019
    91  H   -0.027363
    92  H   -0.021533
    93  H   -0.008065
    94  H    0.008365
    95  H    0.008895
    96  H   -0.013835
    97  H    0.008577
    98  H   -0.002011
    99  H    0.023156
   100  H    0.019825
   101  H    0.035955
   102  H    0.006410
   103  H   -0.011150
   104  H   -0.041031
   105  H    0.013022
   106  H    0.014792
   107  H   -0.008598
   108  H   -0.034052
   109  H   -0.033895
   110  H   -0.013998
   111  H   -0.043599
   112  H   -0.045727
   113  H   -0.043241
   114  H   -0.037567
   115  H   -0.020470
   116  H   -0.025842
   117  H   -0.003449
   118  H   -0.015915
   119  H   -0.042569
   120  H   -0.022264
   121  H   -0.025184
   122  H   -0.020601
   123  H   -0.042433
   124  H   -0.044255
   125  H   -0.013517
   126  H   -0.026172
   127  H   -0.033369
   128  H   -0.027593
   129  H   -0.032908
   130  H   -0.022223
   131  H   -0.018400
   132  H   -0.029217
   133  H   -0.018656
   134  H   -0.035931
   135  H   -0.025591
   136  H   -0.008490
   137  H   -0.030855
   138  H   -0.024478
   139  H   -0.000538
   140  H   -0.021896
 Sum of Mulliken charges =  -0.00000

 Dipole moment (field-independent basis, Debye):
    X=              0.1200    Y=              6.6626    Z=              0.0265  Tot=              6.6637
 Quadrupole moment (field-independent basis, Debye-Ang):
   XX=           -386.9583   YY=           -429.2625   ZZ=           -407.0853
   XY=            -39.3408   XZ=            -18.3019   YZ=            -32.2594

 Normal termination of Gaussian 16 at Thu May  5 11:09:25 2022.
