 Gaussian 16, Revision A.03,
 Gaussian 16:  ES64L-G16RevA.03 25-Dec-2016

 -----------------------------------
 #p cam-b3lyp/Def2SVP td=(nstates=5)
 -----------------------------------

 -------------------------------------------------------
 step_801_chromophore_26 TDDFT with cam-b3lyp functional
 -------------------------------------------------------
 Symbolic Z-matrix:
 Charge =  0 Multiplicity = 1

                         Standard orientation:
 ---------------------------------------------------------------------
 Center     Atomic      Atomic             Coordinates (Angstroms)
 Number     Number       Type             X           Y           Z
 ---------------------------------------------------------------------
      1         12           0       -3.818720    1.107322    0.516558
      2          6           0       -4.958695   -2.100107   -0.178742
      3          6           0       -2.014137   -0.149071    3.191084
      4          6           0       -2.394687    4.110963    0.973380
      5          6           0       -5.469749    2.203537   -2.355621
      6          7           0       -3.422273   -0.847313    1.253604
      7          6           0       -4.000440   -2.060501    0.849682
      8          6           0       -3.454474   -3.207099    1.678884
      9          6           0       -2.762046   -2.551549    2.936650
     10          6           0       -2.782028   -1.084718    2.485153
     11          6           0       -3.522303   -2.826828    4.313593
     12          6           0       -2.526307   -4.144611    0.835903
     13          6           0       -1.590812   -3.434911   -0.184637
     14          6           0       -0.160090   -3.989237   -0.432618
     15          8           0        0.158025   -5.214474   -0.414045
     16          8           0        0.682332   -3.010307   -0.763525
     17          7           0       -2.382360    1.865669    1.922996
     18          6           0       -1.794278    1.236655    2.967521
     19          6           0       -0.956499    2.169016    3.764864
     20          6           0       -1.137339    3.434062    3.120524
     21          6           0       -2.024302    3.186208    1.937288
     22          6           0       -0.068771    1.829180    4.866609
     23          6           0       -0.677599    4.756949    3.582370
     24          8           0        0.047520    4.762377    4.590884
     25          6           0       -0.957893    6.063483    3.006358
     26          7           0       -3.717769    2.802649   -0.570344
     27          6           0       -3.216676    3.929736   -0.105175
     28          6           0       -3.739385    5.136850   -0.814157
     29          6           0       -4.445234    4.539597   -2.104594
     30          6           0       -4.595757    3.068084   -1.678611
     31          6           0       -4.637859    6.123608   -0.030024
     32          6           0       -3.657941    4.654251   -3.479843
     33          6           0       -3.959104    5.848428   -4.414790
     34          7           0       -5.059144    0.257628   -0.969975
     35          6           0       -5.745069    0.851785   -2.035587
     36          6           0       -6.623139   -0.125694   -2.642716
     37          6           0       -6.314478   -1.341738   -1.945757
     38          6           0       -5.399118   -1.004435   -0.915487
     39          6           0       -7.505433    0.144904   -3.802990
     40          6           0       -6.599491   -2.764169   -1.917665
     41          8           0       -7.308073   -3.524540   -2.598163
     42          6           0       -5.758838   -3.305597   -0.763894
     43          6           0       -6.643490   -3.994166    0.197311
     44          8           0       -6.446011   -5.135986    0.609775
     45          8           0       -7.752060   -3.290777    0.495158
     46          6           0       -8.881397   -4.076548    1.034479
     47          6           0        2.050748   -3.371292   -1.123861
     48          6           0        2.664756   -2.469147   -2.193388
     49          6           0        3.963839   -2.073302   -2.312935
     50          6           0        5.045919   -2.469547   -1.338176
     51          6           0        4.470157   -1.062153   -3.364529
     52          6           0        4.460431    0.317041   -2.770635
     53          6           0        5.773493    1.043513   -2.637157
     54          6           0        6.127747    1.325528   -1.181605
     55          6           0        6.460899    2.878778   -0.985244
     56          6           0        7.383796    0.557418   -0.761679
     57          6           0        7.485229    0.425239    0.826409
     58          6           0        7.600782   -1.044277    1.225867
     59          6           0        8.893406   -1.434816    1.909145
     60          6           0        8.706328   -2.599674    2.872646
     61          6           0       10.051617   -1.579022    0.821159
     62          6           0       11.115449   -0.463309    0.839987
     63          6           0       11.370318    0.164112   -0.588701
     64          6           0       12.888556    0.245796   -0.912547
     65          6           0       13.120867    1.410213   -1.900680
     66          6           0       13.457503   -1.151563   -1.420686
     67          1           0       -1.528149   -0.528675    4.092546
     68          1           0       -2.150684    5.160172    1.153206
     69          1           0       -5.926083    2.740438   -3.189813
     70          1           0       -4.321731   -3.813919    1.939177
     71          1           0       -1.723380   -2.820273    3.126186
     72          1           0       -4.121058   -1.950785    4.563718
     73          1           0       -2.886016   -3.004186    5.180928
     74          1           0       -4.188398   -3.688448    4.366376
     75          1           0       -3.169946   -4.858867    0.322024
     76          1           0       -1.857040   -4.718941    1.475925
     77          1           0       -1.478194   -2.365600   -0.006549
     78          1           0       -2.051288   -3.631896   -1.152712
     79          1           0       -0.217497    0.801331    5.200305
     80          1           0       -0.320289    2.351640    5.789650
     81          1           0        1.014047    1.887651    4.756699
     82          1           0       -2.014599    6.267212    2.830936
     83          1           0       -0.323100    6.091166    2.121126
     84          1           0       -0.670533    6.871499    3.678646
     85          1           0       -2.941218    5.746058   -1.237698
     86          1           0       -5.420942    5.000552   -2.257510
     87          1           0       -3.924376    6.793242    0.450317
     88          1           0       -5.128014    5.602386    0.791554
     89          1           0       -5.251152    6.771839   -0.657652
     90          1           0       -3.807809    3.765139   -4.092657
     91          1           0       -2.582426    4.625251   -3.301954
     92          1           0       -4.909870    6.311653   -4.148454
     93          1           0       -4.194078    5.395540   -5.378723
     94          1           0       -3.153733    6.581759   -4.421355
     95          1           0       -7.488738   -0.784668   -4.372161
     96          1           0       -7.122913    0.936737   -4.447037
     97          1           0       -8.542351    0.383824   -3.566616
     98          1           0       -5.077570   -4.024092   -1.218754
     99          1           0       -9.597402   -3.865329    0.239252
    100          1           0       -9.226010   -3.677941    1.988964
    101          1           0       -8.728598   -5.152381    1.117128
    102          1           0        2.127257   -4.359029   -1.579066
    103          1           0        2.585060   -3.605298   -0.202926
    104          1           0        1.957898   -1.976827   -2.860784
    105          1           0        4.958834   -1.798636   -0.483442
    106          1           0        6.047983   -2.460674   -1.765874
    107          1           0        4.825800   -3.465938   -0.953701
    108          1           0        3.877984   -1.054300   -4.279844
    109          1           0        5.463960   -1.409711   -3.647076
    110          1           0        3.825291    0.405114   -1.889205
    111          1           0        3.995358    0.907549   -3.559516
    112          1           0        5.627926    1.971851   -3.189465
    113          1           0        6.517172    0.414142   -3.126696
    114          1           0        5.263896    0.946140   -0.637954
    115          1           0        7.544710    2.979787   -1.053942
    116          1           0        6.280914    2.981944    0.084981
    117          1           0        5.908993    3.618313   -1.565069
    118          1           0        8.336496    0.932560   -1.135519
    119          1           0        7.153783   -0.389210   -1.252777
    120          1           0        6.555420    0.848273    1.206445
    121          1           0        8.407396    0.955041    1.065732
    122          1           0        7.429265   -1.666209    0.347995
    123          1           0        6.692571   -1.083560    1.828324
    124          1           0        9.191916   -0.626582    2.576570
    125          1           0        7.722627   -3.069231    2.865541
    126          1           0        8.903431   -2.327274    3.909838
    127          1           0        9.536359   -3.265030    2.634192
    128          1           0        9.530256   -1.814131   -0.107261
    129          1           0       10.730285   -2.419413    0.967707
    130          1           0       12.048109   -0.890422    1.207086
    131          1           0       10.884635    0.383582    1.487841
    132          1           0       11.025883    1.198292   -0.578341
    133          1           0       10.864143   -0.281014   -1.445284
    134          1           0       13.382735    0.466585    0.033930
    135          1           0       13.953320    1.280227   -2.591929
    136          1           0       13.128363    2.393450   -1.430746
    137          1           0       12.291210    1.392112   -2.607761
    138          1           0       12.682644   -1.874872   -1.168074
    139          1           0       14.430406   -1.401251   -0.996501
    140          1           0       13.480556   -1.219210   -2.508578
 ---------------------------------------------------------------------

 SCF Done:  E(RCAM-B3LYP) =  -3007.16653417     A.U. after   18 cycles

 Excitation energies and oscillator strengths:

 Excited State   1:      Singlet-A      1.6848 eV  735.91 nm  f=0.4005  <S**2>=0.000
     245 -> 248        0.15286
     246 -> 247        0.69193
     245 <- 248        0.10092
 This state for optimization and/or second-order correction.
 Total Energy, E(TD-HF/TD-DFT) =  -3007.10462016
 Copying the excited state density for this state as the 1-particle RhoCI density.

 Excited State   2:      Singlet-A      2.2515 eV  550.68 nm  f=0.1025  <S**2>=0.000
     245 -> 247        0.63856
     246 -> 248       -0.28463

 Excited State   3:      Singlet-A      3.2228 eV  384.70 nm  f=0.0002  <S**2>=0.000
     240 -> 247        0.34816
     240 -> 248        0.10304
     240 -> 249       -0.25132
     240 -> 250       -0.16462
     241 -> 247        0.46360
     241 -> 249       -0.14860
     243 -> 247       -0.11548

 Excited State   4:      Singlet-A      3.3238 eV  373.02 nm  f=0.0017  <S**2>=0.000
     240 -> 247        0.36005
     240 -> 249       -0.13109
     241 -> 247       -0.26650
     243 -> 247        0.50364

 Excited State   5:      Singlet-A      3.4222 eV  362.29 nm  f=0.0036  <S**2>=0.000
     239 -> 247       -0.12025
     240 -> 247       -0.26700
     241 -> 247        0.33586
     242 -> 247        0.23245
     242 -> 249        0.10279
     243 -> 247        0.41458
     246 -> 248        0.17059

 The electronic state is 1-A.
 Alpha  occ. eigenvalues --  -46.88442 -19.25774 -19.24908 -19.18831 -19.18526
 Alpha  occ. eigenvalues --  -19.18302 -19.18082 -14.43137 -14.42707 -14.40374
 Alpha  occ. eigenvalues --  -14.39081 -10.39252 -10.38814 -10.34831 -10.34186
 Alpha  occ. eigenvalues --  -10.32353 -10.32195 -10.31522 -10.31509 -10.31456
 Alpha  occ. eigenvalues --  -10.31442 -10.31434 -10.31172 -10.29961 -10.29419
 Alpha  occ. eigenvalues --  -10.29209 -10.28322 -10.28254 -10.28216 -10.28149
 Alpha  occ. eigenvalues --  -10.28142 -10.28063 -10.27903 -10.27787 -10.27653
 Alpha  occ. eigenvalues --  -10.27541 -10.27298 -10.27252 -10.27202 -10.26893
 Alpha  occ. eigenvalues --  -10.26818 -10.26785 -10.26774 -10.26682 -10.26235
 Alpha  occ. eigenvalues --  -10.26144 -10.26045 -10.25977 -10.25904 -10.25799
 Alpha  occ. eigenvalues --  -10.25601 -10.25417 -10.25403 -10.25325 -10.25002
 Alpha  occ. eigenvalues --  -10.24970 -10.24923 -10.24794 -10.24707 -10.24493
 Alpha  occ. eigenvalues --  -10.24489 -10.24416 -10.24357 -10.24138 -10.23960
 Alpha  occ. eigenvalues --  -10.23930  -3.17141  -1.92028  -1.91592  -1.91464
 Alpha  occ. eigenvalues --   -1.16770  -1.16492  -1.09420  -1.08017  -1.06792
 Alpha  occ. eigenvalues --   -1.05339  -1.04762  -1.03854  -1.03584  -1.02241
 Alpha  occ. eigenvalues --   -0.92587  -0.91068  -0.89744  -0.89719  -0.88844
 Alpha  occ. eigenvalues --   -0.88767  -0.88446  -0.87766  -0.87482  -0.87473
 Alpha  occ. eigenvalues --   -0.86687  -0.85567  -0.84896  -0.84128  -0.83843
 Alpha  occ. eigenvalues --   -0.83215  -0.82436  -0.81633  -0.81182  -0.80723
 Alpha  occ. eigenvalues --   -0.79876  -0.78682  -0.78082  -0.77931  -0.76537
 Alpha  occ. eigenvalues --   -0.76029  -0.75895  -0.75566  -0.74453  -0.74049
 Alpha  occ. eigenvalues --   -0.73782  -0.73005  -0.72499  -0.70670  -0.69448
 Alpha  occ. eigenvalues --   -0.68887  -0.68580  -0.67985  -0.66728  -0.65815
 Alpha  occ. eigenvalues --   -0.65665  -0.65298  -0.64680  -0.64476  -0.63840
 Alpha  occ. eigenvalues --   -0.63672  -0.63488  -0.63064  -0.62862  -0.60704
 Alpha  occ. eigenvalues --   -0.60017  -0.59875  -0.59438  -0.58596  -0.58196
 Alpha  occ. eigenvalues --   -0.57460  -0.57198  -0.56408  -0.56219  -0.55822
 Alpha  occ. eigenvalues --   -0.55151  -0.54910  -0.54812  -0.54501  -0.54106
 Alpha  occ. eigenvalues --   -0.53782  -0.53605  -0.53299  -0.53103  -0.52844
 Alpha  occ. eigenvalues --   -0.52753  -0.52572  -0.52172  -0.52033  -0.51705
 Alpha  occ. eigenvalues --   -0.51662  -0.51400  -0.51270  -0.50993  -0.50694
 Alpha  occ. eigenvalues --   -0.50627  -0.50539  -0.50518  -0.49836  -0.49733
 Alpha  occ. eigenvalues --   -0.49400  -0.48988  -0.48896  -0.48631  -0.48505
 Alpha  occ. eigenvalues --   -0.48464  -0.48379  -0.48220  -0.48049  -0.47849
 Alpha  occ. eigenvalues --   -0.47788  -0.47588  -0.46969  -0.46874  -0.46681
 Alpha  occ. eigenvalues --   -0.46536  -0.46299  -0.46253  -0.45832  -0.45701
 Alpha  occ. eigenvalues --   -0.45622  -0.45460  -0.45380  -0.45212  -0.45105
 Alpha  occ. eigenvalues --   -0.44935  -0.44519  -0.44345  -0.44291  -0.44135
 Alpha  occ. eigenvalues --   -0.43982  -0.43737  -0.43476  -0.43338  -0.43144
 Alpha  occ. eigenvalues --   -0.42850  -0.42681  -0.42473  -0.42333  -0.42146
 Alpha  occ. eigenvalues --   -0.42034  -0.41816  -0.41610  -0.41436  -0.41339
 Alpha  occ. eigenvalues --   -0.41277  -0.41192  -0.41098  -0.40610  -0.40472
 Alpha  occ. eigenvalues --   -0.40287  -0.39743  -0.39535  -0.39274  -0.38601
 Alpha  occ. eigenvalues --   -0.38443  -0.38257  -0.37984  -0.37836  -0.37462
 Alpha  occ. eigenvalues --   -0.37187  -0.36945  -0.36449  -0.36242  -0.36135
 Alpha  occ. eigenvalues --   -0.35926  -0.35106  -0.35062  -0.34703  -0.34037
 Alpha  occ. eigenvalues --   -0.33565  -0.33495  -0.33029  -0.31571  -0.31116
 Alpha  occ. eigenvalues --   -0.30584  -0.30267  -0.29501  -0.29195  -0.25040
 Alpha  occ. eigenvalues --   -0.21637
 Alpha virt. eigenvalues --   -0.09485  -0.01968  -0.00141   0.01738   0.02076
 Alpha virt. eigenvalues --    0.04312   0.05208   0.05503   0.05754   0.06559
 Alpha virt. eigenvalues --    0.07597   0.08254   0.08328   0.08891   0.08949

 Mulliken charges:
               1
     1  Mg   0.829632
     2  C   -0.051950
     3  C   -0.079093
     4  C   -0.078855
     5  C   -0.060986
     6  N   -0.341372
     7  C   -0.047949
     8  C    0.028901
     9  C   -0.043470
    10  C    0.083491
    11  C    0.037875
    12  C    0.058149
    13  C    0.019240
    14  C    0.151772
    15  O   -0.283411
    16  O   -0.290938
    17  N   -0.331748
    18  C    0.116091
    19  C   -0.089779
    20  C    0.005409
    21  C    0.161374
    22  C    0.126911
    23  C   -0.059793
    24  O   -0.235429
    25  C    0.103053
    26  N   -0.349031
    27  C    0.068158
    28  C   -0.046918
    29  C   -0.032868
    30  C    0.032329
    31  C    0.085077
    32  C    0.005401
    33  C    0.019335
    34  N   -0.321508
    35  C    0.130661
    36  C   -0.146014
    37  C   -0.037362
    38  C    0.131437
    39  C    0.111493
    40  C    0.046895
    41  O   -0.193568
    42  C    0.035804
    43  C    0.182527
    44  O   -0.233792
    45  O   -0.324127
    46  C    0.164710
    47  C    0.254092
    48  C   -0.062908
    49  C   -0.226148
    50  C    0.062339
    51  C    0.101508
    52  C   -0.006858
    53  C    0.089357
    54  C   -0.146561
    55  C    0.063170
    56  C   -0.013396
    57  C    0.031551
    58  C    0.038049
    59  C   -0.116404
    60  C    0.069405
    61  C    0.051295
    62  C    0.020421
    63  C   -0.007797
    64  C   -0.151181
    65  C    0.048456
    66  C    0.045128
    67  H   -0.031125
    68  H   -0.060184
    69  H   -0.026044
    70  H    0.016430
    71  H    0.024817
    72  H    0.017157
    73  H    0.014967
    74  H    0.028825
    75  H    0.030286
    76  H    0.020871
    77  H    0.047341
    78  H    0.041560
    79  H   -0.021357
    80  H    0.032459
    81  H    0.044374
    82  H    0.037637
    83  H    0.046180
    84  H    0.025218
    85  H    0.001895
    86  H   -0.002744
    87  H    0.005877
    88  H    0.022405
    89  H    0.028756
    90  H    0.006892
    91  H   -0.000013
    92  H    0.000973
    93  H    0.015855
    94  H    0.029703
    95  H    0.033340
    96  H    0.008813
    97  H    0.033280
    98  H    0.038703
    99  H    0.045891
   100  H    0.040036
   101  H    0.061511
   102  H    0.038979
   103  H    0.017254
   104  H   -0.004520
   105  H    0.034117
   106  H    0.036061
   107  H    0.017051
   108  H   -0.000978
   109  H   -0.004048
   110  H    0.015003
   111  H   -0.010839
   112  H   -0.013720
   113  H   -0.013643
   114  H   -0.008501
   115  H    0.003208
   116  H   -0.001894
   117  H    0.020331
   118  H    0.008592
   119  H   -0.021455
   120  H    0.005537
   121  H    0.000383
   122  H    0.001854
   123  H   -0.012209
   124  H   -0.010910
   125  H    0.011107
   126  H   -0.001001
   127  H   -0.008291
   128  H   -0.000730
   129  H   -0.003859
   130  H    0.006073
   131  H    0.008308
   132  H   -0.001679
   133  H    0.006488
   134  H   -0.004721
   135  H    0.000874
   136  H    0.015957
   137  H   -0.007401
   138  H   -0.002367
   139  H    0.023285
   140  H    0.002437
 Sum of Mulliken charges =  -0.00000

 Dipole moment (field-independent basis, Debye):
    X=              0.8270    Y=              7.6330    Z=              0.9792  Tot=              7.7398
 Quadrupole moment (field-independent basis, Debye-Ang):
   XX=           -391.9397   YY=           -426.2083   ZZ=           -404.0666
   XY=            -41.6690   XZ=            -21.3670   YZ=            -31.8655

 Normal termination of Gaussian 16 at Thu May  5 10:03:23 2022.
