 Gaussian 16, Revision A.03,
 Gaussian 16:  ES64L-G16RevA.03 25-Dec-2016

 ---------------------------------
 #p PBE1PBE/Def2SVP td=(nstates=5)
 ---------------------------------

 -----------------------------------------------------
 step_801_chromophore_26 TDDFT with PBE1PBE functional
 -----------------------------------------------------
 Symbolic Z-matrix:
 Charge =  0 Multiplicity = 1

                         Standard orientation:
 ---------------------------------------------------------------------
 Center     Atomic      Atomic             Coordinates (Angstroms)
 Number     Number       Type             X           Y           Z
 ---------------------------------------------------------------------
      1         12           0       -3.818720    1.107322    0.516558
      2          6           0       -4.958695   -2.100107   -0.178742
      3          6           0       -2.014137   -0.149071    3.191084
      4          6           0       -2.394687    4.110963    0.973380
      5          6           0       -5.469749    2.203537   -2.355621
      6          7           0       -3.422273   -0.847313    1.253604
      7          6           0       -4.000440   -2.060501    0.849682
      8          6           0       -3.454474   -3.207099    1.678884
      9          6           0       -2.762046   -2.551549    2.936650
     10          6           0       -2.782028   -1.084718    2.485153
     11          6           0       -3.522303   -2.826828    4.313593
     12          6           0       -2.526307   -4.144611    0.835903
     13          6           0       -1.590812   -3.434911   -0.184637
     14          6           0       -0.160090   -3.989237   -0.432618
     15          8           0        0.158025   -5.214474   -0.414045
     16          8           0        0.682332   -3.010307   -0.763525
     17          7           0       -2.382360    1.865669    1.922996
     18          6           0       -1.794278    1.236655    2.967521
     19          6           0       -0.956499    2.169016    3.764864
     20          6           0       -1.137339    3.434062    3.120524
     21          6           0       -2.024302    3.186208    1.937288
     22          6           0       -0.068771    1.829180    4.866609
     23          6           0       -0.677599    4.756949    3.582370
     24          8           0        0.047520    4.762377    4.590884
     25          6           0       -0.957893    6.063483    3.006358
     26          7           0       -3.717769    2.802649   -0.570344
     27          6           0       -3.216676    3.929736   -0.105175
     28          6           0       -3.739385    5.136850   -0.814157
     29          6           0       -4.445234    4.539597   -2.104594
     30          6           0       -4.595757    3.068084   -1.678611
     31          6           0       -4.637859    6.123608   -0.030024
     32          6           0       -3.657941    4.654251   -3.479843
     33          6           0       -3.959104    5.848428   -4.414790
     34          7           0       -5.059144    0.257628   -0.969975
     35          6           0       -5.745069    0.851785   -2.035587
     36          6           0       -6.623139   -0.125694   -2.642716
     37          6           0       -6.314478   -1.341738   -1.945757
     38          6           0       -5.399118   -1.004435   -0.915487
     39          6           0       -7.505433    0.144904   -3.802990
     40          6           0       -6.599491   -2.764169   -1.917665
     41          8           0       -7.308073   -3.524540   -2.598163
     42          6           0       -5.758838   -3.305597   -0.763894
     43          6           0       -6.643490   -3.994166    0.197311
     44          8           0       -6.446011   -5.135986    0.609775
     45          8           0       -7.752060   -3.290777    0.495158
     46          6           0       -8.881397   -4.076548    1.034479
     47          6           0        2.050748   -3.371292   -1.123861
     48          6           0        2.664756   -2.469147   -2.193388
     49          6           0        3.963839   -2.073302   -2.312935
     50          6           0        5.045919   -2.469547   -1.338176
     51          6           0        4.470157   -1.062153   -3.364529
     52          6           0        4.460431    0.317041   -2.770635
     53          6           0        5.773493    1.043513   -2.637157
     54          6           0        6.127747    1.325528   -1.181605
     55          6           0        6.460899    2.878778   -0.985244
     56          6           0        7.383796    0.557418   -0.761679
     57          6           0        7.485229    0.425239    0.826409
     58          6           0        7.600782   -1.044277    1.225867
     59          6           0        8.893406   -1.434816    1.909145
     60          6           0        8.706328   -2.599674    2.872646
     61          6           0       10.051617   -1.579022    0.821159
     62          6           0       11.115449   -0.463309    0.839987
     63          6           0       11.370318    0.164112   -0.588701
     64          6           0       12.888556    0.245796   -0.912547
     65          6           0       13.120867    1.410213   -1.900680
     66          6           0       13.457503   -1.151563   -1.420686
     67          1           0       -1.528149   -0.528675    4.092546
     68          1           0       -2.150684    5.160172    1.153206
     69          1           0       -5.926083    2.740438   -3.189813
     70          1           0       -4.321731   -3.813919    1.939177
     71          1           0       -1.723380   -2.820273    3.126186
     72          1           0       -4.121058   -1.950785    4.563718
     73          1           0       -2.886016   -3.004186    5.180928
     74          1           0       -4.188398   -3.688448    4.366376
     75          1           0       -3.169946   -4.858867    0.322024
     76          1           0       -1.857040   -4.718941    1.475925
     77          1           0       -1.478194   -2.365600   -0.006549
     78          1           0       -2.051288   -3.631896   -1.152712
     79          1           0       -0.217497    0.801331    5.200305
     80          1           0       -0.320289    2.351640    5.789650
     81          1           0        1.014047    1.887651    4.756699
     82          1           0       -2.014599    6.267212    2.830936
     83          1           0       -0.323100    6.091166    2.121126
     84          1           0       -0.670533    6.871499    3.678646
     85          1           0       -2.941218    5.746058   -1.237698
     86          1           0       -5.420942    5.000552   -2.257510
     87          1           0       -3.924376    6.793242    0.450317
     88          1           0       -5.128014    5.602386    0.791554
     89          1           0       -5.251152    6.771839   -0.657652
     90          1           0       -3.807809    3.765139   -4.092657
     91          1           0       -2.582426    4.625251   -3.301954
     92          1           0       -4.909870    6.311653   -4.148454
     93          1           0       -4.194078    5.395540   -5.378723
     94          1           0       -3.153733    6.581759   -4.421355
     95          1           0       -7.488738   -0.784668   -4.372161
     96          1           0       -7.122913    0.936737   -4.447037
     97          1           0       -8.542351    0.383824   -3.566616
     98          1           0       -5.077570   -4.024092   -1.218754
     99          1           0       -9.597402   -3.865329    0.239252
    100          1           0       -9.226010   -3.677941    1.988964
    101          1           0       -8.728598   -5.152381    1.117128
    102          1           0        2.127257   -4.359029   -1.579066
    103          1           0        2.585060   -3.605298   -0.202926
    104          1           0        1.957898   -1.976827   -2.860784
    105          1           0        4.958834   -1.798636   -0.483442
    106          1           0        6.047983   -2.460674   -1.765874
    107          1           0        4.825800   -3.465938   -0.953701
    108          1           0        3.877984   -1.054300   -4.279844
    109          1           0        5.463960   -1.409711   -3.647076
    110          1           0        3.825291    0.405114   -1.889205
    111          1           0        3.995358    0.907549   -3.559516
    112          1           0        5.627926    1.971851   -3.189465
    113          1           0        6.517172    0.414142   -3.126696
    114          1           0        5.263896    0.946140   -0.637954
    115          1           0        7.544710    2.979787   -1.053942
    116          1           0        6.280914    2.981944    0.084981
    117          1           0        5.908993    3.618313   -1.565069
    118          1           0        8.336496    0.932560   -1.135519
    119          1           0        7.153783   -0.389210   -1.252777
    120          1           0        6.555420    0.848273    1.206445
    121          1           0        8.407396    0.955041    1.065732
    122          1           0        7.429265   -1.666209    0.347995
    123          1           0        6.692571   -1.083560    1.828324
    124          1           0        9.191916   -0.626582    2.576570
    125          1           0        7.722627   -3.069231    2.865541
    126          1           0        8.903431   -2.327274    3.909838
    127          1           0        9.536359   -3.265030    2.634192
    128          1           0        9.530256   -1.814131   -0.107261
    129          1           0       10.730285   -2.419413    0.967707
    130          1           0       12.048109   -0.890422    1.207086
    131          1           0       10.884635    0.383582    1.487841
    132          1           0       11.025883    1.198292   -0.578341
    133          1           0       10.864143   -0.281014   -1.445284
    134          1           0       13.382735    0.466585    0.033930
    135          1           0       13.953320    1.280227   -2.591929
    136          1           0       13.128363    2.393450   -1.430746
    137          1           0       12.291210    1.392112   -2.607761
    138          1           0       12.682644   -1.874872   -1.168074
    139          1           0       14.430406   -1.401251   -0.996501
    140          1           0       13.480556   -1.219210   -2.508578
 ---------------------------------------------------------------------

 SCF Done:  E(RPBE1PBE) =  -3005.35498229     A.U. after   15 cycles

 Excitation energies and oscillator strengths:

 Excited State   1:      Singlet-A      1.8046 eV  687.04 nm  f=0.3891  <S**2>=0.000
     245 -> 248        0.15035
     246 -> 247        0.69934
     246 <- 247       -0.11752
 This state for optimization and/or second-order correction.
 Total Energy, E(TD-HF/TD-DFT) =  -3005.28866406
 Copying the excited state density for this state as the 1-particle RhoCI density.

 Excited State   2:      Singlet-A      2.2423 eV  552.93 nm  f=0.0988  <S**2>=0.000
     245 -> 247        0.65102
     246 -> 248       -0.25552

 Excited State   3:      Singlet-A      2.7223 eV  455.44 nm  f=0.0003  <S**2>=0.000
     242 -> 247        0.64857
     242 -> 249       -0.14845
     243 -> 247        0.14231

 Excited State   4:      Singlet-A      2.8194 eV  439.75 nm  f=0.0001  <S**2>=0.000
     241 -> 247       -0.21137
     242 -> 247       -0.11471
     243 -> 247        0.63586
     243 -> 249        0.12754

 Excited State   5:      Singlet-A      2.9492 eV  420.41 nm  f=0.0017  <S**2>=0.000
     240 -> 247       -0.20980
     241 -> 247        0.62142
     242 -> 247       -0.14718
     243 -> 247        0.18265

 The electronic state is 1-A.
 Alpha  occ. eigenvalues --  -46.91813 -19.26465 -19.25659 -19.19230 -19.18904
 Alpha  occ. eigenvalues --  -19.18648 -19.18226 -14.42688 -14.42195 -14.39788
 Alpha  occ. eigenvalues --  -14.38911 -10.36342 -10.35953 -10.31664 -10.31599
 Alpha  occ. eigenvalues --  -10.29796 -10.29608 -10.29490 -10.29262 -10.28877
 Alpha  occ. eigenvalues --  -10.28754 -10.28679 -10.28671 -10.27611 -10.27138
 Alpha  occ. eigenvalues --  -10.26948 -10.26279 -10.26194 -10.26094 -10.26078
 Alpha  occ. eigenvalues --  -10.25981 -10.25882 -10.25576 -10.25401 -10.25363
 Alpha  occ. eigenvalues --  -10.25048 -10.24844 -10.24841 -10.24651 -10.24515
 Alpha  occ. eigenvalues --  -10.24514 -10.24354 -10.24091 -10.23870 -10.23673
 Alpha  occ. eigenvalues --  -10.23636 -10.23537 -10.23471 -10.23369 -10.23245
 Alpha  occ. eigenvalues --  -10.23127 -10.23109 -10.23080 -10.22995 -10.22949
 Alpha  occ. eigenvalues --  -10.22562 -10.22479 -10.22218 -10.22162 -10.22055
 Alpha  occ. eigenvalues --  -10.21954 -10.21865 -10.21724 -10.21664 -10.21492
 Alpha  occ. eigenvalues --  -10.21280  -3.14088  -1.86918  -1.86460  -1.86334
 Alpha  occ. eigenvalues --   -1.11640  -1.11386  -1.03839  -1.03030  -1.01746
 Alpha  occ. eigenvalues --   -1.00219  -0.99318  -0.98662  -0.98043  -0.96824
 Alpha  occ. eigenvalues --   -0.87124  -0.85145  -0.83952  -0.83809  -0.83090
 Alpha  occ. eigenvalues --   -0.83008  -0.82569  -0.82046  -0.81567  -0.81485
 Alpha  occ. eigenvalues --   -0.81169  -0.79798  -0.79068  -0.78483  -0.77963
 Alpha  occ. eigenvalues --   -0.77326  -0.76604  -0.75882  -0.75547  -0.75026
 Alpha  occ. eigenvalues --   -0.74025  -0.72923  -0.72349  -0.72211  -0.70945
 Alpha  occ. eigenvalues --   -0.70227  -0.70075  -0.69616  -0.68568  -0.68251
 Alpha  occ. eigenvalues --   -0.68071  -0.67481  -0.66881  -0.64947  -0.63827
 Alpha  occ. eigenvalues --   -0.63276  -0.62876  -0.62409  -0.60939  -0.60262
 Alpha  occ. eigenvalues --   -0.60110  -0.59854  -0.59045  -0.58867  -0.58320
 Alpha  occ. eigenvalues --   -0.57845  -0.57577  -0.57500  -0.57203  -0.55096
 Alpha  occ. eigenvalues --   -0.54594  -0.54294  -0.54054  -0.53207  -0.52703
 Alpha  occ. eigenvalues --   -0.51989  -0.51663  -0.50887  -0.50560  -0.50409
 Alpha  occ. eigenvalues --   -0.49694  -0.49507  -0.49316  -0.48874  -0.48662
 Alpha  occ. eigenvalues --   -0.48272  -0.48050  -0.47751  -0.47538  -0.47396
 Alpha  occ. eigenvalues --   -0.47339  -0.47209  -0.46622  -0.46531  -0.46404
 Alpha  occ. eigenvalues --   -0.46173  -0.46060  -0.45811  -0.45550  -0.45306
 Alpha  occ. eigenvalues --   -0.45162  -0.45042  -0.44876  -0.44378  -0.44182
 Alpha  occ. eigenvalues --   -0.43997  -0.43685  -0.43604  -0.43190  -0.43149
 Alpha  occ. eigenvalues --   -0.43016  -0.42948  -0.42861  -0.42685  -0.42477
 Alpha  occ. eigenvalues --   -0.42380  -0.42218  -0.41680  -0.41437  -0.41306
 Alpha  occ. eigenvalues --   -0.41245  -0.41094  -0.41015  -0.40461  -0.40430
 Alpha  occ. eigenvalues --   -0.40217  -0.40118  -0.39970  -0.39921  -0.39820
 Alpha  occ. eigenvalues --   -0.39694  -0.39322  -0.39178  -0.39128  -0.38984
 Alpha  occ. eigenvalues --   -0.38670  -0.38454  -0.38164  -0.38057  -0.37766
 Alpha  occ. eigenvalues --   -0.37653  -0.37537  -0.37299  -0.37090  -0.36867
 Alpha  occ. eigenvalues --   -0.36777  -0.36585  -0.36446  -0.36313  -0.36147
 Alpha  occ. eigenvalues --   -0.36096  -0.36028  -0.35974  -0.35531  -0.35256
 Alpha  occ. eigenvalues --   -0.35176  -0.34476  -0.34277  -0.34206  -0.33581
 Alpha  occ. eigenvalues --   -0.33213  -0.33020  -0.32810  -0.32729  -0.32526
 Alpha  occ. eigenvalues --   -0.32282  -0.31770  -0.31283  -0.31191  -0.30980
 Alpha  occ. eigenvalues --   -0.30901  -0.30289  -0.30008  -0.29626  -0.29531
 Alpha  occ. eigenvalues --   -0.28629  -0.28418  -0.27843  -0.27189  -0.26046
 Alpha  occ. eigenvalues --   -0.25505  -0.25317  -0.25300  -0.24449  -0.21846
 Alpha  occ. eigenvalues --   -0.19259
 Alpha virt. eigenvalues --   -0.11943  -0.05521  -0.04301  -0.02700  -0.00628
 Alpha virt. eigenvalues --    0.00068   0.00747   0.00881   0.01131   0.03062
 Alpha virt. eigenvalues --    0.03819   0.04224   0.04936   0.04990   0.05653

 Mulliken charges:
               1
     1  Mg   0.980274
     2  C   -0.063846
     3  C   -0.066734
     4  C   -0.066287
     5  C   -0.056367
     6  N   -0.439084
     7  C    0.016898
     8  C   -0.037701
     9  C   -0.119208
    10  C    0.108907
    11  C   -0.015291
    12  C    0.012334
    13  C   -0.065488
    14  C    0.223387
    15  O   -0.315347
    16  O   -0.323522
    17  N   -0.446119
    18  C    0.133240
    19  C   -0.118248
    20  C   -0.045084
    21  C    0.189221
    22  C    0.074745
    23  C   -0.010541
    24  O   -0.269468
    25  C    0.021726
    26  N   -0.459164
    27  C    0.105462
    28  C   -0.127308
    29  C   -0.104557
    30  C    0.063666
    31  C    0.026186
    32  C   -0.051575
    33  C   -0.052193
    34  N   -0.451545
    35  C    0.152234
    36  C   -0.157853
    37  C   -0.088756
    38  C    0.194263
    39  C    0.060903
    40  C    0.142756
    41  O   -0.238248
    42  C   -0.071851
    43  C    0.275669
    44  O   -0.270858
    45  O   -0.354917
    46  C    0.110449
    47  C    0.217757
    48  C   -0.078629
    49  C   -0.271173
    50  C   -0.001293
    51  C    0.040173
    52  C   -0.069818
    53  C    0.038968
    54  C   -0.234959
    55  C    0.002642
    56  C   -0.073087
    57  C   -0.027671
    58  C   -0.021913
    59  C   -0.205199
    60  C    0.011091
    61  C    0.003713
    62  C   -0.043473
    63  C   -0.064995
    64  C   -0.240143
    65  C   -0.015148
    66  C   -0.016017
    67  H    0.000996
    68  H   -0.024341
    69  H    0.005597
    70  H    0.057291
    71  H    0.059639
    72  H    0.044897
    73  H    0.041488
    74  H    0.054111
    75  H    0.061449
    76  H    0.054117
    77  H    0.082653
    78  H    0.075459
    79  H    0.005438
    80  H    0.058237
    81  H    0.068832
    82  H    0.062786
    83  H    0.072920
    84  H    0.052525
    85  H    0.040276
    86  H    0.034114
    87  H    0.034316
    88  H    0.050901
    89  H    0.054747
    90  H    0.039316
    91  H    0.033893
    92  H    0.028801
    93  H    0.043448
    94  H    0.056998
    95  H    0.062128
    96  H    0.036957
    97  H    0.062218
    98  H    0.076778
    99  H    0.067789
   100  H    0.062057
   101  H    0.081776
   102  H    0.065738
   103  H    0.042971
   104  H    0.025976
   105  H    0.064246
   106  H    0.059255
   107  H    0.045402
   108  H    0.030607
   109  H    0.027748
   110  H    0.046690
   111  H    0.023778
   112  H    0.019227
   113  H    0.017932
   114  H    0.028860
   115  H    0.030914
   116  H    0.027949
   117  H    0.046718
   118  H    0.043291
   119  H    0.016185
   120  H    0.037714
   121  H    0.034729
   122  H    0.037454
   123  H    0.020917
   124  H    0.028205
   125  H    0.037361
   126  H    0.026688
   127  H    0.019811
   128  H    0.029602
   129  H    0.027393
   130  H    0.037914
   131  H    0.038883
   132  H    0.032011
   133  H    0.037192
   134  H    0.033547
   135  H    0.028888
   136  H    0.043726
   137  H    0.020920
   138  H    0.027015
   139  H    0.050075
   140  H    0.029879
 Sum of Mulliken charges =  -0.00000

 Dipole moment (field-independent basis, Debye):
    X=              0.3235    Y=              7.3573    Z=              0.4033  Tot=              7.3755
 Quadrupole moment (field-independent basis, Debye-Ang):
   XX=           -385.3321   YY=           -422.9391   ZZ=           -400.9984
   XY=            -41.2677   XZ=            -18.8189   YZ=            -34.1433

 Normal termination of Gaussian 16 at Thu May  5 10:23:59 2022.
