 Gaussian 16, Revision A.03,
 Gaussian 16:  ES64L-G16RevA.03 25-Dec-2016

 --------------------------------
 #p wB97XD/Def2SVP td=(nstates=5)
 --------------------------------

 ----------------------------------------------------
 step_801_chromophore_26 TDDFT with wB97XD functional
 ----------------------------------------------------
 Symbolic Z-matrix:
 Charge =  0 Multiplicity = 1

                         Standard orientation:
 ---------------------------------------------------------------------
 Center     Atomic      Atomic             Coordinates (Angstroms)
 Number     Number       Type             X           Y           Z
 ---------------------------------------------------------------------
      1         12           0       -3.818720    1.107322    0.516558
      2          6           0       -4.958695   -2.100107   -0.178742
      3          6           0       -2.014137   -0.149071    3.191084
      4          6           0       -2.394687    4.110963    0.973380
      5          6           0       -5.469749    2.203537   -2.355621
      6          7           0       -3.422273   -0.847313    1.253604
      7          6           0       -4.000440   -2.060501    0.849682
      8          6           0       -3.454474   -3.207099    1.678884
      9          6           0       -2.762046   -2.551549    2.936650
     10          6           0       -2.782028   -1.084718    2.485153
     11          6           0       -3.522303   -2.826828    4.313593
     12          6           0       -2.526307   -4.144611    0.835903
     13          6           0       -1.590812   -3.434911   -0.184637
     14          6           0       -0.160090   -3.989237   -0.432618
     15          8           0        0.158025   -5.214474   -0.414045
     16          8           0        0.682332   -3.010307   -0.763525
     17          7           0       -2.382360    1.865669    1.922996
     18          6           0       -1.794278    1.236655    2.967521
     19          6           0       -0.956499    2.169016    3.764864
     20          6           0       -1.137339    3.434062    3.120524
     21          6           0       -2.024302    3.186208    1.937288
     22          6           0       -0.068771    1.829180    4.866609
     23          6           0       -0.677599    4.756949    3.582370
     24          8           0        0.047520    4.762377    4.590884
     25          6           0       -0.957893    6.063483    3.006358
     26          7           0       -3.717769    2.802649   -0.570344
     27          6           0       -3.216676    3.929736   -0.105175
     28          6           0       -3.739385    5.136850   -0.814157
     29          6           0       -4.445234    4.539597   -2.104594
     30          6           0       -4.595757    3.068084   -1.678611
     31          6           0       -4.637859    6.123608   -0.030024
     32          6           0       -3.657941    4.654251   -3.479843
     33          6           0       -3.959104    5.848428   -4.414790
     34          7           0       -5.059144    0.257628   -0.969975
     35          6           0       -5.745069    0.851785   -2.035587
     36          6           0       -6.623139   -0.125694   -2.642716
     37          6           0       -6.314478   -1.341738   -1.945757
     38          6           0       -5.399118   -1.004435   -0.915487
     39          6           0       -7.505433    0.144904   -3.802990
     40          6           0       -6.599491   -2.764169   -1.917665
     41          8           0       -7.308073   -3.524540   -2.598163
     42          6           0       -5.758838   -3.305597   -0.763894
     43          6           0       -6.643490   -3.994166    0.197311
     44          8           0       -6.446011   -5.135986    0.609775
     45          8           0       -7.752060   -3.290777    0.495158
     46          6           0       -8.881397   -4.076548    1.034479
     47          6           0        2.050748   -3.371292   -1.123861
     48          6           0        2.664756   -2.469147   -2.193388
     49          6           0        3.963839   -2.073302   -2.312935
     50          6           0        5.045919   -2.469547   -1.338176
     51          6           0        4.470157   -1.062153   -3.364529
     52          6           0        4.460431    0.317041   -2.770635
     53          6           0        5.773493    1.043513   -2.637157
     54          6           0        6.127747    1.325528   -1.181605
     55          6           0        6.460899    2.878778   -0.985244
     56          6           0        7.383796    0.557418   -0.761679
     57          6           0        7.485229    0.425239    0.826409
     58          6           0        7.600782   -1.044277    1.225867
     59          6           0        8.893406   -1.434816    1.909145
     60          6           0        8.706328   -2.599674    2.872646
     61          6           0       10.051617   -1.579022    0.821159
     62          6           0       11.115449   -0.463309    0.839987
     63          6           0       11.370318    0.164112   -0.588701
     64          6           0       12.888556    0.245796   -0.912547
     65          6           0       13.120867    1.410213   -1.900680
     66          6           0       13.457503   -1.151563   -1.420686
     67          1           0       -1.528149   -0.528675    4.092546
     68          1           0       -2.150684    5.160172    1.153206
     69          1           0       -5.926083    2.740438   -3.189813
     70          1           0       -4.321731   -3.813919    1.939177
     71          1           0       -1.723380   -2.820273    3.126186
     72          1           0       -4.121058   -1.950785    4.563718
     73          1           0       -2.886016   -3.004186    5.180928
     74          1           0       -4.188398   -3.688448    4.366376
     75          1           0       -3.169946   -4.858867    0.322024
     76          1           0       -1.857040   -4.718941    1.475925
     77          1           0       -1.478194   -2.365600   -0.006549
     78          1           0       -2.051288   -3.631896   -1.152712
     79          1           0       -0.217497    0.801331    5.200305
     80          1           0       -0.320289    2.351640    5.789650
     81          1           0        1.014047    1.887651    4.756699
     82          1           0       -2.014599    6.267212    2.830936
     83          1           0       -0.323100    6.091166    2.121126
     84          1           0       -0.670533    6.871499    3.678646
     85          1           0       -2.941218    5.746058   -1.237698
     86          1           0       -5.420942    5.000552   -2.257510
     87          1           0       -3.924376    6.793242    0.450317
     88          1           0       -5.128014    5.602386    0.791554
     89          1           0       -5.251152    6.771839   -0.657652
     90          1           0       -3.807809    3.765139   -4.092657
     91          1           0       -2.582426    4.625251   -3.301954
     92          1           0       -4.909870    6.311653   -4.148454
     93          1           0       -4.194078    5.395540   -5.378723
     94          1           0       -3.153733    6.581759   -4.421355
     95          1           0       -7.488738   -0.784668   -4.372161
     96          1           0       -7.122913    0.936737   -4.447037
     97          1           0       -8.542351    0.383824   -3.566616
     98          1           0       -5.077570   -4.024092   -1.218754
     99          1           0       -9.597402   -3.865329    0.239252
    100          1           0       -9.226010   -3.677941    1.988964
    101          1           0       -8.728598   -5.152381    1.117128
    102          1           0        2.127257   -4.359029   -1.579066
    103          1           0        2.585060   -3.605298   -0.202926
    104          1           0        1.957898   -1.976827   -2.860784
    105          1           0        4.958834   -1.798636   -0.483442
    106          1           0        6.047983   -2.460674   -1.765874
    107          1           0        4.825800   -3.465938   -0.953701
    108          1           0        3.877984   -1.054300   -4.279844
    109          1           0        5.463960   -1.409711   -3.647076
    110          1           0        3.825291    0.405114   -1.889205
    111          1           0        3.995358    0.907549   -3.559516
    112          1           0        5.627926    1.971851   -3.189465
    113          1           0        6.517172    0.414142   -3.126696
    114          1           0        5.263896    0.946140   -0.637954
    115          1           0        7.544710    2.979787   -1.053942
    116          1           0        6.280914    2.981944    0.084981
    117          1           0        5.908993    3.618313   -1.565069
    118          1           0        8.336496    0.932560   -1.135519
    119          1           0        7.153783   -0.389210   -1.252777
    120          1           0        6.555420    0.848273    1.206445
    121          1           0        8.407396    0.955041    1.065732
    122          1           0        7.429265   -1.666209    0.347995
    123          1           0        6.692571   -1.083560    1.828324
    124          1           0        9.191916   -0.626582    2.576570
    125          1           0        7.722627   -3.069231    2.865541
    126          1           0        8.903431   -2.327274    3.909838
    127          1           0        9.536359   -3.265030    2.634192
    128          1           0        9.530256   -1.814131   -0.107261
    129          1           0       10.730285   -2.419413    0.967707
    130          1           0       12.048109   -0.890422    1.207086
    131          1           0       10.884635    0.383582    1.487841
    132          1           0       11.025883    1.198292   -0.578341
    133          1           0       10.864143   -0.281014   -1.445284
    134          1           0       13.382735    0.466585    0.033930
    135          1           0       13.953320    1.280227   -2.591929
    136          1           0       13.128363    2.393450   -1.430746
    137          1           0       12.291210    1.392112   -2.607761
    138          1           0       12.682644   -1.874872   -1.168074
    139          1           0       14.430406   -1.401251   -0.996501
    140          1           0       13.480556   -1.219210   -2.508578
 ---------------------------------------------------------------------

 SCF Done:  E(RwB97XD) =  -3007.86761959     A.U. after   19 cycles

 Excitation energies and oscillator strengths:

 Excited State   1:      Singlet-A      1.6489 eV  751.92 nm  f=0.3999  <S**2>=0.000
     245 -> 248        0.15574
     246 -> 247        0.68958
     245 <- 248        0.10776
 This state for optimization and/or second-order correction.
 Total Energy, E(TD-HF/TD-DFT) =  -3007.80702394
 Copying the excited state density for this state as the 1-particle RhoCI density.

 Excited State   2:      Singlet-A      2.2015 eV  563.17 nm  f=0.0991  <S**2>=0.000
     245 -> 247        0.63552
     246 -> 248       -0.28715

 Excited State   3:      Singlet-A      3.2162 eV  385.50 nm  f=0.0002  <S**2>=0.000
     240 -> 247        0.23836
     240 -> 249       -0.22276
     240 -> 250       -0.14237
     241 -> 247        0.51534
     241 -> 249       -0.23988
     241 -> 250       -0.11542

 Excited State   4:      Singlet-A      3.3561 eV  369.43 nm  f=0.0038  <S**2>=0.000
     240 -> 247        0.47341
     240 -> 249       -0.12586
     241 -> 247       -0.27029
     243 -> 247        0.38920

 Excited State   5:      Singlet-A      3.4752 eV  356.76 nm  f=0.0235  <S**2>=0.000
     239 -> 247       -0.13269
     240 -> 247       -0.24814
     241 -> 247        0.20395
     243 -> 247        0.51895
     246 -> 248        0.27711

 The electronic state is 1-A.
 Alpha  occ. eigenvalues --  -46.94802 -19.30999 -19.30085 -19.23766 -19.23502
 Alpha  occ. eigenvalues --  -19.23420 -19.23067 -14.47777 -14.47310 -14.45036
 Alpha  occ. eigenvalues --  -14.43616 -10.43068 -10.42627 -10.38856 -10.38133
 Alpha  occ. eigenvalues --  -10.36490 -10.36086 -10.35622 -10.35600 -10.35554
 Alpha  occ. eigenvalues --  -10.35503 -10.35139 -10.35130 -10.34240 -10.33313
 Alpha  occ. eigenvalues --  -10.33303 -10.32356 -10.32278 -10.32275 -10.32189
 Alpha  occ. eigenvalues --  -10.32186 -10.32181 -10.31904 -10.31776 -10.31635
 Alpha  occ. eigenvalues --  -10.31628 -10.31207 -10.31204 -10.31140 -10.30964
 Alpha  occ. eigenvalues --  -10.30785 -10.30700 -10.30695 -10.30583 -10.30233
 Alpha  occ. eigenvalues --  -10.30087 -10.29932 -10.29843 -10.29757 -10.29580
 Alpha  occ. eigenvalues --  -10.29520 -10.29397 -10.29351 -10.29318 -10.28951
 Alpha  occ. eigenvalues --  -10.28918 -10.28857 -10.28644 -10.28605 -10.28456
 Alpha  occ. eigenvalues --  -10.28344 -10.28321 -10.28172 -10.28079 -10.27875
 Alpha  occ. eigenvalues --  -10.27747  -3.20910  -1.94492  -1.94035  -1.93909
 Alpha  occ. eigenvalues --   -1.18975  -1.18633  -1.11707  -1.10172  -1.08961
 Alpha  occ. eigenvalues --   -1.07526  -1.06791  -1.05854  -1.05620  -1.04260
 Alpha  occ. eigenvalues --   -0.94509  -0.92842  -0.91682  -0.91515  -0.90702
 Alpha  occ. eigenvalues --   -0.90620  -0.90250  -0.89709  -0.89539  -0.89257
 Alpha  occ. eigenvalues --   -0.88570  -0.87445  -0.86769  -0.85973  -0.85732
 Alpha  occ. eigenvalues --   -0.85165  -0.84290  -0.83510  -0.83113  -0.82628
 Alpha  occ. eigenvalues --   -0.81711  -0.80680  -0.79988  -0.79816  -0.78436
 Alpha  occ. eigenvalues --   -0.77920  -0.77798  -0.77342  -0.76276  -0.75900
 Alpha  occ. eigenvalues --   -0.75691  -0.74957  -0.74476  -0.72628  -0.71369
 Alpha  occ. eigenvalues --   -0.70835  -0.70491  -0.70005  -0.68596  -0.67748
 Alpha  occ. eigenvalues --   -0.67648  -0.67280  -0.66548  -0.66454  -0.65752
 Alpha  occ. eigenvalues --   -0.65530  -0.65295  -0.64885  -0.64810  -0.62729
 Alpha  occ. eigenvalues --   -0.61981  -0.61796  -0.61420  -0.60557  -0.60195
 Alpha  occ. eigenvalues --   -0.59354  -0.59208  -0.58325  -0.58058  -0.57777
 Alpha  occ. eigenvalues --   -0.57014  -0.56796  -0.56735  -0.56360  -0.56057
 Alpha  occ. eigenvalues --   -0.55765  -0.55576  -0.55233  -0.54978  -0.54765
 Alpha  occ. eigenvalues --   -0.54688  -0.54516  -0.54039  -0.53943  -0.53606
 Alpha  occ. eigenvalues --   -0.53567  -0.53320  -0.53208  -0.52890  -0.52684
 Alpha  occ. eigenvalues --   -0.52521  -0.52436  -0.52399  -0.51812  -0.51656
 Alpha  occ. eigenvalues --   -0.51339  -0.50905  -0.50803  -0.50498  -0.50440
 Alpha  occ. eigenvalues --   -0.50343  -0.50284  -0.50126  -0.49968  -0.49713
 Alpha  occ. eigenvalues --   -0.49685  -0.49506  -0.48979  -0.48755  -0.48538
 Alpha  occ. eigenvalues --   -0.48466  -0.48193  -0.48166  -0.47695  -0.47612
 Alpha  occ. eigenvalues --   -0.47474  -0.47362  -0.47239  -0.47110  -0.47012
 Alpha  occ. eigenvalues --   -0.46828  -0.46413  -0.46268  -0.46175  -0.46046
 Alpha  occ. eigenvalues --   -0.45846  -0.45677  -0.45324  -0.45225  -0.45099
 Alpha  occ. eigenvalues --   -0.44758  -0.44646  -0.44407  -0.44231  -0.44078
 Alpha  occ. eigenvalues --   -0.43992  -0.43752  -0.43536  -0.43352  -0.43204
 Alpha  occ. eigenvalues --   -0.43161  -0.43118  -0.43011  -0.42518  -0.42350
 Alpha  occ. eigenvalues --   -0.42186  -0.41593  -0.41384  -0.41176  -0.40521
 Alpha  occ. eigenvalues --   -0.40277  -0.40093  -0.39824  -0.39809  -0.39386
 Alpha  occ. eigenvalues --   -0.39235  -0.38815  -0.38335  -0.38244  -0.37982
 Alpha  occ. eigenvalues --   -0.37929  -0.37036  -0.36958  -0.36550  -0.36200
 Alpha  occ. eigenvalues --   -0.35558  -0.35341  -0.34931  -0.33781  -0.33184
 Alpha  occ. eigenvalues --   -0.32778  -0.32163  -0.31584  -0.31207  -0.26986
 Alpha  occ. eigenvalues --   -0.23442
 Alpha virt. eigenvalues --   -0.07811  -0.00044   0.01887   0.03852   0.05183
 Alpha virt. eigenvalues --    0.06708   0.07529   0.07799   0.07999   0.09411
 Alpha virt. eigenvalues --    0.10645   0.10812   0.11545   0.11669   0.12258

 Mulliken charges:
               1
     1  Mg   0.968231
     2  C   -0.067415
     3  C   -0.087069
     4  C   -0.082290
     5  C   -0.069494
     6  N   -0.410602
     7  C   -0.012309
     8  C   -0.012084
     9  C   -0.097964
    10  C    0.103359
    11  C   -0.006965
    12  C    0.019937
    13  C   -0.042131
    14  C    0.211909
    15  O   -0.312946
    16  O   -0.322459
    17  N   -0.412923
    18  C    0.133100
    19  C   -0.107040
    20  C   -0.036934
    21  C    0.187958
    22  C    0.081112
    23  C   -0.014293
    24  O   -0.263340
    25  C    0.036578
    26  N   -0.425516
    27  C    0.093623
    28  C   -0.101386
    29  C   -0.077069
    30  C    0.050582
    31  C    0.036283
    32  C   -0.039387
    33  C   -0.036275
    34  N   -0.409820
    35  C    0.138061
    36  C   -0.156936
    37  C   -0.086898
    38  C    0.170590
    39  C    0.070561
    40  C    0.125512
    41  O   -0.231249
    42  C   -0.033867
    43  C    0.250963
    44  O   -0.265807
    45  O   -0.354348
    46  C    0.125677
    47  C    0.228693
    48  C   -0.088931
    49  C   -0.250766
    50  C    0.012168
    51  C    0.056721
    52  C   -0.054497
    53  C    0.051936
    54  C   -0.201996
    55  C    0.016266
    56  C   -0.039041
    57  C   -0.012445
    58  C    0.002449
    59  C   -0.172434
    60  C    0.022386
    61  C    0.014388
    62  C   -0.025801
    63  C   -0.048136
    64  C   -0.211306
    65  C   -0.002240
    66  C   -0.004412
    67  H   -0.006234
    68  H   -0.039629
    69  H    0.000264
    70  H    0.044680
    71  H    0.051845
    72  H    0.038288
    73  H    0.036603
    74  H    0.050746
    75  H    0.055663
    76  H    0.046195
    77  H    0.070492
    78  H    0.068476
    79  H    0.001839
    80  H    0.056678
    81  H    0.068567
    82  H    0.057799
    83  H    0.068684
    84  H    0.052997
    85  H    0.029915
    86  H    0.021965
    87  H    0.026914
    88  H    0.044885
    89  H    0.051390
    90  H    0.030826
    91  H    0.024581
    92  H    0.021447
    93  H    0.037888
    94  H    0.051245
    95  H    0.056215
    96  H    0.029804
    97  H    0.056284
    98  H    0.069578
    99  H    0.064208
   100  H    0.057622
   101  H    0.078086
   102  H    0.060597
   103  H    0.038553
   104  H    0.024511
   105  H    0.053568
   106  H    0.055187
   107  H    0.040576
   108  H    0.025588
   109  H    0.018474
   110  H    0.036040
   111  H    0.016948
   112  H    0.011813
   113  H    0.007764
   114  H    0.012463
   115  H    0.023837
   116  H    0.019666
   117  H    0.042373
   118  H    0.030332
   119  H   -0.010425
   120  H    0.028048
   121  H    0.022296
   122  H    0.018740
   123  H    0.013072
   124  H    0.014468
   125  H    0.032500
   126  H    0.021472
   127  H    0.012606
   128  H    0.019498
   129  H    0.019422
   130  H    0.029266
   131  H    0.030653
   132  H    0.021223
   133  H    0.026791
   134  H    0.022057
   135  H    0.023791
   136  H    0.038703
   137  H    0.012629
   138  H    0.017933
   139  H    0.045831
   140  H    0.024106
 Sum of Mulliken charges =  -0.00000

 Dipole moment (field-independent basis, Debye):
    X=              0.9520    Y=              7.8675    Z=              1.2020  Tot=              8.0155
 Quadrupole moment (field-independent basis, Debye-Ang):
   XX=           -389.1458   YY=           -421.9593   ZZ=           -399.7055
   XY=            -42.0265   XZ=            -21.4953   YZ=            -32.4135

 Normal termination of Gaussian 16 at Thu May  5 10:55:39 2022.
