 Gaussian 16, Revision A.03,
 Gaussian 16:  ES64L-G16RevA.03 25-Dec-2016

 --------------------
 #p ZINDO=(nstates=5)
 --------------------

 -----------------------------
 step_801_chromophore_26 ZINDO
 -----------------------------
 Symbolic Z-matrix:
 Charge =  0 Multiplicity = 1

                         Standard orientation:
 ---------------------------------------------------------------------
 Center     Atomic      Atomic             Coordinates (Angstroms)
 Number     Number       Type             X           Y           Z
 ---------------------------------------------------------------------
      1         12           0       -3.818720    1.107322    0.516558
      2          6           0       -4.958695   -2.100107   -0.178742
      3          6           0       -2.014137   -0.149071    3.191084
      4          6           0       -2.394687    4.110963    0.973380
      5          6           0       -5.469749    2.203537   -2.355621
      6          7           0       -3.422273   -0.847313    1.253604
      7          6           0       -4.000440   -2.060501    0.849682
      8          6           0       -3.454474   -3.207099    1.678884
      9          6           0       -2.762046   -2.551549    2.936650
     10          6           0       -2.782028   -1.084718    2.485153
     11          6           0       -3.522303   -2.826828    4.313593
     12          6           0       -2.526307   -4.144611    0.835903
     13          6           0       -1.590812   -3.434911   -0.184637
     14          6           0       -0.160090   -3.989237   -0.432618
     15          8           0        0.158025   -5.214474   -0.414045
     16          8           0        0.682332   -3.010307   -0.763525
     17          7           0       -2.382360    1.865669    1.922996
     18          6           0       -1.794278    1.236655    2.967521
     19          6           0       -0.956499    2.169016    3.764864
     20          6           0       -1.137339    3.434062    3.120524
     21          6           0       -2.024302    3.186208    1.937288
     22          6           0       -0.068771    1.829180    4.866609
     23          6           0       -0.677599    4.756949    3.582370
     24          8           0        0.047520    4.762377    4.590884
     25          6           0       -0.957893    6.063483    3.006358
     26          7           0       -3.717769    2.802649   -0.570344
     27          6           0       -3.216676    3.929736   -0.105175
     28          6           0       -3.739385    5.136850   -0.814157
     29          6           0       -4.445234    4.539597   -2.104594
     30          6           0       -4.595757    3.068084   -1.678611
     31          6           0       -4.637859    6.123608   -0.030024
     32          6           0       -3.657941    4.654251   -3.479843
     33          6           0       -3.959104    5.848428   -4.414790
     34          7           0       -5.059144    0.257628   -0.969975
     35          6           0       -5.745069    0.851785   -2.035587
     36          6           0       -6.623139   -0.125694   -2.642716
     37          6           0       -6.314478   -1.341738   -1.945757
     38          6           0       -5.399118   -1.004435   -0.915487
     39          6           0       -7.505433    0.144904   -3.802990
     40          6           0       -6.599491   -2.764169   -1.917665
     41          8           0       -7.308073   -3.524540   -2.598163
     42          6           0       -5.758838   -3.305597   -0.763894
     43          6           0       -6.643490   -3.994166    0.197311
     44          8           0       -6.446011   -5.135986    0.609775
     45          8           0       -7.752060   -3.290777    0.495158
     46          6           0       -8.881397   -4.076548    1.034479
     47          6           0        2.050748   -3.371292   -1.123861
     48          6           0        2.664756   -2.469147   -2.193388
     49          6           0        3.963839   -2.073302   -2.312935
     50          6           0        5.045919   -2.469547   -1.338176
     51          6           0        4.470157   -1.062153   -3.364529
     52          6           0        4.460431    0.317041   -2.770635
     53          6           0        5.773493    1.043513   -2.637157
     54          6           0        6.127747    1.325528   -1.181605
     55          6           0        6.460899    2.878778   -0.985244
     56          6           0        7.383796    0.557418   -0.761679
     57          6           0        7.485229    0.425239    0.826409
     58          6           0        7.600782   -1.044277    1.225867
     59          6           0        8.893406   -1.434816    1.909145
     60          6           0        8.706328   -2.599674    2.872646
     61          6           0       10.051617   -1.579022    0.821159
     62          6           0       11.115449   -0.463309    0.839987
     63          6           0       11.370318    0.164112   -0.588701
     64          6           0       12.888556    0.245796   -0.912547
     65          6           0       13.120867    1.410213   -1.900680
     66          6           0       13.457503   -1.151563   -1.420686
     67          1           0       -1.528149   -0.528675    4.092546
     68          1           0       -2.150684    5.160172    1.153206
     69          1           0       -5.926083    2.740438   -3.189813
     70          1           0       -4.321731   -3.813919    1.939177
     71          1           0       -1.723380   -2.820273    3.126186
     72          1           0       -4.121058   -1.950785    4.563718
     73          1           0       -2.886016   -3.004186    5.180928
     74          1           0       -4.188398   -3.688448    4.366376
     75          1           0       -3.169946   -4.858867    0.322024
     76          1           0       -1.857040   -4.718941    1.475925
     77          1           0       -1.478194   -2.365600   -0.006549
     78          1           0       -2.051288   -3.631896   -1.152712
     79          1           0       -0.217497    0.801331    5.200305
     80          1           0       -0.320289    2.351640    5.789650
     81          1           0        1.014047    1.887651    4.756699
     82          1           0       -2.014599    6.267212    2.830936
     83          1           0       -0.323100    6.091166    2.121126
     84          1           0       -0.670533    6.871499    3.678646
     85          1           0       -2.941218    5.746058   -1.237698
     86          1           0       -5.420942    5.000552   -2.257510
     87          1           0       -3.924376    6.793242    0.450317
     88          1           0       -5.128014    5.602386    0.791554
     89          1           0       -5.251152    6.771839   -0.657652
     90          1           0       -3.807809    3.765139   -4.092657
     91          1           0       -2.582426    4.625251   -3.301954
     92          1           0       -4.909870    6.311653   -4.148454
     93          1           0       -4.194078    5.395540   -5.378723
     94          1           0       -3.153733    6.581759   -4.421355
     95          1           0       -7.488738   -0.784668   -4.372161
     96          1           0       -7.122913    0.936737   -4.447037
     97          1           0       -8.542351    0.383824   -3.566616
     98          1           0       -5.077570   -4.024092   -1.218754
     99          1           0       -9.597402   -3.865329    0.239252
    100          1           0       -9.226010   -3.677941    1.988964
    101          1           0       -8.728598   -5.152381    1.117128
    102          1           0        2.127257   -4.359029   -1.579066
    103          1           0        2.585060   -3.605298   -0.202926
    104          1           0        1.957898   -1.976827   -2.860784
    105          1           0        4.958834   -1.798636   -0.483442
    106          1           0        6.047983   -2.460674   -1.765874
    107          1           0        4.825800   -3.465938   -0.953701
    108          1           0        3.877984   -1.054300   -4.279844
    109          1           0        5.463960   -1.409711   -3.647076
    110          1           0        3.825291    0.405114   -1.889205
    111          1           0        3.995358    0.907549   -3.559516
    112          1           0        5.627926    1.971851   -3.189465
    113          1           0        6.517172    0.414142   -3.126696
    114          1           0        5.263896    0.946140   -0.637954
    115          1           0        7.544710    2.979787   -1.053942
    116          1           0        6.280914    2.981944    0.084981
    117          1           0        5.908993    3.618313   -1.565069
    118          1           0        8.336496    0.932560   -1.135519
    119          1           0        7.153783   -0.389210   -1.252777
    120          1           0        6.555420    0.848273    1.206445
    121          1           0        8.407396    0.955041    1.065732
    122          1           0        7.429265   -1.666209    0.347995
    123          1           0        6.692571   -1.083560    1.828324
    124          1           0        9.191916   -0.626582    2.576570
    125          1           0        7.722627   -3.069231    2.865541
    126          1           0        8.903431   -2.327274    3.909838
    127          1           0        9.536359   -3.265030    2.634192
    128          1           0        9.530256   -1.814131   -0.107261
    129          1           0       10.730285   -2.419413    0.967707
    130          1           0       12.048109   -0.890422    1.207086
    131          1           0       10.884635    0.383582    1.487841
    132          1           0       11.025883    1.198292   -0.578341
    133          1           0       10.864143   -0.281014   -1.445284
    134          1           0       13.382735    0.466585    0.033930
    135          1           0       13.953320    1.280227   -2.591929
    136          1           0       13.128363    2.393450   -1.430746
    137          1           0       12.291210    1.392112   -2.607761
    138          1           0       12.682644   -1.874872   -1.168074
    139          1           0       14.430406   -1.401251   -0.996501
    140          1           0       13.480556   -1.219210   -2.508578
 ---------------------------------------------------------------------

 SCF Done:  E(RZINDO/S) =  -474.319423285     A.U. after   20 cycles

 Excitation energies and oscillator strengths:

 Excited State   1:      Singlet-A      1.2812 eV  967.74 nm  f=0.5751  <S**2>=0.000
     175 ->178         0.14230
     176 ->177         0.67574
 This state for optimization and/or second-order correction.
 Total Energy, E(CIS/TDA) =  -474.272341252
 Copying the excited state density for this state as the 1-particle RhoCI density.

 Excited State   2:      Singlet-A      1.9714 eV  628.90 nm  f=0.0423  <S**2>=0.000
     175 ->177         0.53886
     176 ->178        -0.41583

 Excited State   3:      Singlet-A      2.7384 eV  452.76 nm  f=0.0006  <S**2>=0.000
     168 ->177         0.35897
     168 ->178        -0.15559
     168 ->179        -0.42927
     168 ->180         0.20249
     168 ->185        -0.22403
     168 ->192         0.10599

 Excited State   4:      Singlet-A      3.0275 eV  409.53 nm  f=1.0101  <S**2>=0.000
     170 ->177         0.14286
     175 ->177         0.38912
     176 ->178         0.53281

 Excited State   5:      Singlet-A      3.0527 eV  406.15 nm  f=0.0350  <S**2>=0.000
     171 ->177         0.25953
     171 ->179         0.23337
     171 ->180         0.36764
     171 ->185         0.14116
     171 ->188         0.19535
     171 ->202        -0.11023
     176 ->179        -0.26303
     176 ->180        -0.18041

 The electronic state is 1-A.
 Alpha  occ. eigenvalues --   -1.84078  -1.82788  -1.79867  -1.73579  -1.72748
 Alpha  occ. eigenvalues --   -1.70385  -1.67848  -1.61846  -1.61580  -1.56955
 Alpha  occ. eigenvalues --   -1.55189  -1.50699  -1.47762  -1.46433  -1.45592
 Alpha  occ. eigenvalues --   -1.44781  -1.41212  -1.40745  -1.38909  -1.38744
 Alpha  occ. eigenvalues --   -1.36645  -1.33419  -1.32636  -1.31958  -1.30103
 Alpha  occ. eigenvalues --   -1.28435  -1.27850  -1.23304  -1.21266  -1.18486
 Alpha  occ. eigenvalues --   -1.16540  -1.16228  -1.16111  -1.14492  -1.12727
 Alpha  occ. eigenvalues --   -1.12081  -1.11506  -1.10580  -1.06292  -1.04784
 Alpha  occ. eigenvalues --   -1.03475  -1.02254  -1.00234  -0.98458  -0.97579
 Alpha  occ. eigenvalues --   -0.95291  -0.94772  -0.93879  -0.93368  -0.92409
 Alpha  occ. eigenvalues --   -0.91239  -0.90709  -0.89172  -0.88940  -0.88035
 Alpha  occ. eigenvalues --   -0.85878  -0.84642  -0.83352  -0.82456  -0.80930
 Alpha  occ. eigenvalues --   -0.80338  -0.78465  -0.77942  -0.77802  -0.76654
 Alpha  occ. eigenvalues --   -0.76603  -0.75924  -0.74193  -0.73723  -0.73490
 Alpha  occ. eigenvalues --   -0.72914  -0.72579  -0.71460  -0.71141  -0.71062
 Alpha  occ. eigenvalues --   -0.70583  -0.69933  -0.69229  -0.69034  -0.67985
 Alpha  occ. eigenvalues --   -0.67717  -0.67249  -0.66963  -0.66320  -0.65968
 Alpha  occ. eigenvalues --   -0.65781  -0.65328  -0.64935  -0.64654  -0.63643
 Alpha  occ. eigenvalues --   -0.63267  -0.62939  -0.62822  -0.62387  -0.62236
 Alpha  occ. eigenvalues --   -0.61992  -0.61818  -0.61100  -0.60185  -0.59608
 Alpha  occ. eigenvalues --   -0.59405  -0.59332  -0.58900  -0.58687  -0.58349
 Alpha  occ. eigenvalues --   -0.58204  -0.57587  -0.57079  -0.56954  -0.56595
 Alpha  occ. eigenvalues --   -0.55962  -0.55890  -0.55681  -0.55298  -0.54931
 Alpha  occ. eigenvalues --   -0.54557  -0.53905  -0.53729  -0.53379  -0.52992
 Alpha  occ. eigenvalues --   -0.52859  -0.52706  -0.52515  -0.52208  -0.51872
 Alpha  occ. eigenvalues --   -0.51776  -0.51203  -0.51021  -0.50849  -0.50240
 Alpha  occ. eigenvalues --   -0.50139  -0.50072  -0.49710  -0.49299  -0.49280
 Alpha  occ. eigenvalues --   -0.49177  -0.48773  -0.48713  -0.48560  -0.48271
 Alpha  occ. eigenvalues --   -0.48008  -0.47655  -0.47401  -0.47199  -0.46613
 Alpha  occ. eigenvalues --   -0.46562  -0.46282  -0.46177  -0.45786  -0.45300
 Alpha  occ. eigenvalues --   -0.45031  -0.44502  -0.44385  -0.44229  -0.43715
 Alpha  occ. eigenvalues --   -0.43588  -0.43052  -0.42880  -0.42685  -0.42185
 Alpha  occ. eigenvalues --   -0.41241  -0.40937  -0.40694  -0.39906  -0.38398
 Alpha  occ. eigenvalues --   -0.38017  -0.37348  -0.36092  -0.35677  -0.34652
 Alpha  occ. eigenvalues --   -0.34046  -0.33259  -0.31894  -0.31536  -0.27941
 Alpha  occ. eigenvalues --   -0.22494
 Alpha virt. eigenvalues --   -0.09266  -0.02533  -0.01305   0.00742   0.01758
 Alpha virt. eigenvalues --    0.01861   0.01944   0.03200   0.04261   0.04518
 Alpha virt. eigenvalues --    0.05873   0.06047   0.06589   0.07261   0.07378

 Mulliken charges:
               1
     1  Mg   0.426128
     2  C   -0.047294
     3  C   -0.086970
     4  C   -0.095201
     5  C   -0.043122
     6  N   -0.303435
     7  C    0.104091
     8  C    0.012127
     9  C    0.008152
    10  C    0.170470
    11  C   -0.054722
    12  C   -0.017938
    13  C    0.004000
    14  C    0.462679
    15  O   -0.547266
    16  O   -0.250434
    17  N   -0.330076
    18  C    0.153008
    19  C    0.076877
    20  C   -0.041865
    21  C    0.143297
    22  C   -0.026017
    23  C    0.332802
    24  O   -0.542716
    25  C   -0.017842
    26  N   -0.263344
    27  C    0.198547
    28  C    0.001033
    29  C   -0.008779
    30  C    0.054236
    31  C   -0.047908
    32  C   -0.033882
    33  C   -0.060370
    34  N   -0.316327
    35  C    0.046811
    36  C    0.017093
    37  C   -0.080470
    38  C    0.120145
    39  C   -0.035699
    40  C    0.328589
    41  O   -0.545549
    42  C    0.056968
    43  C    0.496844
    44  O   -0.543490
    45  O   -0.259962
    46  C    0.074262
    47  C    0.102796
    48  C   -0.097587
    49  C   -0.006626
    50  C   -0.044258
    51  C   -0.013651
    52  C   -0.030574
    53  C   -0.036056
    54  C   -0.018352
    55  C   -0.068312
    56  C   -0.048842
    57  C   -0.049518
    58  C   -0.033421
    59  C   -0.006412
    60  C   -0.059789
    61  C   -0.040042
    62  C   -0.032089
    63  C   -0.038636
    64  C   -0.013602
    65  C   -0.058805
    66  C   -0.062134
    67  H    0.022910
    68  H    0.027020
    69  H    0.030613
    70  H    0.038205
    71  H    0.041411
    72  H    0.018891
    73  H    0.019938
    74  H    0.029882
    75  H    0.035596
    76  H    0.028574
    77  H    0.041805
    78  H    0.049281
    79  H    0.008541
    80  H    0.043182
    81  H    0.050247
    82  H    0.033977
    83  H    0.046978
    84  H    0.036004
    85  H    0.023855
    86  H    0.026852
    87  H    0.007546
    88  H    0.029966
    89  H    0.034381
    90  H    0.021322
    91  H    0.015026
    92  H    0.015905
    93  H    0.021695
    94  H    0.028294
    95  H    0.029747
    96  H    0.020386
    97  H    0.035768
    98  H    0.057173
    99  H    0.037575
   100  H    0.036107
   101  H    0.059586
   102  H    0.050038
   103  H    0.047513
   104  H    0.032198
   105  H    0.031831
   106  H    0.028054
   107  H    0.020222
   108  H    0.020450
   109  H    0.021774
   110  H    0.028491
   111  H    0.004353
   112  H    0.016110
   113  H    0.020879
   114  H    0.031780
   115  H    0.023441
   116  H    0.010108
   117  H    0.030194
   118  H    0.026566
   119  H    0.012846
   120  H    0.027386
   121  H    0.025534
   122  H    0.021516
   123  H    0.011284
   124  H    0.016011
   125  H    0.025530
   126  H    0.013605
   127  H    0.016662
   128  H    0.026221
   129  H    0.015387
   130  H    0.021594
   131  H    0.022017
   132  H    0.009233
   133  H    0.025914
   134  H    0.017833
   135  H    0.016813
   136  H    0.022622
   137  H    0.009779
   138  H    0.016152
   139  H    0.026879
   140  H    0.019366
 Sum of Mulliken charges =  -0.00000

 Dipole moment (field-independent basis, Debye):
    X=              2.5751    Y=             11.0839    Z=              3.0592  Tot=             11.7831
 N-N= 4.504652715082D+03 E-N= 0.000000000000D+00  KE=-9.682819136169D+03
 Leave Link  601 at Thu May  5 11:09:32 2022, MaxMem=  6710886400 cpu:               1.0 elap:               0.1
 (Enter /sw/apps/gaussian-16.0/g16/l9999.exe)
 1\1\GINC-BP1-COMPUTE063\SP\RZINDO CIS\STO-3G\C55H74Mg1N4O6\OF15641\05-
 May-2022\0\\#p ZINDO=(nstates=5)\\step_801_chromophore_26 ZINDO\\0,1\M
 g,0,-9.52,18.419,42.396\C,0,-6.064,18.176,42.656\C,0,-9.202,21.81,41.7
 73\C,0,-12.807,18.614,41.751\C,0,-9.687,14.954,42.774\N,0,-7.87,19.724
 ,42.087\C,0,-6.504,19.45,42.255\C,0,-5.678,20.689,41.967\C,0,-6.684,21
 .905,41.989\C,0,-8.005,21.124,42.018\C,0,-6.478,22.896,43.224\C,0,-4.8
 55,20.545,40.643\C,0,-5.579,19.827,39.468\C,0,-5.343,20.308,38.009\O,0

 Normal termination of Gaussian 16 at Thu May  5 11:09:32 2022.
