 Gaussian 16, Revision A.03,
 Gaussian 16:  ES64L-G16RevA.03 25-Dec-2016

 ------------------------------
 #p blyp/Def2SVP td=(nstates=5)
 ------------------------------

 ---------------------------------------------------
 step_1751_chromophore_21 TDDFT with blyp functional
 ---------------------------------------------------
 Symbolic Z-matrix:
 Charge =  0 Multiplicity = 1

                         Standard orientation:
 ---------------------------------------------------------------------
 Center     Atomic      Atomic             Coordinates (Angstroms)
 Number     Number       Type             X           Y           Z
 ---------------------------------------------------------------------
      1         12           0        5.051758    1.281588    0.124223
      2          6           0        5.100468   -2.155410   -0.351402
      3          6           0        1.612220    1.154102   -0.330299
      4          6           0        5.028040    4.617808    0.355740
      5          6           0        8.539041    1.231896    0.556984
      6          7           0        3.514301   -0.403515   -0.060945
      7          6           0        3.748624   -1.743435   -0.204069
      8          6           0        2.474144   -2.589843   -0.042724
      9          6           0        1.465162   -1.405315   -0.392008
     10          6           0        2.234341   -0.126696   -0.230006
     11          6           0        0.760260   -1.461350   -1.750076
     12          6           0        2.329774   -3.067491    1.461781
     13          6           0        1.252298   -4.131569    1.716177
     14          6           0        0.397295   -4.765787    0.489840
     15          8           0        0.698525   -5.597972   -0.376425
     16          8           0       -0.822451   -4.155972    0.686714
     17          7           0        3.606262    2.680049   -0.084826
     18          6           0        2.238174    2.452926   -0.298668
     19          6           0        1.582247    3.759849   -0.630036
     20          6           0        2.552752    4.771223   -0.475848
     21          6           0        3.784610    4.058648   -0.035046
     22          6           0        0.122486    3.831282   -1.124247
     23          6           0        2.403724    6.296656   -0.810924
     24          8           0        3.359226    7.096397   -0.555581
     25          6           0        1.216112    6.920321   -1.441814
     26          7           0        6.609748    2.744009    0.326189
     27          6           0        6.358208    4.045648    0.430919
     28          6           0        7.677776    4.882719    0.656170
     29          6           0        8.830876    3.864494    0.569723
     30          6           0        7.966339    2.503373    0.466484
     31          6           0        7.890838    5.979054   -0.395784
     32          6           0        9.635088    3.823065    1.881095
     33          6           0       11.183474    3.539028    1.773467
     34          7           0        6.486420   -0.163219    0.148785
     35          6           0        7.887278   -0.042615    0.364018
     36          6           0        8.464984   -1.312335    0.118964
     37          6           0        7.441822   -2.203098   -0.199166
     38          6           0        6.251262   -1.434945   -0.122618
     39          6           0        9.886750   -1.612897   -0.080639
     40          6           0        7.087720   -3.556054   -0.486314
     41          8           0        7.812612   -4.538604   -0.712754
     42          6           0        5.523176   -3.596626   -0.471654
     43          6           0        5.077916   -4.346479   -1.671535
     44          8           0        5.574198   -4.136221   -2.819611
     45          8           0        4.082152   -5.269896   -1.388944
     46          6           0        3.797147   -6.109124   -2.553972
     47          6           0       -1.760340   -4.581837   -0.379570
     48          6           0       -2.942476   -3.693609   -0.226021
     49          6           0       -4.143854   -4.039124    0.252264
     50          6           0       -4.544810   -5.463949    0.640683
     51          6           0       -5.283585   -3.006358    0.225757
     52          6           0       -5.580439   -2.475735    1.594093
     53          6           0       -7.112109   -2.350703    1.897351
     54          6           0       -7.589550   -0.918559    2.078904
     55          6           0       -7.002642   -0.219654    3.294816
     56          6           0       -9.126963   -0.807533    2.142310
     57          6           0       -9.741770   -0.348271    0.791710
     58          6           0      -11.282884   -0.127884    0.912136
     59          6           0      -12.007564    1.176865    0.388526
     60          6           0      -11.810179    2.312271    1.362189
     61          6           0      -13.453471    0.802905    0.118710
     62          6           0      -14.063240    1.834793   -0.866611
     63          6           0      -15.523498    2.279529   -0.500535
     64          6           0      -16.413578    2.281344   -1.806675
     65          6           0      -16.190918    3.686252   -2.548680
     66          6           0      -17.874520    1.911430   -1.526202
     67          1           0        0.582161    1.007795   -0.661026
     68          1           0        5.082279    5.705781    0.276758
     69          1           0        9.611995    1.124542    0.728673
     70          1           0        2.391818   -3.385621   -0.781932
     71          1           0        0.691574   -1.371787    0.375028
     72          1           0       -0.315902   -1.383723   -1.596478
     73          1           0        0.970989   -2.378154   -2.300838
     74          1           0        1.173025   -0.647907   -2.345271
     75          1           0        2.168823   -2.180662    2.074281
     76          1           0        3.341421   -3.443586    1.619124
     77          1           0        0.648455   -3.928516    2.600414
     78          1           0        1.826504   -5.003967    2.028768
     79          1           0       -0.348630    4.624270   -0.542672
     80          1           0       -0.333611    2.859573   -0.931802
     81          1           0        0.109179    4.075175   -2.186364
     82          1           0        1.036117    7.993836   -1.378054
     83          1           0        0.449399    6.594978   -0.739330
     84          1           0        1.014779    6.462197   -2.410814
     85          1           0        7.691292    5.211728    1.694513
     86          1           0        9.462027    3.898345   -0.319021
     87          1           0        8.298717    6.911113   -0.004183
     88          1           0        6.999011    6.098858   -1.011787
     89          1           0        8.571591    5.620384   -1.167531
     90          1           0        9.225901    3.092022    2.578234
     91          1           0        9.500402    4.700589    2.513026
     92          1           0       11.575626    3.754083    0.779352
     93          1           0       11.409825    2.516237    2.075493
     94          1           0       11.624291    4.163519    2.550876
     95          1           0       10.344944   -1.899749    0.866060
     96          1           0       10.321833   -0.803849   -0.667553
     97          1           0        9.952607   -2.513936   -0.689775
     98          1           0        5.090078   -4.166389    0.349663
     99          1           0        4.179792   -7.123006   -2.436453
    100          1           0        4.247849   -5.792708   -3.494024
    101          1           0        2.718981   -6.063585   -2.706021
    102          1           0       -2.008437   -5.643099   -0.422188
    103          1           0       -1.348661   -4.353303   -1.362282
    104          1           0       -2.733386   -2.682051   -0.573764
    105          1           0       -3.819017   -6.002218    1.250589
    106          1           0       -4.718384   -6.062239   -0.252792
    107          1           0       -5.485826   -5.582328    1.176014
    108          1           0       -6.193592   -3.462241   -0.165088
    109          1           0       -4.865142   -2.201840   -0.378609
    110          1           0       -5.133812   -1.489042    1.720327
    111          1           0       -5.113195   -3.085722    2.365821
    112          1           0       -7.334437   -2.886018    2.819785
    113          1           0       -7.742008   -2.889982    1.190149
    114          1           0       -7.167956   -0.360699    1.242423
    115          1           0       -6.082994    0.325866    3.084912
    116          1           0       -6.690584   -0.943052    4.048557
    117          1           0       -7.562160    0.582013    3.776789
    118          1           0       -9.426715   -0.123126    2.936315
    119          1           0       -9.459473   -1.805233    2.427192
    120          1           0       -9.613680   -1.158005    0.073581
    121          1           0       -9.283427    0.568786    0.422454
    122          1           0      -11.502257   -0.188290    1.977436
    123          1           0      -11.668765   -1.009317    0.399613
    124          1           0      -11.440577    1.485640   -0.489320
    125          1           0      -10.781142    2.507033    1.664754
    126          1           0      -12.168571    1.952921    2.327249
    127          1           0      -12.377326    3.170720    1.000593
    128          1           0      -14.045925    0.752354    1.031963
    129          1           0      -13.634803   -0.139576   -0.398577
    130          1           0      -13.920105    1.320852   -1.817280
    131          1           0      -13.501382    2.767485   -0.914382
    132          1           0      -15.576346    3.270781   -0.051617
    133          1           0      -15.846555    1.494897    0.183228
    134          1           0      -15.923856    1.625010   -2.525864
    135          1           0      -16.057334    3.599513   -3.627264
    136          1           0      -15.256326    4.086196   -2.155123
    137          1           0      -16.942148    4.375487   -2.163001
    138          1           0      -18.209450    1.639703   -0.525466
    139          1           0      -18.065839    1.008438   -2.104897
    140          1           0      -18.510042    2.704433   -1.919872
 ---------------------------------------------------------------------

 SCF Done:  E(RB-LYP) =  -3007.37030223     A.U. after   21 cycles

 Excitation energies and oscillator strengths:

 Excited State   1:      Singlet-A      1.7955 eV  690.54 nm  f=0.1971  <S**2>=0.000
     244 -> 247        0.34605
     245 -> 247       -0.12509
     245 -> 248        0.16531
     246 -> 247        0.58485
     246 <- 247       -0.11423
 This state for optimization and/or second-order correction.
 Total Energy, E(TD-HF/TD-DFT) =  -3007.30432025
 Copying the excited state density for this state as the 1-particle RhoCI density.

 Excited State   2:      Singlet-A      1.8593 eV  666.83 nm  f=0.0967  <S**2>=0.000
     244 -> 247        0.58078
     245 -> 247       -0.15863
     245 -> 248       -0.11002
     246 -> 247       -0.35197

 Excited State   3:      Singlet-A      1.9813 eV  625.77 nm  f=0.0246  <S**2>=0.000
     243 -> 247        0.56927
     244 -> 247       -0.12684
     245 -> 247       -0.36657
     246 -> 248        0.13019

 Excited State   4:      Singlet-A      2.0116 eV  616.34 nm  f=0.0435  <S**2>=0.000
     243 -> 247        0.41717
     244 -> 247        0.15542
     245 -> 247        0.49229
     246 -> 248       -0.20857

 Excited State   5:      Singlet-A      2.4614 eV  503.71 nm  f=0.0003  <S**2>=0.000
     241 -> 247       -0.22553
     242 -> 247        0.63950
     246 -> 248        0.16431

 The electronic state is 1-A.
 Alpha  occ. eigenvalues --  -46.26713 -18.83546 -18.82418 -18.78996 -18.75654
 Alpha  occ. eigenvalues --  -18.75632 -18.74645 -14.03292 -14.03028 -14.01825
 Alpha  occ. eigenvalues --  -14.00512 -10.05677 -10.03271 -10.01060  -9.98723
 Alpha  occ. eigenvalues --   -9.97856  -9.96959  -9.96957  -9.96842  -9.96454
 Alpha  occ. eigenvalues --   -9.96401  -9.96306  -9.96150  -9.95113  -9.94930
 Alpha  occ. eigenvalues --   -9.94436  -9.94193  -9.94138  -9.94071  -9.93960
 Alpha  occ. eigenvalues --   -9.93955  -9.93894  -9.93848  -9.93734  -9.93566
 Alpha  occ. eigenvalues --   -9.93396  -9.93222  -9.93137  -9.93070  -9.93009
 Alpha  occ. eigenvalues --   -9.92955  -9.92505  -9.92464  -9.92410  -9.92301
 Alpha  occ. eigenvalues --   -9.92199  -9.92133  -9.92024  -9.91975  -9.91970
 Alpha  occ. eigenvalues --   -9.91851  -9.91811  -9.91778  -9.91628  -9.91437
 Alpha  occ. eigenvalues --   -9.91258  -9.91236  -9.91179  -9.91148  -9.91059
 Alpha  occ. eigenvalues --   -9.91036  -9.90916  -9.90836  -9.90748  -9.90616
 Alpha  occ. eigenvalues --   -9.90077  -2.91429  -1.71866  -1.71311  -1.71139
 Alpha  occ. eigenvalues --   -0.98395  -0.96400  -0.90863  -0.89440  -0.89414
 Alpha  occ. eigenvalues --   -0.87248  -0.87082  -0.85971  -0.85361  -0.84272
 Alpha  occ. eigenvalues --   -0.75449  -0.74413  -0.73264  -0.72651  -0.72356
 Alpha  occ. eigenvalues --   -0.72326  -0.71325  -0.70702  -0.70608  -0.70364
 Alpha  occ. eigenvalues --   -0.69992  -0.69330  -0.68316  -0.67109  -0.66928
 Alpha  occ. eigenvalues --   -0.66560  -0.66268  -0.65443  -0.64998  -0.64431
 Alpha  occ. eigenvalues --   -0.64050  -0.62710  -0.62415  -0.61317  -0.61176
 Alpha  occ. eigenvalues --   -0.60327  -0.60160  -0.59813  -0.59684  -0.59004
 Alpha  occ. eigenvalues --   -0.58147  -0.57312  -0.56649  -0.55696  -0.54227
 Alpha  occ. eigenvalues --   -0.53919  -0.53584  -0.52637  -0.52261  -0.51833
 Alpha  occ. eigenvalues --   -0.51631  -0.50677  -0.50542  -0.50293  -0.50074
 Alpha  occ. eigenvalues --   -0.49920  -0.49294  -0.48871  -0.48027  -0.47573
 Alpha  occ. eigenvalues --   -0.46482  -0.45967  -0.45748  -0.44873  -0.44184
 Alpha  occ. eigenvalues --   -0.43664  -0.43425  -0.43141  -0.42806  -0.42552
 Alpha  occ. eigenvalues --   -0.41913  -0.41856  -0.41689  -0.41665  -0.41275
 Alpha  occ. eigenvalues --   -0.40920  -0.40588  -0.40569  -0.40337  -0.40163
 Alpha  occ. eigenvalues --   -0.40097  -0.39903  -0.39654  -0.39364  -0.39185
 Alpha  occ. eigenvalues --   -0.38879  -0.38701  -0.38651  -0.38374  -0.38327
 Alpha  occ. eigenvalues --   -0.38146  -0.38066  -0.37978  -0.37421  -0.37238
 Alpha  occ. eigenvalues --   -0.37153  -0.36856  -0.36679  -0.36586  -0.36318
 Alpha  occ. eigenvalues --   -0.36221  -0.35932  -0.35595  -0.35468  -0.35396
 Alpha  occ. eigenvalues --   -0.35297  -0.35191  -0.34959  -0.34734  -0.34538
 Alpha  occ. eigenvalues --   -0.34345  -0.34276  -0.34233  -0.34103  -0.33926
 Alpha  occ. eigenvalues --   -0.33907  -0.33534  -0.33351  -0.33324  -0.33062
 Alpha  occ. eigenvalues --   -0.32918  -0.32878  -0.32543  -0.32480  -0.32340
 Alpha  occ. eigenvalues --   -0.32319  -0.31969  -0.31845  -0.31665  -0.31549
 Alpha  occ. eigenvalues --   -0.31432  -0.31208  -0.31164  -0.30936  -0.30536
 Alpha  occ. eigenvalues --   -0.30493  -0.30399  -0.30239  -0.29977  -0.29496
 Alpha  occ. eigenvalues --   -0.29376  -0.29365  -0.29262  -0.29176  -0.28980
 Alpha  occ. eigenvalues --   -0.28725  -0.28593  -0.28308  -0.28246  -0.27724
 Alpha  occ. eigenvalues --   -0.27393  -0.27151  -0.26921  -0.26739  -0.26526
 Alpha  occ. eigenvalues --   -0.26487  -0.26341  -0.26315  -0.26225  -0.25651
 Alpha  occ. eigenvalues --   -0.25130  -0.25030  -0.24078  -0.23900  -0.23680
 Alpha  occ. eigenvalues --   -0.23417  -0.22948  -0.22176  -0.21257  -0.21208
 Alpha  occ. eigenvalues --   -0.20612  -0.20049  -0.18544  -0.18030  -0.17094
 Alpha  occ. eigenvalues --   -0.15770
 Alpha virt. eigenvalues --   -0.11328  -0.07170  -0.06305  -0.04582  -0.04235
 Alpha virt. eigenvalues --   -0.03012  -0.02855  -0.01783  -0.00630  -0.00387
 Alpha virt. eigenvalues --    0.00391   0.01074   0.01713   0.02482   0.02863

 Mulliken charges:
               1
     1  Mg   0.705868
     2  C    0.012424
     3  C   -0.063006
     4  C   -0.030606
     5  C   -0.053356
     6  N   -0.163161
     7  C   -0.123895
     8  C    0.014384
     9  C   -0.026890
    10  C   -0.026197
    11  C    0.131513
    12  C    0.142370
    13  C    0.153785
    14  C    0.102806
    15  O   -0.190680
    16  O   -0.263085
    17  N   -0.338116
    18  C    0.168635
    19  C   -0.170999
    20  C    0.041311
    21  C    0.099480
    22  C    0.172337
    23  C   -0.045902
    24  O   -0.207917
    25  C    0.167267
    26  N   -0.198339
    27  C   -0.016452
    28  C    0.051807
    29  C    0.023253
    30  C    0.010145
    31  C    0.146384
    32  C    0.056265
    33  C    0.067259
    34  N   -0.273824
    35  C    0.105484
    36  C   -0.211775
    37  C    0.119407
    38  C    0.083151
    39  C    0.191214
    40  C   -0.033872
    41  O   -0.148667
    42  C    0.079139
    43  C    0.088854
    44  O   -0.215894
    45  O   -0.260567
    46  C    0.203072
    47  C    0.308136
    48  C   -0.107912
    49  C   -0.132562
    50  C    0.119987
    51  C    0.178771
    52  C    0.083759
    53  C    0.086673
    54  C   -0.051098
    55  C    0.098464
    56  C    0.094225
    57  C    0.087990
    58  C    0.062015
    59  C   -0.035030
    60  C    0.118536
    61  C    0.108219
    62  C    0.028328
    63  C    0.093764
    64  C   -0.108856
    65  C    0.083159
    66  C    0.133297
    67  H   -0.061962
    68  H   -0.033974
    69  H   -0.064462
    70  H   -0.007623
    71  H   -0.030361
    72  H    0.002662
    73  H   -0.003711
    74  H   -0.003135
    75  H   -0.014918
    76  H   -0.019458
    77  H   -0.003350
    78  H   -0.016010
    79  H    0.005196
    80  H   -0.006230
    81  H    0.015371
    82  H   -0.000557
    83  H   -0.015625
    84  H    0.018774
    85  H   -0.017483
    86  H   -0.006232
    87  H    0.002375
    88  H   -0.002773
    89  H   -0.033251
    90  H   -0.026021
    91  H   -0.025661
    92  H    0.000355
    93  H    0.001309
    94  H   -0.013566
    95  H   -0.002659
    96  H    0.001044
    97  H   -0.002085
    98  H   -0.009884
    99  H    0.016087
   100  H    0.018178
   101  H    0.019139
   102  H   -0.004599
   103  H   -0.011206
   104  H   -0.039965
   105  H    0.005581
   106  H    0.005094
   107  H   -0.018042
   108  H   -0.024365
   109  H   -0.036246
   110  H   -0.031283
   111  H   -0.025989
   112  H   -0.042867
   113  H   -0.037535
   114  H   -0.044201
   115  H   -0.030935
   116  H   -0.026189
   117  H   -0.018339
   118  H   -0.032711
   119  H   -0.037717
   120  H   -0.035347
   121  H   -0.031740
   122  H   -0.038263
   123  H   -0.042234
   124  H   -0.042090
   125  H   -0.019006
   126  H   -0.035766
   127  H   -0.010924
   128  H   -0.031804
   129  H   -0.033328
   130  H   -0.026022
   131  H   -0.021170
   132  H   -0.020212
   133  H   -0.031825
   134  H   -0.033129
   135  H   -0.002625
   136  H   -0.027944
   137  H   -0.013799
   138  H   -0.010848
   139  H   -0.021889
   140  H   -0.022302
 Sum of Mulliken charges =  -0.00000

 Dipole moment (field-independent basis, Debye):
    X=             -6.4529    Y=              2.3255    Z=              2.0070  Tot=              7.1467
 Quadrupole moment (field-independent basis, Debye-Ang):
   XX=           -415.5768   YY=           -429.7712   ZZ=           -404.8622
   XY=             44.3090   XZ=             22.7992   YZ=             -9.6746

 Normal termination of Gaussian 16 at Wed May  4 13:57:59 2022.
