 Gaussian 16, Revision A.03,
 Gaussian 16:  ES64L-G16RevA.03 25-Dec-2016

 -----------------------------------
 #p cam-b3lyp/Def2SVP td=(nstates=5)
 -----------------------------------

 --------------------------------------------------------
 step_1751_chromophore_21 TDDFT with cam-b3lyp functional
 --------------------------------------------------------
 Symbolic Z-matrix:
 Charge =  0 Multiplicity = 1

                         Standard orientation:
 ---------------------------------------------------------------------
 Center     Atomic      Atomic             Coordinates (Angstroms)
 Number     Number       Type             X           Y           Z
 ---------------------------------------------------------------------
      1         12           0        5.051758    1.281588    0.124223
      2          6           0        5.100468   -2.155410   -0.351402
      3          6           0        1.612220    1.154102   -0.330299
      4          6           0        5.028040    4.617808    0.355740
      5          6           0        8.539041    1.231896    0.556984
      6          7           0        3.514301   -0.403515   -0.060945
      7          6           0        3.748624   -1.743435   -0.204069
      8          6           0        2.474144   -2.589843   -0.042724
      9          6           0        1.465162   -1.405315   -0.392008
     10          6           0        2.234341   -0.126696   -0.230006
     11          6           0        0.760260   -1.461350   -1.750076
     12          6           0        2.329774   -3.067491    1.461781
     13          6           0        1.252298   -4.131569    1.716177
     14          6           0        0.397295   -4.765787    0.489840
     15          8           0        0.698525   -5.597972   -0.376425
     16          8           0       -0.822451   -4.155972    0.686714
     17          7           0        3.606262    2.680049   -0.084826
     18          6           0        2.238174    2.452926   -0.298668
     19          6           0        1.582247    3.759849   -0.630036
     20          6           0        2.552752    4.771223   -0.475848
     21          6           0        3.784610    4.058648   -0.035046
     22          6           0        0.122486    3.831282   -1.124247
     23          6           0        2.403724    6.296656   -0.810924
     24          8           0        3.359226    7.096397   -0.555581
     25          6           0        1.216112    6.920321   -1.441814
     26          7           0        6.609748    2.744009    0.326189
     27          6           0        6.358208    4.045648    0.430919
     28          6           0        7.677776    4.882719    0.656170
     29          6           0        8.830876    3.864494    0.569723
     30          6           0        7.966339    2.503373    0.466484
     31          6           0        7.890838    5.979054   -0.395784
     32          6           0        9.635088    3.823065    1.881095
     33          6           0       11.183474    3.539028    1.773467
     34          7           0        6.486420   -0.163219    0.148785
     35          6           0        7.887278   -0.042615    0.364018
     36          6           0        8.464984   -1.312335    0.118964
     37          6           0        7.441822   -2.203098   -0.199166
     38          6           0        6.251262   -1.434945   -0.122618
     39          6           0        9.886750   -1.612897   -0.080639
     40          6           0        7.087720   -3.556054   -0.486314
     41          8           0        7.812612   -4.538604   -0.712754
     42          6           0        5.523176   -3.596626   -0.471654
     43          6           0        5.077916   -4.346479   -1.671535
     44          8           0        5.574198   -4.136221   -2.819611
     45          8           0        4.082152   -5.269896   -1.388944
     46          6           0        3.797147   -6.109124   -2.553972
     47          6           0       -1.760340   -4.581837   -0.379570
     48          6           0       -2.942476   -3.693609   -0.226021
     49          6           0       -4.143854   -4.039124    0.252264
     50          6           0       -4.544810   -5.463949    0.640683
     51          6           0       -5.283585   -3.006358    0.225757
     52          6           0       -5.580439   -2.475735    1.594093
     53          6           0       -7.112109   -2.350703    1.897351
     54          6           0       -7.589550   -0.918559    2.078904
     55          6           0       -7.002642   -0.219654    3.294816
     56          6           0       -9.126963   -0.807533    2.142310
     57          6           0       -9.741770   -0.348271    0.791710
     58          6           0      -11.282884   -0.127884    0.912136
     59          6           0      -12.007564    1.176865    0.388526
     60          6           0      -11.810179    2.312271    1.362189
     61          6           0      -13.453471    0.802905    0.118710
     62          6           0      -14.063240    1.834793   -0.866611
     63          6           0      -15.523498    2.279529   -0.500535
     64          6           0      -16.413578    2.281344   -1.806675
     65          6           0      -16.190918    3.686252   -2.548680
     66          6           0      -17.874520    1.911430   -1.526202
     67          1           0        0.582161    1.007795   -0.661026
     68          1           0        5.082279    5.705781    0.276758
     69          1           0        9.611995    1.124542    0.728673
     70          1           0        2.391818   -3.385621   -0.781932
     71          1           0        0.691574   -1.371787    0.375028
     72          1           0       -0.315902   -1.383723   -1.596478
     73          1           0        0.970989   -2.378154   -2.300838
     74          1           0        1.173025   -0.647907   -2.345271
     75          1           0        2.168823   -2.180662    2.074281
     76          1           0        3.341421   -3.443586    1.619124
     77          1           0        0.648455   -3.928516    2.600414
     78          1           0        1.826504   -5.003967    2.028768
     79          1           0       -0.348630    4.624270   -0.542672
     80          1           0       -0.333611    2.859573   -0.931802
     81          1           0        0.109179    4.075175   -2.186364
     82          1           0        1.036117    7.993836   -1.378054
     83          1           0        0.449399    6.594978   -0.739330
     84          1           0        1.014779    6.462197   -2.410814
     85          1           0        7.691292    5.211728    1.694513
     86          1           0        9.462027    3.898345   -0.319021
     87          1           0        8.298717    6.911113   -0.004183
     88          1           0        6.999011    6.098858   -1.011787
     89          1           0        8.571591    5.620384   -1.167531
     90          1           0        9.225901    3.092022    2.578234
     91          1           0        9.500402    4.700589    2.513026
     92          1           0       11.575626    3.754083    0.779352
     93          1           0       11.409825    2.516237    2.075493
     94          1           0       11.624291    4.163519    2.550876
     95          1           0       10.344944   -1.899749    0.866060
     96          1           0       10.321833   -0.803849   -0.667553
     97          1           0        9.952607   -2.513936   -0.689775
     98          1           0        5.090078   -4.166389    0.349663
     99          1           0        4.179792   -7.123006   -2.436453
    100          1           0        4.247849   -5.792708   -3.494024
    101          1           0        2.718981   -6.063585   -2.706021
    102          1           0       -2.008437   -5.643099   -0.422188
    103          1           0       -1.348661   -4.353303   -1.362282
    104          1           0       -2.733386   -2.682051   -0.573764
    105          1           0       -3.819017   -6.002218    1.250589
    106          1           0       -4.718384   -6.062239   -0.252792
    107          1           0       -5.485826   -5.582328    1.176014
    108          1           0       -6.193592   -3.462241   -0.165088
    109          1           0       -4.865142   -2.201840   -0.378609
    110          1           0       -5.133812   -1.489042    1.720327
    111          1           0       -5.113195   -3.085722    2.365821
    112          1           0       -7.334437   -2.886018    2.819785
    113          1           0       -7.742008   -2.889982    1.190149
    114          1           0       -7.167956   -0.360699    1.242423
    115          1           0       -6.082994    0.325866    3.084912
    116          1           0       -6.690584   -0.943052    4.048557
    117          1           0       -7.562160    0.582013    3.776789
    118          1           0       -9.426715   -0.123126    2.936315
    119          1           0       -9.459473   -1.805233    2.427192
    120          1           0       -9.613680   -1.158005    0.073581
    121          1           0       -9.283427    0.568786    0.422454
    122          1           0      -11.502257   -0.188290    1.977436
    123          1           0      -11.668765   -1.009317    0.399613
    124          1           0      -11.440577    1.485640   -0.489320
    125          1           0      -10.781142    2.507033    1.664754
    126          1           0      -12.168571    1.952921    2.327249
    127          1           0      -12.377326    3.170720    1.000593
    128          1           0      -14.045925    0.752354    1.031963
    129          1           0      -13.634803   -0.139576   -0.398577
    130          1           0      -13.920105    1.320852   -1.817280
    131          1           0      -13.501382    2.767485   -0.914382
    132          1           0      -15.576346    3.270781   -0.051617
    133          1           0      -15.846555    1.494897    0.183228
    134          1           0      -15.923856    1.625010   -2.525864
    135          1           0      -16.057334    3.599513   -3.627264
    136          1           0      -15.256326    4.086196   -2.155123
    137          1           0      -16.942148    4.375487   -2.163001
    138          1           0      -18.209450    1.639703   -0.525466
    139          1           0      -18.065839    1.008438   -2.104897
    140          1           0      -18.510042    2.704433   -1.919872
 ---------------------------------------------------------------------

 SCF Done:  E(RCAM-B3LYP) =  -3007.15359450     A.U. after   17 cycles

 Excitation energies and oscillator strengths:

 Excited State   1:      Singlet-A      1.7922 eV  691.81 nm  f=0.3552  <S**2>=0.000
     245 -> 248        0.18525
     246 -> 247        0.68289
     245 <- 248        0.10312
 This state for optimization and/or second-order correction.
 Total Energy, E(TD-HF/TD-DFT) =  -3007.08773353
 Copying the excited state density for this state as the 1-particle RhoCI density.

 Excited State   2:      Singlet-A      2.2657 eV  547.22 nm  f=0.0909  <S**2>=0.000
     245 -> 247        0.62724
     246 -> 248       -0.31252

 Excited State   3:      Singlet-A      3.4653 eV  357.78 nm  f=0.5864  <S**2>=0.000
     239 -> 247        0.16096
     240 -> 249        0.10316
     242 -> 247        0.13381
     243 -> 247       -0.10007
     245 -> 247        0.27346
     246 -> 248        0.57284

 Excited State   4:      Singlet-A      3.5024 eV  354.00 nm  f=0.0432  <S**2>=0.000
     239 -> 247       -0.10178
     239 -> 249        0.11323
     240 -> 247        0.46614
     240 -> 248       -0.15026
     240 -> 249       -0.36747
     240 -> 250        0.17362
     246 -> 248        0.15650

 Excited State   5:      Singlet-A      3.5445 eV  349.80 nm  f=0.0281  <S**2>=0.000
     239 -> 247       -0.11251
     242 -> 247       -0.20277
     243 -> 247       -0.31569
     243 -> 249       -0.15680
     243 -> 250       -0.18053
     244 -> 247        0.49708

 The electronic state is 1-A.
 Alpha  occ. eigenvalues --  -46.88208 -19.26385 -19.25229 -19.21862 -19.19402
 Alpha  occ. eigenvalues --  -19.18501 -19.17292 -14.42165 -14.41925 -14.40581
 Alpha  occ. eigenvalues --  -14.38657 -10.41045 -10.38632 -10.36861 -10.33619
 Alpha  occ. eigenvalues --  -10.32167 -10.31971 -10.31946 -10.31924 -10.31136
 Alpha  occ. eigenvalues --  -10.30580 -10.30484 -10.30397 -10.29967 -10.29385
 Alpha  occ. eigenvalues --  -10.28643 -10.28486 -10.28417 -10.28047 -10.28047
 Alpha  occ. eigenvalues --  -10.27967 -10.27966 -10.27954 -10.27831 -10.27498
 Alpha  occ. eigenvalues --  -10.27484 -10.27452 -10.27362 -10.27238 -10.26822
 Alpha  occ. eigenvalues --  -10.26682 -10.26462 -10.26282 -10.26135 -10.26062
 Alpha  occ. eigenvalues --  -10.26039 -10.25934 -10.25924 -10.25706 -10.25579
 Alpha  occ. eigenvalues --  -10.25551 -10.25539 -10.25534 -10.25353 -10.25164
 Alpha  occ. eigenvalues --  -10.24984 -10.24975 -10.24845 -10.24726 -10.24667
 Alpha  occ. eigenvalues --  -10.24643 -10.24478 -10.24395 -10.24374 -10.24338
 Alpha  occ. eigenvalues --  -10.23494  -3.16835  -1.91748  -1.91280  -1.91153
 Alpha  occ. eigenvalues --   -1.16754  -1.14666  -1.08628  -1.08216  -1.07324
 Alpha  occ. eigenvalues --   -1.04959  -1.04875  -1.03615  -1.02664  -1.02143
 Alpha  occ. eigenvalues --   -0.92324  -0.91347  -0.90118  -0.89402  -0.89062
 Alpha  occ. eigenvalues --   -0.89014  -0.88231  -0.87686  -0.87223  -0.86787
 Alpha  occ. eigenvalues --   -0.86382  -0.85673  -0.84698  -0.83428  -0.83036
 Alpha  occ. eigenvalues --   -0.82929  -0.82434  -0.81323  -0.80821  -0.80237
 Alpha  occ. eigenvalues --   -0.79860  -0.78751  -0.77944  -0.76725  -0.76598
 Alpha  occ. eigenvalues --   -0.75723  -0.75400  -0.75156  -0.74934  -0.74241
 Alpha  occ. eigenvalues --   -0.73224  -0.72219  -0.71578  -0.70487  -0.68785
 Alpha  occ. eigenvalues --   -0.68566  -0.68202  -0.67166  -0.66673  -0.65986
 Alpha  occ. eigenvalues --   -0.65794  -0.64774  -0.64749  -0.64163  -0.64136
 Alpha  occ. eigenvalues --   -0.63815  -0.63305  -0.62804  -0.61595  -0.61146
 Alpha  occ. eigenvalues --   -0.60437  -0.59500  -0.59249  -0.58210  -0.57416
 Alpha  occ. eigenvalues --   -0.56995  -0.56680  -0.56543  -0.55888  -0.55733
 Alpha  occ. eigenvalues --   -0.54996  -0.54825  -0.54713  -0.54473  -0.54152
 Alpha  occ. eigenvalues --   -0.53833  -0.53732  -0.53365  -0.53128  -0.53032
 Alpha  occ. eigenvalues --   -0.52776  -0.52695  -0.52328  -0.52023  -0.51738
 Alpha  occ. eigenvalues --   -0.51482  -0.51209  -0.51069  -0.50991  -0.50673
 Alpha  occ. eigenvalues --   -0.50523  -0.50336  -0.50312  -0.50068  -0.49550
 Alpha  occ. eigenvalues --   -0.49326  -0.49184  -0.48978  -0.48888  -0.48676
 Alpha  occ. eigenvalues --   -0.48421  -0.48246  -0.47883  -0.47839  -0.47540
 Alpha  occ. eigenvalues --   -0.47385  -0.47136  -0.46959  -0.46574  -0.46338
 Alpha  occ. eigenvalues --   -0.46305  -0.46214  -0.46058  -0.45976  -0.45848
 Alpha  occ. eigenvalues --   -0.45647  -0.45402  -0.45116  -0.44980  -0.44942
 Alpha  occ. eigenvalues --   -0.44798  -0.44422  -0.44207  -0.44041  -0.43966
 Alpha  occ. eigenvalues --   -0.43835  -0.43721  -0.43522  -0.43278  -0.43062
 Alpha  occ. eigenvalues --   -0.42910  -0.42867  -0.42476  -0.42213  -0.41914
 Alpha  occ. eigenvalues --   -0.41795  -0.41613  -0.41455  -0.41400  -0.41302
 Alpha  occ. eigenvalues --   -0.41122  -0.40615  -0.40547  -0.40485  -0.40070
 Alpha  occ. eigenvalues --   -0.39911  -0.39639  -0.39292  -0.39116  -0.38714
 Alpha  occ. eigenvalues --   -0.38603  -0.38100  -0.38023  -0.37741  -0.37712
 Alpha  occ. eigenvalues --   -0.37269  -0.37074  -0.37047  -0.36846  -0.36343
 Alpha  occ. eigenvalues --   -0.35991  -0.35658  -0.35444  -0.35286  -0.34260
 Alpha  occ. eigenvalues --   -0.33426  -0.33253  -0.32635  -0.31737  -0.31472
 Alpha  occ. eigenvalues --   -0.31029  -0.30487  -0.29776  -0.29028  -0.23956
 Alpha  occ. eigenvalues --   -0.21139
 Alpha virt. eigenvalues --   -0.08261  -0.02007   0.00035   0.02456   0.03581
 Alpha virt. eigenvalues --    0.03922   0.04622   0.04904   0.05305   0.06042
 Alpha virt. eigenvalues --    0.07146   0.07641   0.08627   0.08756   0.09128

 Mulliken charges:
               1
     1  Mg   0.840103
     2  C   -0.002854
     3  C   -0.080535
     4  C   -0.050074
     5  C   -0.059919
     6  N   -0.230104
     7  C   -0.084965
     8  C   -0.035179
     9  C   -0.083333
    10  C   -0.001234
    11  C    0.072091
    12  C    0.098477
    13  C    0.087764
    14  C    0.173919
    15  O   -0.233689
    16  O   -0.324771
    17  N   -0.428423
    18  C    0.182689
    19  C   -0.173408
    20  C   -0.021107
    21  C    0.128446
    22  C    0.121646
    23  C    0.031480
    24  O   -0.244107
    25  C    0.085530
    26  N   -0.271592
    27  C    0.012999
    28  C   -0.009643
    29  C   -0.025563
    30  C    0.027189
    31  C    0.082936
    32  C   -0.002498
    33  C    0.007521
    34  N   -0.363567
    35  C    0.102421
    36  C   -0.201683
    37  C    0.034802
    38  C    0.112298
    39  C    0.126540
    40  C    0.066266
    41  O   -0.192154
    42  C   -0.010518
    43  C    0.184396
    44  O   -0.256686
    45  O   -0.324961
    46  C    0.164164
    47  C    0.271063
    48  C   -0.122158
    49  C   -0.154235
    50  C    0.056287
    51  C    0.117083
    52  C    0.026372
    53  C    0.034894
    54  C   -0.107518
    55  C    0.037437
    56  C    0.040186
    57  C    0.035899
    58  C    0.013826
    59  C   -0.099122
    60  C    0.064935
    61  C    0.051069
    62  C   -0.018365
    63  C    0.037802
    64  C   -0.165252
    65  C    0.027157
    66  C    0.068532
    67  H   -0.027556
    68  H    0.003452
    69  H   -0.029154
    70  H    0.025767
    71  H    0.006422
    72  H    0.022560
    73  H    0.022439
    74  H    0.023684
    75  H    0.013790
    76  H    0.010157
    77  H    0.031295
    78  H    0.017159
    79  H    0.031790
    80  H    0.022848
    81  H    0.043232
    82  H    0.037089
    83  H    0.010109
    84  H    0.046509
    85  H    0.018576
    86  H    0.026747
    87  H    0.028508
    88  H    0.022566
    89  H   -0.005393
    90  H    0.006318
    91  H    0.001792
    92  H    0.022002
    93  H    0.023098
    94  H    0.010722
    95  H    0.022410
    96  H    0.023635
    97  H    0.026704
    98  H    0.033132
    99  H    0.037389
   100  H    0.046932
   101  H    0.039311
   102  H    0.024966
   103  H    0.017310
   104  H   -0.010014
   105  H    0.030548
   106  H    0.030190
   107  H    0.007688
   108  H    0.005529
   109  H   -0.005458
   110  H   -0.002859
   111  H    0.004675
   112  H   -0.013347
   113  H   -0.009321
   114  H   -0.012865
   115  H   -0.006495
   116  H   -0.001230
   117  H    0.007728
   118  H   -0.004839
   119  H   -0.008880
   120  H   -0.007706
   121  H   -0.005032
   122  H   -0.011740
   123  H   -0.012228
   124  H   -0.010491
   125  H    0.005384
   126  H   -0.012342
   127  H    0.012661
   128  H   -0.003683
   129  H   -0.002284
   130  H    0.001915
   131  H    0.002554
   132  H    0.007228
   133  H   -0.003509
   134  H   -0.001621
   135  H    0.021347
   136  H   -0.005082
   137  H    0.009371
   138  H    0.014027
   139  H    0.002673
   140  H    0.002187
 Sum of Mulliken charges =  -0.00000

 Dipole moment (field-independent basis, Debye):
    X=             -7.6826    Y=              3.5892    Z=              1.9346  Tot=              8.6976
 Quadrupole moment (field-independent basis, Debye-Ang):
   XX=           -425.2298   YY=           -424.7643   ZZ=           -404.5704
   XY=             48.8834   XZ=             23.4789   YZ=            -11.2129

 Normal termination of Gaussian 16 at Wed May  4 13:01:51 2022.
