 Gaussian 16, Revision A.03,
 Gaussian 16:  ES64L-G16RevA.03 25-Dec-2016

 ---------------------------------
 #p PBE1PBE/Def2SVP td=(nstates=5)
 ---------------------------------

 ------------------------------------------------------
 step_1751_chromophore_21 TDDFT with PBE1PBE functional
 ------------------------------------------------------
 Symbolic Z-matrix:
 Charge =  0 Multiplicity = 1

                         Standard orientation:
 ---------------------------------------------------------------------
 Center     Atomic      Atomic             Coordinates (Angstroms)
 Number     Number       Type             X           Y           Z
 ---------------------------------------------------------------------
      1         12           0        5.051758    1.281588    0.124223
      2          6           0        5.100468   -2.155410   -0.351402
      3          6           0        1.612220    1.154102   -0.330299
      4          6           0        5.028040    4.617808    0.355740
      5          6           0        8.539041    1.231896    0.556984
      6          7           0        3.514301   -0.403515   -0.060945
      7          6           0        3.748624   -1.743435   -0.204069
      8          6           0        2.474144   -2.589843   -0.042724
      9          6           0        1.465162   -1.405315   -0.392008
     10          6           0        2.234341   -0.126696   -0.230006
     11          6           0        0.760260   -1.461350   -1.750076
     12          6           0        2.329774   -3.067491    1.461781
     13          6           0        1.252298   -4.131569    1.716177
     14          6           0        0.397295   -4.765787    0.489840
     15          8           0        0.698525   -5.597972   -0.376425
     16          8           0       -0.822451   -4.155972    0.686714
     17          7           0        3.606262    2.680049   -0.084826
     18          6           0        2.238174    2.452926   -0.298668
     19          6           0        1.582247    3.759849   -0.630036
     20          6           0        2.552752    4.771223   -0.475848
     21          6           0        3.784610    4.058648   -0.035046
     22          6           0        0.122486    3.831282   -1.124247
     23          6           0        2.403724    6.296656   -0.810924
     24          8           0        3.359226    7.096397   -0.555581
     25          6           0        1.216112    6.920321   -1.441814
     26          7           0        6.609748    2.744009    0.326189
     27          6           0        6.358208    4.045648    0.430919
     28          6           0        7.677776    4.882719    0.656170
     29          6           0        8.830876    3.864494    0.569723
     30          6           0        7.966339    2.503373    0.466484
     31          6           0        7.890838    5.979054   -0.395784
     32          6           0        9.635088    3.823065    1.881095
     33          6           0       11.183474    3.539028    1.773467
     34          7           0        6.486420   -0.163219    0.148785
     35          6           0        7.887278   -0.042615    0.364018
     36          6           0        8.464984   -1.312335    0.118964
     37          6           0        7.441822   -2.203098   -0.199166
     38          6           0        6.251262   -1.434945   -0.122618
     39          6           0        9.886750   -1.612897   -0.080639
     40          6           0        7.087720   -3.556054   -0.486314
     41          8           0        7.812612   -4.538604   -0.712754
     42          6           0        5.523176   -3.596626   -0.471654
     43          6           0        5.077916   -4.346479   -1.671535
     44          8           0        5.574198   -4.136221   -2.819611
     45          8           0        4.082152   -5.269896   -1.388944
     46          6           0        3.797147   -6.109124   -2.553972
     47          6           0       -1.760340   -4.581837   -0.379570
     48          6           0       -2.942476   -3.693609   -0.226021
     49          6           0       -4.143854   -4.039124    0.252264
     50          6           0       -4.544810   -5.463949    0.640683
     51          6           0       -5.283585   -3.006358    0.225757
     52          6           0       -5.580439   -2.475735    1.594093
     53          6           0       -7.112109   -2.350703    1.897351
     54          6           0       -7.589550   -0.918559    2.078904
     55          6           0       -7.002642   -0.219654    3.294816
     56          6           0       -9.126963   -0.807533    2.142310
     57          6           0       -9.741770   -0.348271    0.791710
     58          6           0      -11.282884   -0.127884    0.912136
     59          6           0      -12.007564    1.176865    0.388526
     60          6           0      -11.810179    2.312271    1.362189
     61          6           0      -13.453471    0.802905    0.118710
     62          6           0      -14.063240    1.834793   -0.866611
     63          6           0      -15.523498    2.279529   -0.500535
     64          6           0      -16.413578    2.281344   -1.806675
     65          6           0      -16.190918    3.686252   -2.548680
     66          6           0      -17.874520    1.911430   -1.526202
     67          1           0        0.582161    1.007795   -0.661026
     68          1           0        5.082279    5.705781    0.276758
     69          1           0        9.611995    1.124542    0.728673
     70          1           0        2.391818   -3.385621   -0.781932
     71          1           0        0.691574   -1.371787    0.375028
     72          1           0       -0.315902   -1.383723   -1.596478
     73          1           0        0.970989   -2.378154   -2.300838
     74          1           0        1.173025   -0.647907   -2.345271
     75          1           0        2.168823   -2.180662    2.074281
     76          1           0        3.341421   -3.443586    1.619124
     77          1           0        0.648455   -3.928516    2.600414
     78          1           0        1.826504   -5.003967    2.028768
     79          1           0       -0.348630    4.624270   -0.542672
     80          1           0       -0.333611    2.859573   -0.931802
     81          1           0        0.109179    4.075175   -2.186364
     82          1           0        1.036117    7.993836   -1.378054
     83          1           0        0.449399    6.594978   -0.739330
     84          1           0        1.014779    6.462197   -2.410814
     85          1           0        7.691292    5.211728    1.694513
     86          1           0        9.462027    3.898345   -0.319021
     87          1           0        8.298717    6.911113   -0.004183
     88          1           0        6.999011    6.098858   -1.011787
     89          1           0        8.571591    5.620384   -1.167531
     90          1           0        9.225901    3.092022    2.578234
     91          1           0        9.500402    4.700589    2.513026
     92          1           0       11.575626    3.754083    0.779352
     93          1           0       11.409825    2.516237    2.075493
     94          1           0       11.624291    4.163519    2.550876
     95          1           0       10.344944   -1.899749    0.866060
     96          1           0       10.321833   -0.803849   -0.667553
     97          1           0        9.952607   -2.513936   -0.689775
     98          1           0        5.090078   -4.166389    0.349663
     99          1           0        4.179792   -7.123006   -2.436453
    100          1           0        4.247849   -5.792708   -3.494024
    101          1           0        2.718981   -6.063585   -2.706021
    102          1           0       -2.008437   -5.643099   -0.422188
    103          1           0       -1.348661   -4.353303   -1.362282
    104          1           0       -2.733386   -2.682051   -0.573764
    105          1           0       -3.819017   -6.002218    1.250589
    106          1           0       -4.718384   -6.062239   -0.252792
    107          1           0       -5.485826   -5.582328    1.176014
    108          1           0       -6.193592   -3.462241   -0.165088
    109          1           0       -4.865142   -2.201840   -0.378609
    110          1           0       -5.133812   -1.489042    1.720327
    111          1           0       -5.113195   -3.085722    2.365821
    112          1           0       -7.334437   -2.886018    2.819785
    113          1           0       -7.742008   -2.889982    1.190149
    114          1           0       -7.167956   -0.360699    1.242423
    115          1           0       -6.082994    0.325866    3.084912
    116          1           0       -6.690584   -0.943052    4.048557
    117          1           0       -7.562160    0.582013    3.776789
    118          1           0       -9.426715   -0.123126    2.936315
    119          1           0       -9.459473   -1.805233    2.427192
    120          1           0       -9.613680   -1.158005    0.073581
    121          1           0       -9.283427    0.568786    0.422454
    122          1           0      -11.502257   -0.188290    1.977436
    123          1           0      -11.668765   -1.009317    0.399613
    124          1           0      -11.440577    1.485640   -0.489320
    125          1           0      -10.781142    2.507033    1.664754
    126          1           0      -12.168571    1.952921    2.327249
    127          1           0      -12.377326    3.170720    1.000593
    128          1           0      -14.045925    0.752354    1.031963
    129          1           0      -13.634803   -0.139576   -0.398577
    130          1           0      -13.920105    1.320852   -1.817280
    131          1           0      -13.501382    2.767485   -0.914382
    132          1           0      -15.576346    3.270781   -0.051617
    133          1           0      -15.846555    1.494897    0.183228
    134          1           0      -15.923856    1.625010   -2.525864
    135          1           0      -16.057334    3.599513   -3.627264
    136          1           0      -15.256326    4.086196   -2.155123
    137          1           0      -16.942148    4.375487   -2.163001
    138          1           0      -18.209450    1.639703   -0.525466
    139          1           0      -18.065839    1.008438   -2.104897
    140          1           0      -18.510042    2.704433   -1.919872
 ---------------------------------------------------------------------

 SCF Done:  E(RPBE1PBE) =  -3005.34198840     A.U. after   16 cycles

 Excitation energies and oscillator strengths:

 Excited State   1:      Singlet-A      1.8843 eV  657.98 nm  f=0.3459  <S**2>=0.000
     245 -> 248        0.18466
     246 -> 247        0.68763
 This state for optimization and/or second-order correction.
 Total Energy, E(TD-HF/TD-DFT) =  -3005.27274090
 Copying the excited state density for this state as the 1-particle RhoCI density.

 Excited State   2:      Singlet-A      2.2440 eV  552.51 nm  f=0.0936  <S**2>=0.000
     245 -> 247        0.64278
     246 -> 248       -0.28345

 Excited State   3:      Singlet-A      2.9702 eV  417.42 nm  f=0.0004  <S**2>=0.000
     243 -> 247        0.16299
     244 -> 247        0.65116
     244 -> 249        0.14707
     244 -> 250        0.12516

 Excited State   4:      Singlet-A      3.0983 eV  400.16 nm  f=0.0019  <S**2>=0.000
     242 -> 247        0.64408
     242 -> 248       -0.12148
     242 -> 249       -0.22435
     242 -> 250        0.10157

 Excited State   5:      Singlet-A      3.1276 eV  396.41 nm  f=0.0010  <S**2>=0.000
     243 -> 247        0.66455
     244 -> 247       -0.16415
     246 -> 248        0.11531

 The electronic state is 1-A.
 Alpha  occ. eigenvalues --  -46.91632 -19.27133 -19.25991 -19.22232 -19.19342
 Alpha  occ. eigenvalues --  -19.18924 -19.17902 -14.41676 -14.41399 -14.40126
 Alpha  occ. eigenvalues --  -14.38516 -10.38195 -10.35800 -10.33741 -10.31075
 Alpha  occ. eigenvalues --  -10.29432 -10.29386 -10.29358 -10.29264 -10.28592
 Alpha  occ. eigenvalues --  -10.28572 -10.28561 -10.27600 -10.27301 -10.26896
 Alpha  occ. eigenvalues --  -10.26681 -10.26385 -10.25765 -10.25730 -10.25696
 Alpha  occ. eigenvalues --  -10.25665 -10.25616 -10.25532 -10.25510 -10.25474
 Alpha  occ. eigenvalues --  -10.25239 -10.25178 -10.25023 -10.24634 -10.24539
 Alpha  occ. eigenvalues --  -10.24189 -10.24069 -10.24065 -10.23879 -10.23671
 Alpha  occ. eigenvalues --  -10.23615 -10.23570 -10.23467 -10.23366 -10.23200
 Alpha  occ. eigenvalues --  -10.23105 -10.23071 -10.22957 -10.22916 -10.22675
 Alpha  occ. eigenvalues --  -10.22538 -10.22532 -10.22394 -10.22204 -10.22122
 Alpha  occ. eigenvalues --  -10.22110 -10.22016 -10.21936 -10.21860 -10.21699
 Alpha  occ. eigenvalues --  -10.21656  -3.13836  -1.86692  -1.86200  -1.86080
 Alpha  occ. eigenvalues --   -1.11609  -1.09555  -1.03556  -1.02625  -1.02358
 Alpha  occ. eigenvalues --   -0.99894  -0.99489  -0.98247  -0.97541  -0.96587
 Alpha  occ. eigenvalues --   -0.86893  -0.85473  -0.84206  -0.83558  -0.83322
 Alpha  occ. eigenvalues --   -0.83242  -0.82365  -0.81791  -0.81297  -0.81165
 Alpha  occ. eigenvalues --   -0.80890  -0.79881  -0.78877  -0.77520  -0.77303
 Alpha  occ. eigenvalues --   -0.77035  -0.76680  -0.75598  -0.75115  -0.74406
 Alpha  occ. eigenvalues --   -0.74210  -0.72867  -0.72280  -0.71066  -0.70763
 Alpha  occ. eigenvalues --   -0.69827  -0.69796  -0.69321  -0.69236  -0.68414
 Alpha  occ. eigenvalues --   -0.67517  -0.66746  -0.66004  -0.64823  -0.63150
 Alpha  occ. eigenvalues --   -0.62846  -0.62606  -0.61577  -0.60906  -0.60464
 Alpha  occ. eigenvalues --   -0.60201  -0.59305  -0.58925  -0.58695  -0.58435
 Alpha  occ. eigenvalues --   -0.58241  -0.57460  -0.56978  -0.56288  -0.55489
 Alpha  occ. eigenvalues --   -0.54762  -0.54043  -0.53886  -0.52825  -0.52196
 Alpha  occ. eigenvalues --   -0.51460  -0.51152  -0.51022  -0.50439  -0.50266
 Alpha  occ. eigenvalues --   -0.49686  -0.49417  -0.49143  -0.48913  -0.48625
 Alpha  occ. eigenvalues --   -0.48349  -0.47876  -0.47843  -0.47687  -0.47509
 Alpha  occ. eigenvalues --   -0.47325  -0.47127  -0.46962  -0.46644  -0.46290
 Alpha  occ. eigenvalues --   -0.46111  -0.45784  -0.45634  -0.45378  -0.45207
 Alpha  occ. eigenvalues --   -0.45124  -0.45016  -0.44852  -0.44514  -0.44314
 Alpha  occ. eigenvalues --   -0.43853  -0.43740  -0.43605  -0.43396  -0.43317
 Alpha  occ. eigenvalues --   -0.43066  -0.42890  -0.42625  -0.42292  -0.42238
 Alpha  occ. eigenvalues --   -0.42047  -0.41929  -0.41700  -0.41245  -0.41020
 Alpha  occ. eigenvalues --   -0.40918  -0.40909  -0.40803  -0.40653  -0.40589
 Alpha  occ. eigenvalues --   -0.40211  -0.40188  -0.39971  -0.39655  -0.39587
 Alpha  occ. eigenvalues --   -0.39514  -0.39135  -0.39105  -0.38753  -0.38679
 Alpha  occ. eigenvalues --   -0.38571  -0.38547  -0.38299  -0.38063  -0.37830
 Alpha  occ. eigenvalues --   -0.37788  -0.37634  -0.37330  -0.37147  -0.36858
 Alpha  occ. eigenvalues --   -0.36483  -0.36306  -0.36240  -0.36213  -0.36188
 Alpha  occ. eigenvalues --   -0.35821  -0.35608  -0.35436  -0.35252  -0.34870
 Alpha  occ. eigenvalues --   -0.34803  -0.34375  -0.34144  -0.34067  -0.33618
 Alpha  occ. eigenvalues --   -0.33364  -0.33087  -0.33019  -0.32758  -0.32562
 Alpha  occ. eigenvalues --   -0.32048  -0.31927  -0.31867  -0.31806  -0.31149
 Alpha  occ. eigenvalues --   -0.31084  -0.30532  -0.30421  -0.30367  -0.29532
 Alpha  occ. eigenvalues --   -0.28806  -0.28282  -0.27844  -0.27016  -0.26352
 Alpha  occ. eigenvalues --   -0.26078  -0.25911  -0.25019  -0.24885  -0.20821
 Alpha  occ. eigenvalues --   -0.18729
 Alpha virt. eigenvalues --   -0.10856  -0.05530  -0.04111  -0.02016  -0.00940
 Alpha virt. eigenvalues --    0.00107   0.00144   0.00768   0.01815   0.02277
 Alpha virt. eigenvalues --    0.03093   0.03988   0.04780   0.05435   0.05712

 Mulliken charges:
               1
     1  Mg   0.995949
     2  C   -0.004520
     3  C   -0.069684
     4  C   -0.036479
     5  C   -0.059427
     6  N   -0.333262
     7  C    0.002402
     8  C   -0.114106
     9  C   -0.158796
    10  C    0.037336
    11  C    0.013080
    12  C    0.046426
    13  C    0.019249
    14  C    0.227852
    15  O   -0.265546
    16  O   -0.348640
    17  N   -0.537179
    18  C    0.197835
    19  C   -0.196346
    20  C   -0.066883
    21  C    0.145231
    22  C    0.059627
    23  C    0.074815
    24  O   -0.279715
    25  C    0.014599
    26  N   -0.375401
    27  C    0.047532
    28  C   -0.092532
    29  C   -0.102823
    30  C    0.068379
    31  C    0.027058
    32  C   -0.055992
    33  C   -0.064853
    34  N   -0.496576
    35  C    0.135147
    36  C   -0.222956
    37  C   -0.011655
    38  C    0.153565
    39  C    0.066494
    40  C    0.166263
    41  O   -0.235276
    42  C   -0.134565
    43  C    0.276728
    44  O   -0.288286
    45  O   -0.357123
    46  C    0.109862
    47  C    0.225658
    48  C   -0.136759
    49  C   -0.194632
    50  C   -0.003750
    51  C    0.047244
    52  C   -0.032032
    53  C   -0.017242
    54  C   -0.197869
    55  C   -0.017697
    56  C   -0.016925
    57  C   -0.029127
    58  C   -0.033819
    59  C   -0.196609
    60  C    0.009121
    61  C   -0.002114
    62  C   -0.072978
    63  C   -0.025686
    64  C   -0.252390
    65  C   -0.035126
    66  C    0.007012
    67  H    0.004060
    68  H    0.035304
    69  H    0.006132
    70  H    0.066881
    71  H    0.044540
    72  H    0.050392
    73  H    0.048645
    74  H    0.052505
    75  H    0.046405
    76  H    0.046213
    77  H    0.062227
    78  H    0.050716
    79  H    0.058225
    80  H    0.049806
    81  H    0.069048
    82  H    0.062389
    83  H    0.037771
    84  H    0.072240
    85  H    0.054894
    86  H    0.061190
    87  H    0.055388
    88  H    0.050442
    89  H    0.021720
    90  H    0.039175
    91  H    0.034740
    92  H    0.049221
    93  H    0.049298
    94  H    0.039509
    95  H    0.052833
    96  H    0.051650
    97  H    0.056229
    98  H    0.072447
    99  H    0.059845
   100  H    0.068289
   101  H    0.061325
   102  H    0.050862
   103  H    0.045760
   104  H    0.021004
   105  H    0.057174
   106  H    0.057982
   107  H    0.034895
   108  H    0.038334
   109  H    0.027711
   110  H    0.030157
   111  H    0.037503
   112  H    0.019598
   113  H    0.022466
   114  H    0.026531
   115  H    0.020713
   116  H    0.026523
   117  H    0.034624
   118  H    0.027330
   119  H    0.024010
   120  H    0.026109
   121  H    0.027493
   122  H    0.020948
   123  H    0.020246
   124  H    0.028443
   125  H    0.033850
   126  H    0.015195
   127  H    0.040660
   128  H    0.027299
   129  H    0.030002
   130  H    0.033272
   131  H    0.034028
   132  H    0.039648
   133  H    0.030799
   134  H    0.036381
   135  H    0.048335
   136  H    0.024169
   137  H    0.037048
   138  H    0.039961
   139  H    0.030688
   140  H    0.029468
 Sum of Mulliken charges =  -0.00000

 Dipole moment (field-independent basis, Debye):
    X=             -7.0556    Y=              2.9439    Z=              2.0351  Tot=              7.9114
 Quadrupole moment (field-independent basis, Debye-Ang):
   XX=           -413.9931   YY=           -423.1814   ZZ=           -402.1365
   XY=             47.6775   XZ=             23.8447   YZ=            -10.5784

 Normal termination of Gaussian 16 at Wed May  4 13:17:26 2022.
