 Gaussian 16, Revision A.03,
 Gaussian 16:  ES64L-G16RevA.03 25-Dec-2016

 --------------------------------
 #p wB97XD/Def2SVP td=(nstates=5)
 --------------------------------

 -----------------------------------------------------
 step_1751_chromophore_21 TDDFT with wB97XD functional
 -----------------------------------------------------
 Symbolic Z-matrix:
 Charge =  0 Multiplicity = 1

                         Standard orientation:
 ---------------------------------------------------------------------
 Center     Atomic      Atomic             Coordinates (Angstroms)
 Number     Number       Type             X           Y           Z
 ---------------------------------------------------------------------
      1         12           0        5.051758    1.281588    0.124223
      2          6           0        5.100468   -2.155410   -0.351402
      3          6           0        1.612220    1.154102   -0.330299
      4          6           0        5.028040    4.617808    0.355740
      5          6           0        8.539041    1.231896    0.556984
      6          7           0        3.514301   -0.403515   -0.060945
      7          6           0        3.748624   -1.743435   -0.204069
      8          6           0        2.474144   -2.589843   -0.042724
      9          6           0        1.465162   -1.405315   -0.392008
     10          6           0        2.234341   -0.126696   -0.230006
     11          6           0        0.760260   -1.461350   -1.750076
     12          6           0        2.329774   -3.067491    1.461781
     13          6           0        1.252298   -4.131569    1.716177
     14          6           0        0.397295   -4.765787    0.489840
     15          8           0        0.698525   -5.597972   -0.376425
     16          8           0       -0.822451   -4.155972    0.686714
     17          7           0        3.606262    2.680049   -0.084826
     18          6           0        2.238174    2.452926   -0.298668
     19          6           0        1.582247    3.759849   -0.630036
     20          6           0        2.552752    4.771223   -0.475848
     21          6           0        3.784610    4.058648   -0.035046
     22          6           0        0.122486    3.831282   -1.124247
     23          6           0        2.403724    6.296656   -0.810924
     24          8           0        3.359226    7.096397   -0.555581
     25          6           0        1.216112    6.920321   -1.441814
     26          7           0        6.609748    2.744009    0.326189
     27          6           0        6.358208    4.045648    0.430919
     28          6           0        7.677776    4.882719    0.656170
     29          6           0        8.830876    3.864494    0.569723
     30          6           0        7.966339    2.503373    0.466484
     31          6           0        7.890838    5.979054   -0.395784
     32          6           0        9.635088    3.823065    1.881095
     33          6           0       11.183474    3.539028    1.773467
     34          7           0        6.486420   -0.163219    0.148785
     35          6           0        7.887278   -0.042615    0.364018
     36          6           0        8.464984   -1.312335    0.118964
     37          6           0        7.441822   -2.203098   -0.199166
     38          6           0        6.251262   -1.434945   -0.122618
     39          6           0        9.886750   -1.612897   -0.080639
     40          6           0        7.087720   -3.556054   -0.486314
     41          8           0        7.812612   -4.538604   -0.712754
     42          6           0        5.523176   -3.596626   -0.471654
     43          6           0        5.077916   -4.346479   -1.671535
     44          8           0        5.574198   -4.136221   -2.819611
     45          8           0        4.082152   -5.269896   -1.388944
     46          6           0        3.797147   -6.109124   -2.553972
     47          6           0       -1.760340   -4.581837   -0.379570
     48          6           0       -2.942476   -3.693609   -0.226021
     49          6           0       -4.143854   -4.039124    0.252264
     50          6           0       -4.544810   -5.463949    0.640683
     51          6           0       -5.283585   -3.006358    0.225757
     52          6           0       -5.580439   -2.475735    1.594093
     53          6           0       -7.112109   -2.350703    1.897351
     54          6           0       -7.589550   -0.918559    2.078904
     55          6           0       -7.002642   -0.219654    3.294816
     56          6           0       -9.126963   -0.807533    2.142310
     57          6           0       -9.741770   -0.348271    0.791710
     58          6           0      -11.282884   -0.127884    0.912136
     59          6           0      -12.007564    1.176865    0.388526
     60          6           0      -11.810179    2.312271    1.362189
     61          6           0      -13.453471    0.802905    0.118710
     62          6           0      -14.063240    1.834793   -0.866611
     63          6           0      -15.523498    2.279529   -0.500535
     64          6           0      -16.413578    2.281344   -1.806675
     65          6           0      -16.190918    3.686252   -2.548680
     66          6           0      -17.874520    1.911430   -1.526202
     67          1           0        0.582161    1.007795   -0.661026
     68          1           0        5.082279    5.705781    0.276758
     69          1           0        9.611995    1.124542    0.728673
     70          1           0        2.391818   -3.385621   -0.781932
     71          1           0        0.691574   -1.371787    0.375028
     72          1           0       -0.315902   -1.383723   -1.596478
     73          1           0        0.970989   -2.378154   -2.300838
     74          1           0        1.173025   -0.647907   -2.345271
     75          1           0        2.168823   -2.180662    2.074281
     76          1           0        3.341421   -3.443586    1.619124
     77          1           0        0.648455   -3.928516    2.600414
     78          1           0        1.826504   -5.003967    2.028768
     79          1           0       -0.348630    4.624270   -0.542672
     80          1           0       -0.333611    2.859573   -0.931802
     81          1           0        0.109179    4.075175   -2.186364
     82          1           0        1.036117    7.993836   -1.378054
     83          1           0        0.449399    6.594978   -0.739330
     84          1           0        1.014779    6.462197   -2.410814
     85          1           0        7.691292    5.211728    1.694513
     86          1           0        9.462027    3.898345   -0.319021
     87          1           0        8.298717    6.911113   -0.004183
     88          1           0        6.999011    6.098858   -1.011787
     89          1           0        8.571591    5.620384   -1.167531
     90          1           0        9.225901    3.092022    2.578234
     91          1           0        9.500402    4.700589    2.513026
     92          1           0       11.575626    3.754083    0.779352
     93          1           0       11.409825    2.516237    2.075493
     94          1           0       11.624291    4.163519    2.550876
     95          1           0       10.344944   -1.899749    0.866060
     96          1           0       10.321833   -0.803849   -0.667553
     97          1           0        9.952607   -2.513936   -0.689775
     98          1           0        5.090078   -4.166389    0.349663
     99          1           0        4.179792   -7.123006   -2.436453
    100          1           0        4.247849   -5.792708   -3.494024
    101          1           0        2.718981   -6.063585   -2.706021
    102          1           0       -2.008437   -5.643099   -0.422188
    103          1           0       -1.348661   -4.353303   -1.362282
    104          1           0       -2.733386   -2.682051   -0.573764
    105          1           0       -3.819017   -6.002218    1.250589
    106          1           0       -4.718384   -6.062239   -0.252792
    107          1           0       -5.485826   -5.582328    1.176014
    108          1           0       -6.193592   -3.462241   -0.165088
    109          1           0       -4.865142   -2.201840   -0.378609
    110          1           0       -5.133812   -1.489042    1.720327
    111          1           0       -5.113195   -3.085722    2.365821
    112          1           0       -7.334437   -2.886018    2.819785
    113          1           0       -7.742008   -2.889982    1.190149
    114          1           0       -7.167956   -0.360699    1.242423
    115          1           0       -6.082994    0.325866    3.084912
    116          1           0       -6.690584   -0.943052    4.048557
    117          1           0       -7.562160    0.582013    3.776789
    118          1           0       -9.426715   -0.123126    2.936315
    119          1           0       -9.459473   -1.805233    2.427192
    120          1           0       -9.613680   -1.158005    0.073581
    121          1           0       -9.283427    0.568786    0.422454
    122          1           0      -11.502257   -0.188290    1.977436
    123          1           0      -11.668765   -1.009317    0.399613
    124          1           0      -11.440577    1.485640   -0.489320
    125          1           0      -10.781142    2.507033    1.664754
    126          1           0      -12.168571    1.952921    2.327249
    127          1           0      -12.377326    3.170720    1.000593
    128          1           0      -14.045925    0.752354    1.031963
    129          1           0      -13.634803   -0.139576   -0.398577
    130          1           0      -13.920105    1.320852   -1.817280
    131          1           0      -13.501382    2.767485   -0.914382
    132          1           0      -15.576346    3.270781   -0.051617
    133          1           0      -15.846555    1.494897    0.183228
    134          1           0      -15.923856    1.625010   -2.525864
    135          1           0      -16.057334    3.599513   -3.627264
    136          1           0      -15.256326    4.086196   -2.155123
    137          1           0      -16.942148    4.375487   -2.163001
    138          1           0      -18.209450    1.639703   -0.525466
    139          1           0      -18.065839    1.008438   -2.104897
    140          1           0      -18.510042    2.704433   -1.919872
 ---------------------------------------------------------------------

 SCF Done:  E(RwB97XD) =  -3007.85077513     A.U. after   19 cycles

 Excitation energies and oscillator strengths:

 Excited State   1:      Singlet-A      1.7685 eV  701.08 nm  f=0.3552  <S**2>=0.000
     245 -> 248        0.18714
     246 -> 247        0.68109
     245 <- 248        0.10968
 This state for optimization and/or second-order correction.
 Total Energy, E(TD-HF/TD-DFT) =  -3007.78578469
 Copying the excited state density for this state as the 1-particle RhoCI density.

 Excited State   2:      Singlet-A      2.2189 eV  558.77 nm  f=0.0887  <S**2>=0.000
     245 -> 247        0.62521
     246 -> 248       -0.31280

 Excited State   3:      Singlet-A      3.4756 eV  356.72 nm  f=0.5277  <S**2>=0.000
     239 -> 247        0.17777
     240 -> 247       -0.17650
     240 -> 249        0.16990
     242 -> 247        0.16752
     245 -> 247        0.25189
     246 -> 248        0.53586

 Excited State   4:      Singlet-A      3.5026 eV  353.98 nm  f=0.1096  <S**2>=0.000
     240 -> 247        0.45507
     240 -> 248       -0.14512
     240 -> 249       -0.37652
     240 -> 250        0.16603
     245 -> 247        0.11485
     246 -> 248        0.24210

 Excited State   5:      Singlet-A      3.5950 eV  344.87 nm  f=0.0008  <S**2>=0.000
     239 -> 247       -0.16296
     242 -> 247       -0.24235
     243 -> 247       -0.25905
     243 -> 249       -0.15235
     243 -> 250       -0.18127
     244 -> 247        0.50134

 The electronic state is 1-A.
 Alpha  occ. eigenvalues --  -46.94561 -19.31625 -19.30418 -19.26804 -19.24540
 Alpha  occ. eigenvalues --  -19.23439 -19.22273 -14.46769 -14.46506 -14.45266
 Alpha  occ. eigenvalues --  -14.43227 -10.44905 -10.42457 -10.40941 -10.37575
 Alpha  occ. eigenvalues --  -10.36389 -10.36145 -10.36047 -10.35869 -10.35215
 Alpha  occ. eigenvalues --  -10.34685 -10.34566 -10.34476 -10.33672 -10.33616
 Alpha  occ. eigenvalues --  -10.32576 -10.32574 -10.32443 -10.32104 -10.32084
 Alpha  occ. eigenvalues --  -10.32011 -10.31954 -10.31928 -10.31879 -10.31502
 Alpha  occ. eigenvalues --  -10.31460 -10.31425 -10.31365 -10.31223 -10.30824
 Alpha  occ. eigenvalues --  -10.30590 -10.30535 -10.30154 -10.30072 -10.30036
 Alpha  occ. eigenvalues --  -10.29983 -10.29901 -10.29867 -10.29687 -10.29522
 Alpha  occ. eigenvalues --  -10.29478 -10.29429 -10.29398 -10.29313 -10.29091
 Alpha  occ. eigenvalues --  -10.28934 -10.28910 -10.28789 -10.28588 -10.28557
 Alpha  occ. eigenvalues --  -10.28500 -10.28329 -10.28326 -10.28190 -10.28143
 Alpha  occ. eigenvalues --  -10.27434  -3.20612  -1.94219  -1.93729  -1.93601
 Alpha  occ. eigenvalues --   -1.18934  -1.16813  -1.10833  -1.10512  -1.09470
 Alpha  occ. eigenvalues --   -1.07116  -1.06882  -1.05631  -1.04692  -1.04236
 Alpha  occ. eigenvalues --   -0.94259  -0.93165  -0.91901  -0.91209  -0.90910
 Alpha  occ. eigenvalues --   -0.90867  -0.90231  -0.89679  -0.88994  -0.88709
 Alpha  occ. eigenvalues --   -0.88284  -0.87549  -0.86586  -0.85366  -0.84939
 Alpha  occ. eigenvalues --   -0.84794  -0.84357  -0.83210  -0.82715  -0.82084
 Alpha  occ. eigenvalues --   -0.81834  -0.80781  -0.79828  -0.78621  -0.78452
 Alpha  occ. eigenvalues --   -0.77515  -0.77313  -0.76978  -0.76872  -0.76099
 Alpha  occ. eigenvalues --   -0.75141  -0.74198  -0.73555  -0.72430  -0.70712
 Alpha  occ. eigenvalues --   -0.70472  -0.70176  -0.69202  -0.68566  -0.67944
 Alpha  occ. eigenvalues --   -0.67704  -0.66811  -0.66605  -0.66137  -0.65958
 Alpha  occ. eigenvalues --   -0.65820  -0.65142  -0.64642  -0.63548  -0.63046
 Alpha  occ. eigenvalues --   -0.62523  -0.61451  -0.61252  -0.60210  -0.59406
 Alpha  occ. eigenvalues --   -0.58896  -0.58601  -0.58513  -0.57860  -0.57674
 Alpha  occ. eigenvalues --   -0.56959  -0.56759  -0.56606  -0.56364  -0.56049
 Alpha  occ. eigenvalues --   -0.55733  -0.55671  -0.55258  -0.55083  -0.54937
 Alpha  occ. eigenvalues --   -0.54696  -0.54563  -0.54242  -0.53983  -0.53648
 Alpha  occ. eigenvalues --   -0.53446  -0.53191  -0.52981  -0.52914  -0.52559
 Alpha  occ. eigenvalues --   -0.52479  -0.52232  -0.52215  -0.52039  -0.51453
 Alpha  occ. eigenvalues --   -0.51210  -0.51159  -0.50881  -0.50793  -0.50607
 Alpha  occ. eigenvalues --   -0.50335  -0.50193  -0.49860  -0.49839  -0.49457
 Alpha  occ. eigenvalues --   -0.49283  -0.49037  -0.48864  -0.48483  -0.48263
 Alpha  occ. eigenvalues --   -0.48192  -0.48124  -0.47977  -0.47860  -0.47784
 Alpha  occ. eigenvalues --   -0.47496  -0.47310  -0.46996  -0.46856  -0.46844
 Alpha  occ. eigenvalues --   -0.46783  -0.46310  -0.46132  -0.45940  -0.45868
 Alpha  occ. eigenvalues --   -0.45713  -0.45640  -0.45447  -0.45230  -0.44984
 Alpha  occ. eigenvalues --   -0.44856  -0.44751  -0.44358  -0.44091  -0.43830
 Alpha  occ. eigenvalues --   -0.43634  -0.43468  -0.43421  -0.43324  -0.43253
 Alpha  occ. eigenvalues --   -0.43079  -0.42572  -0.42448  -0.42365  -0.41939
 Alpha  occ. eigenvalues --   -0.41824  -0.41503  -0.41158  -0.41012  -0.40636
 Alpha  occ. eigenvalues --   -0.40441  -0.40103  -0.39952  -0.39638  -0.39575
 Alpha  occ. eigenvalues --   -0.39108  -0.39025  -0.38926  -0.38900  -0.38194
 Alpha  occ. eigenvalues --   -0.37906  -0.37523  -0.37396  -0.37290  -0.36231
 Alpha  occ. eigenvalues --   -0.35571  -0.35091  -0.34699  -0.33950  -0.33489
 Alpha  occ. eigenvalues --   -0.33073  -0.32702  -0.31676  -0.31121  -0.25917
 Alpha  occ. eigenvalues --   -0.22980
 Alpha virt. eigenvalues --   -0.06587  -0.00093   0.02047   0.04559   0.05972
 Alpha virt. eigenvalues --    0.06724   0.06898   0.07117   0.08091   0.08586
 Alpha virt. eigenvalues --    0.09655   0.10819   0.11697   0.12147   0.12248

 Mulliken charges:
               1
     1  Mg   0.983302
     2  C   -0.009246
     3  C   -0.091871
     4  C   -0.056919
     5  C   -0.069138
     6  N   -0.297647
     7  C   -0.040607
     8  C   -0.077816
     9  C   -0.135248
    10  C    0.028961
    11  C    0.022759
    12  C    0.059821
    13  C    0.033083
    14  C    0.217662
    15  O   -0.263019
    16  O   -0.349502
    17  N   -0.512055
    18  C    0.199287
    19  C   -0.187428
    20  C   -0.060550
    21  C    0.148297
    22  C    0.074475
    23  C    0.072915
    24  O   -0.271891
    25  C    0.025542
    26  N   -0.343815
    27  C    0.039621
    28  C   -0.067327
    29  C   -0.076380
    30  C    0.053073
    31  C    0.036526
    32  C   -0.043525
    33  C   -0.048536
    34  N   -0.456963
    35  C    0.116621
    36  C   -0.215384
    37  C   -0.009554
    38  C    0.138733
    39  C    0.076260
    40  C    0.144293
    41  O   -0.228602
    42  C   -0.087690
    43  C    0.253705
    44  O   -0.285612
    45  O   -0.356119
    46  C    0.124935
    47  C    0.239722
    48  C   -0.141976
    49  C   -0.181615
    50  C    0.004829
    51  C    0.069300
    52  C   -0.019249
    53  C   -0.003005
    54  C   -0.164637
    55  C   -0.008841
    56  C    0.000939
    57  C   -0.013009
    58  C   -0.018099
    59  C   -0.160960
    60  C    0.019574
    61  C    0.010243
    62  C   -0.059053
    63  C   -0.005646
    64  C   -0.223825
    65  C   -0.021695
    66  C    0.017706
    67  H   -0.003961
    68  H    0.027980
    69  H   -0.002996
    70  H    0.047915
    71  H    0.033291
    72  H    0.044795
    73  H    0.045077
    74  H    0.045121
    75  H    0.038566
    76  H    0.034397
    77  H    0.058105
    78  H    0.044615
    79  H    0.053688
    80  H    0.047189
    81  H    0.066407
    82  H    0.063785
    83  H    0.029381
    84  H    0.068901
    85  H    0.045714
    86  H    0.050675
    87  H    0.051758
    88  H    0.043317
    89  H    0.016499
    90  H    0.030260
    91  H    0.025027
    92  H    0.043092
    93  H    0.043620
    94  H    0.033711
    95  H    0.046579
    96  H    0.044529
    97  H    0.051092
    98  H    0.063180
    99  H    0.055441
   100  H    0.063845
   101  H    0.058440
   102  H    0.046354
   103  H    0.040068
   104  H    0.016394
   105  H    0.052464
   106  H    0.052685
   107  H    0.029971
   108  H    0.029617
   109  H    0.020042
   110  H    0.020351
   111  H    0.029267
   112  H    0.010147
   113  H    0.012179
   114  H    0.012101
   115  H    0.014545
   116  H    0.019919
   117  H    0.029401
   118  H    0.016363
   119  H    0.015047
   120  H    0.017663
   121  H    0.018126
   122  H    0.007913
   123  H    0.012014
   124  H    0.016025
   125  H    0.027850
   126  H    0.006815
   127  H    0.034440
   128  H    0.017825
   129  H    0.022832
   130  H    0.024802
   131  H    0.021987
   132  H    0.031376
   133  H    0.019453
   134  H    0.023560
   135  H    0.044197
   136  H    0.015433
   137  H    0.030102
   138  H    0.035335
   139  H    0.024870
   140  H    0.023306
 Sum of Mulliken charges =  -0.00000

 Dipole moment (field-independent basis, Debye):
    X=             -7.9190    Y=              3.7999    Z=              1.9176  Tot=              8.9904
 Quadrupole moment (field-independent basis, Debye-Ang):
   XX=           -422.0996   YY=           -420.2078   ZZ=           -401.7957
   XY=             49.8546   XZ=             23.7624   YZ=            -11.4877

 Normal termination of Gaussian 16 at Wed May  4 13:45:30 2022.
