 Gaussian 16, Revision A.03,
 Gaussian 16:  ES64L-G16RevA.03 25-Dec-2016

 --------------------
 #p ZINDO=(nstates=5)
 --------------------

 ------------------------------
 step_1751_chromophore_21 ZINDO
 ------------------------------
 Symbolic Z-matrix:
 Charge =  0 Multiplicity = 1

                         Standard orientation:
 ---------------------------------------------------------------------
 Center     Atomic      Atomic             Coordinates (Angstroms)
 Number     Number       Type             X           Y           Z
 ---------------------------------------------------------------------
      1         12           0        5.051758    1.281588    0.124223
      2          6           0        5.100468   -2.155410   -0.351402
      3          6           0        1.612220    1.154102   -0.330299
      4          6           0        5.028040    4.617808    0.355740
      5          6           0        8.539041    1.231896    0.556984
      6          7           0        3.514301   -0.403515   -0.060945
      7          6           0        3.748624   -1.743435   -0.204069
      8          6           0        2.474144   -2.589843   -0.042724
      9          6           0        1.465162   -1.405315   -0.392008
     10          6           0        2.234341   -0.126696   -0.230006
     11          6           0        0.760260   -1.461350   -1.750076
     12          6           0        2.329774   -3.067491    1.461781
     13          6           0        1.252298   -4.131569    1.716177
     14          6           0        0.397295   -4.765787    0.489840
     15          8           0        0.698525   -5.597972   -0.376425
     16          8           0       -0.822451   -4.155972    0.686714
     17          7           0        3.606262    2.680049   -0.084826
     18          6           0        2.238174    2.452926   -0.298668
     19          6           0        1.582247    3.759849   -0.630036
     20          6           0        2.552752    4.771223   -0.475848
     21          6           0        3.784610    4.058648   -0.035046
     22          6           0        0.122486    3.831282   -1.124247
     23          6           0        2.403724    6.296656   -0.810924
     24          8           0        3.359226    7.096397   -0.555581
     25          6           0        1.216112    6.920321   -1.441814
     26          7           0        6.609748    2.744009    0.326189
     27          6           0        6.358208    4.045648    0.430919
     28          6           0        7.677776    4.882719    0.656170
     29          6           0        8.830876    3.864494    0.569723
     30          6           0        7.966339    2.503373    0.466484
     31          6           0        7.890838    5.979054   -0.395784
     32          6           0        9.635088    3.823065    1.881095
     33          6           0       11.183474    3.539028    1.773467
     34          7           0        6.486420   -0.163219    0.148785
     35          6           0        7.887278   -0.042615    0.364018
     36          6           0        8.464984   -1.312335    0.118964
     37          6           0        7.441822   -2.203098   -0.199166
     38          6           0        6.251262   -1.434945   -0.122618
     39          6           0        9.886750   -1.612897   -0.080639
     40          6           0        7.087720   -3.556054   -0.486314
     41          8           0        7.812612   -4.538604   -0.712754
     42          6           0        5.523176   -3.596626   -0.471654
     43          6           0        5.077916   -4.346479   -1.671535
     44          8           0        5.574198   -4.136221   -2.819611
     45          8           0        4.082152   -5.269896   -1.388944
     46          6           0        3.797147   -6.109124   -2.553972
     47          6           0       -1.760340   -4.581837   -0.379570
     48          6           0       -2.942476   -3.693609   -0.226021
     49          6           0       -4.143854   -4.039124    0.252264
     50          6           0       -4.544810   -5.463949    0.640683
     51          6           0       -5.283585   -3.006358    0.225757
     52          6           0       -5.580439   -2.475735    1.594093
     53          6           0       -7.112109   -2.350703    1.897351
     54          6           0       -7.589550   -0.918559    2.078904
     55          6           0       -7.002642   -0.219654    3.294816
     56          6           0       -9.126963   -0.807533    2.142310
     57          6           0       -9.741770   -0.348271    0.791710
     58          6           0      -11.282884   -0.127884    0.912136
     59          6           0      -12.007564    1.176865    0.388526
     60          6           0      -11.810179    2.312271    1.362189
     61          6           0      -13.453471    0.802905    0.118710
     62          6           0      -14.063240    1.834793   -0.866611
     63          6           0      -15.523498    2.279529   -0.500535
     64          6           0      -16.413578    2.281344   -1.806675
     65          6           0      -16.190918    3.686252   -2.548680
     66          6           0      -17.874520    1.911430   -1.526202
     67          1           0        0.582161    1.007795   -0.661026
     68          1           0        5.082279    5.705781    0.276758
     69          1           0        9.611995    1.124542    0.728673
     70          1           0        2.391818   -3.385621   -0.781932
     71          1           0        0.691574   -1.371787    0.375028
     72          1           0       -0.315902   -1.383723   -1.596478
     73          1           0        0.970989   -2.378154   -2.300838
     74          1           0        1.173025   -0.647907   -2.345271
     75          1           0        2.168823   -2.180662    2.074281
     76          1           0        3.341421   -3.443586    1.619124
     77          1           0        0.648455   -3.928516    2.600414
     78          1           0        1.826504   -5.003967    2.028768
     79          1           0       -0.348630    4.624270   -0.542672
     80          1           0       -0.333611    2.859573   -0.931802
     81          1           0        0.109179    4.075175   -2.186364
     82          1           0        1.036117    7.993836   -1.378054
     83          1           0        0.449399    6.594978   -0.739330
     84          1           0        1.014779    6.462197   -2.410814
     85          1           0        7.691292    5.211728    1.694513
     86          1           0        9.462027    3.898345   -0.319021
     87          1           0        8.298717    6.911113   -0.004183
     88          1           0        6.999011    6.098858   -1.011787
     89          1           0        8.571591    5.620384   -1.167531
     90          1           0        9.225901    3.092022    2.578234
     91          1           0        9.500402    4.700589    2.513026
     92          1           0       11.575626    3.754083    0.779352
     93          1           0       11.409825    2.516237    2.075493
     94          1           0       11.624291    4.163519    2.550876
     95          1           0       10.344944   -1.899749    0.866060
     96          1           0       10.321833   -0.803849   -0.667553
     97          1           0        9.952607   -2.513936   -0.689775
     98          1           0        5.090078   -4.166389    0.349663
     99          1           0        4.179792   -7.123006   -2.436453
    100          1           0        4.247849   -5.792708   -3.494024
    101          1           0        2.718981   -6.063585   -2.706021
    102          1           0       -2.008437   -5.643099   -0.422188
    103          1           0       -1.348661   -4.353303   -1.362282
    104          1           0       -2.733386   -2.682051   -0.573764
    105          1           0       -3.819017   -6.002218    1.250589
    106          1           0       -4.718384   -6.062239   -0.252792
    107          1           0       -5.485826   -5.582328    1.176014
    108          1           0       -6.193592   -3.462241   -0.165088
    109          1           0       -4.865142   -2.201840   -0.378609
    110          1           0       -5.133812   -1.489042    1.720327
    111          1           0       -5.113195   -3.085722    2.365821
    112          1           0       -7.334437   -2.886018    2.819785
    113          1           0       -7.742008   -2.889982    1.190149
    114          1           0       -7.167956   -0.360699    1.242423
    115          1           0       -6.082994    0.325866    3.084912
    116          1           0       -6.690584   -0.943052    4.048557
    117          1           0       -7.562160    0.582013    3.776789
    118          1           0       -9.426715   -0.123126    2.936315
    119          1           0       -9.459473   -1.805233    2.427192
    120          1           0       -9.613680   -1.158005    0.073581
    121          1           0       -9.283427    0.568786    0.422454
    122          1           0      -11.502257   -0.188290    1.977436
    123          1           0      -11.668765   -1.009317    0.399613
    124          1           0      -11.440577    1.485640   -0.489320
    125          1           0      -10.781142    2.507033    1.664754
    126          1           0      -12.168571    1.952921    2.327249
    127          1           0      -12.377326    3.170720    1.000593
    128          1           0      -14.045925    0.752354    1.031963
    129          1           0      -13.634803   -0.139576   -0.398577
    130          1           0      -13.920105    1.320852   -1.817280
    131          1           0      -13.501382    2.767485   -0.914382
    132          1           0      -15.576346    3.270781   -0.051617
    133          1           0      -15.846555    1.494897    0.183228
    134          1           0      -15.923856    1.625010   -2.525864
    135          1           0      -16.057334    3.599513   -3.627264
    136          1           0      -15.256326    4.086196   -2.155123
    137          1           0      -16.942148    4.375487   -2.163001
    138          1           0      -18.209450    1.639703   -0.525466
    139          1           0      -18.065839    1.008438   -2.104897
    140          1           0      -18.510042    2.704433   -1.919872
 ---------------------------------------------------------------------

 SCF Done:  E(RZINDO/S) =  -474.025866281     A.U. after   19 cycles

 Excitation energies and oscillator strengths:

 Excited State   1:      Singlet-A      1.3557 eV  914.51 nm  f=0.5101  <S**2>=0.000
     175 ->178         0.15683
     176 ->177         0.67328
 This state for optimization and/or second-order correction.
 Total Energy, E(CIS/TDA) =  -473.976043462
 Copying the excited state density for this state as the 1-particle RhoCI density.

 Excited State   2:      Singlet-A      1.9571 eV  633.51 nm  f=0.0172  <S**2>=0.000
     175 ->177         0.50822
     176 ->178        -0.45894

 Excited State   3:      Singlet-A      2.8713 eV  431.80 nm  f=0.0117  <S**2>=0.000
     166 ->179         0.14650
     167 ->177        -0.23631
     167 ->179         0.37100
     167 ->181        -0.16813
     167 ->186        -0.13993
     168 ->177        -0.19904
     168 ->179         0.30356
     168 ->181        -0.13748
     168 ->186        -0.11415

 Excited State   4:      Singlet-A      2.9551 eV  419.56 nm  f=0.7910  <S**2>=0.000
     171 ->181        -0.11710
     175 ->177         0.36683
     176 ->178         0.41412
     176 ->179        -0.24856
     176 ->181        -0.22367

 Excited State   5:      Singlet-A      3.0371 eV  408.23 nm  f=0.5016  <S**2>=0.000
     171 ->177         0.10323
     171 ->181         0.16394
     171 ->186        -0.10118
     175 ->177         0.23706
     176 ->178         0.28960
     176 ->179         0.43913
     176 ->181         0.21382

 The electronic state is 1-A.
 Alpha  occ. eigenvalues --   -1.84755  -1.80512  -1.78777  -1.72805  -1.70888
 Alpha  occ. eigenvalues --   -1.69867  -1.65791  -1.62369  -1.57414  -1.56887
 Alpha  occ. eigenvalues --   -1.55124  -1.52083  -1.47666  -1.46676  -1.46167
 Alpha  occ. eigenvalues --   -1.43765  -1.41440  -1.39780  -1.39466  -1.38976
 Alpha  occ. eigenvalues --   -1.36746  -1.33818  -1.33239  -1.31281  -1.27961
 Alpha  occ. eigenvalues --   -1.27388  -1.24059  -1.22739  -1.21163  -1.18268
 Alpha  occ. eigenvalues --   -1.17449  -1.16966  -1.16174  -1.14549  -1.14176
 Alpha  occ. eigenvalues --   -1.12173  -1.10958  -1.10315  -1.03989  -1.02617
 Alpha  occ. eigenvalues --   -1.02511  -1.00190  -0.99129  -0.97603  -0.96269
 Alpha  occ. eigenvalues --   -0.95498  -0.94671  -0.92849  -0.92710  -0.92025
 Alpha  occ. eigenvalues --   -0.90798  -0.90522  -0.88640  -0.87962  -0.86801
 Alpha  occ. eigenvalues --   -0.86423  -0.84791  -0.83403  -0.82653  -0.81478
 Alpha  occ. eigenvalues --   -0.80040  -0.79403  -0.78661  -0.77980  -0.76565
 Alpha  occ. eigenvalues --   -0.76057  -0.75332  -0.74986  -0.73850  -0.73178
 Alpha  occ. eigenvalues --   -0.73113  -0.72889  -0.72177  -0.71024  -0.70883
 Alpha  occ. eigenvalues --   -0.70470  -0.70093  -0.69075  -0.68856  -0.68172
 Alpha  occ. eigenvalues --   -0.68091  -0.66914  -0.66038  -0.65733  -0.65004
 Alpha  occ. eigenvalues --   -0.64845  -0.64765  -0.64081  -0.63766  -0.63649
 Alpha  occ. eigenvalues --   -0.63473  -0.63278  -0.62793  -0.62175  -0.62009
 Alpha  occ. eigenvalues --   -0.61817  -0.61179  -0.60805  -0.60126  -0.59925
 Alpha  occ. eigenvalues --   -0.59521  -0.59014  -0.58890  -0.58805  -0.58639
 Alpha  occ. eigenvalues --   -0.58047  -0.57706  -0.56693  -0.56587  -0.56007
 Alpha  occ. eigenvalues --   -0.55819  -0.55569  -0.55394  -0.54998  -0.54729
 Alpha  occ. eigenvalues --   -0.54352  -0.54150  -0.54016  -0.53374  -0.52915
 Alpha  occ. eigenvalues --   -0.52496  -0.52269  -0.52010  -0.51645  -0.51377
 Alpha  occ. eigenvalues --   -0.51265  -0.51172  -0.50826  -0.50677  -0.50576
 Alpha  occ. eigenvalues --   -0.50256  -0.50024  -0.49805  -0.49416  -0.49230
 Alpha  occ. eigenvalues --   -0.49198  -0.48993  -0.48547  -0.48434  -0.48086
 Alpha  occ. eigenvalues --   -0.47686  -0.47579  -0.47164  -0.46842  -0.46045
 Alpha  occ. eigenvalues --   -0.45893  -0.45812  -0.45684  -0.45315  -0.45270
 Alpha  occ. eigenvalues --   -0.44671  -0.44591  -0.44480  -0.44290  -0.44061
 Alpha  occ. eigenvalues --   -0.43925  -0.43509  -0.43478  -0.43328  -0.41666
 Alpha  occ. eigenvalues --   -0.41084  -0.40811  -0.40394  -0.39668  -0.38560
 Alpha  occ. eigenvalues --   -0.37057  -0.36718  -0.36469  -0.34970  -0.34330
 Alpha  occ. eigenvalues --   -0.33335  -0.33263  -0.32158  -0.31129  -0.26798
 Alpha  occ. eigenvalues --   -0.21731
 Alpha virt. eigenvalues --   -0.07989  -0.02140  -0.00957   0.00700   0.01488
 Alpha virt. eigenvalues --    0.02801   0.03038   0.03267   0.04189   0.04287
 Alpha virt. eigenvalues --    0.04666   0.06138   0.06412   0.07069   0.07402

 Mulliken charges:
               1
     1  Mg   0.426611
     2  C   -0.029422
     3  C   -0.110788
     4  C   -0.091484
     5  C   -0.051644
     6  N   -0.278598
     7  C    0.083106
     8  C   -0.001849
     9  C    0.004115
    10  C    0.187356
    11  C   -0.048197
    12  C   -0.012915
    13  C   -0.002913
    14  C    0.462745
    15  O   -0.497693
    16  O   -0.258759
    17  N   -0.338714
    18  C    0.135952
    19  C    0.025191
    20  C   -0.025171
    21  C    0.163730
    22  C   -0.041690
    23  C    0.333001
    24  O   -0.534780
    25  C   -0.021083
    26  N   -0.253125
    27  C    0.180760
    28  C    0.014110
    29  C   -0.000444
    30  C    0.058639
    31  C   -0.052403
    32  C   -0.036598
    33  C   -0.062876
    34  N   -0.318683
    35  C    0.033350
    36  C    0.025414
    37  C   -0.073256
    38  C    0.118498
    39  C   -0.044253
    40  C    0.334347
    41  O   -0.540407
    42  C    0.052728
    43  C    0.481509
    44  O   -0.532254
    45  O   -0.259715
    46  C    0.071500
    47  C    0.100324
    48  C   -0.088042
    49  C   -0.005475
    50  C   -0.042838
    51  C   -0.020428
    52  C   -0.028284
    53  C   -0.032738
    54  C   -0.003882
    55  C   -0.058324
    56  C   -0.033066
    57  C   -0.038014
    58  C   -0.056067
    59  C    0.000665
    60  C   -0.056513
    61  C   -0.029033
    62  C   -0.048966
    63  C   -0.039013
    64  C   -0.020464
    65  C   -0.068281
    66  C   -0.055561
    67  H    0.029562
    68  H    0.037894
    69  H    0.028843
    70  H    0.054083
    71  H    0.020671
    72  H    0.022392
    73  H    0.027357
    74  H    0.025344
    75  H    0.031033
    76  H    0.031294
    77  H    0.044099
    78  H    0.027786
    79  H    0.033279
    80  H    0.032207
    81  H    0.039543
    82  H    0.054137
    83  H    0.025210
    84  H    0.044380
    85  H    0.042730
    86  H    0.045071
    87  H    0.029092
    88  H    0.027262
    89  H    0.016198
    90  H    0.018828
    91  H    0.013843
    92  H    0.027434
    93  H    0.022601
    94  H    0.016404
    95  H    0.033506
    96  H    0.028957
    97  H    0.027692
    98  H    0.047589
    99  H    0.040913
   100  H    0.051169
   101  H    0.033759
   102  H    0.054058
   103  H    0.039356
   104  H    0.027333
   105  H    0.025473
   106  H    0.026540
   107  H    0.018069
   108  H    0.031742
   109  H    0.022050
   110  H    0.018215
   111  H    0.019952
   112  H    0.010574
   113  H    0.018326
   114  H    0.014778
   115  H    0.003796
   116  H    0.014681
   117  H    0.019914
   118  H    0.021418
   119  H    0.020137
   120  H    0.018031
   121  H    0.022694
   122  H    0.015954
   123  H    0.012669
   124  H    0.018195
   125  H    0.021505
   126  H    0.011231
   127  H    0.024620
   128  H    0.021923
   129  H    0.019370
   130  H    0.022481
   131  H    0.015101
   132  H    0.029455
   133  H    0.016986
   134  H    0.021912
   135  H    0.029133
   136  H    0.010709
   137  H    0.023950
   138  H    0.027169
   139  H    0.010957
   140  H    0.018430
 Sum of Mulliken charges =  -0.00000

 Dipole moment (field-independent basis, Debye):
    X=            -12.5197    Y=              6.0543    Z=              3.2816  Tot=             14.2887
 N-N= 4.257659747540D+03 E-N= 0.000000000000D+00  KE=-9.189196755436D+03
 Leave Link  601 at Wed May  4 13:58:06 2022, MaxMem=  6710886400 cpu:               0.8 elap:               0.1
 (Enter /sw/apps/gaussian-16.0/g16/l9999.exe)
 1\1\GINC-BP1-COMPUTE089\SP\RZINDO CIS\STO-3G\C55H74Mg1N4O6\OF15641\04-
 May-2022\0\\#p ZINDO=(nstates=5)\\step_1751_chromophore_21 ZINDO\\0,1\
 Mg,0,15.748,50.626,26.432\C,0,17.773,49.566,29.043\C,0,13.332,51.394,2
 8.804\C,0,13.711,51.435,23.906\C,0,18.3,49.79,24.165\N,0,15.704,50.699
 ,28.719\C,0,16.655,50.249,29.593\C,0,16.39,50.696,31.041\C,0,14.827,50
 .938,30.837\C,0,14.6,51.042,29.357\C,0,13.871,49.927,31.476\C,0,17.165
 ,52.046,31.34\C,0,17.206,52.471,32.815\C,0,16.564,51.532,33.974\O,0,16

 Normal termination of Gaussian 16 at Wed May  4 13:58:06 2022.
