 Gaussian 16, Revision A.03,
 Gaussian 16:  ES64L-G16RevA.03 25-Dec-2016

 ------------------------------
 #p blyp/Def2SVP td=(nstates=5)
 ------------------------------

 ---------------------------------------------------
 step_1001_chromophore_24 TDDFT with blyp functional
 ---------------------------------------------------
 Symbolic Z-matrix:
 Charge =  0 Multiplicity = 1

                         Standard orientation:
 ---------------------------------------------------------------------
 Center     Atomic      Atomic             Coordinates (Angstroms)
 Number     Number       Type             X           Y           Z
 ---------------------------------------------------------------------
      1         12           0        4.901554    1.080492    0.278925
      2          6           0        4.294734   -2.288320    0.082353
      3          6           0        1.444386    1.670251    0.292300
      4          6           0        5.484934    4.302893   -0.181914
      5          6           0        8.325818    0.360319   -0.042524
      6          7           0        3.085301   -0.176549    0.101650
      7          6           0        3.127419   -1.517915    0.283672
      8          6           0        1.719304   -2.087721    0.539693
      9          6           0        0.773408   -0.846097    0.422095
     10          6           0        1.834893    0.317902    0.253780
     11          6           0       -0.241066   -1.003913   -0.692854
     12          6           0        1.553410   -2.734410    1.912541
     13          6           0        0.417218   -3.763164    2.037212
     14          6           0       -0.319441   -4.229357    0.771246
     15          8           0        0.190738   -4.974441   -0.056540
     16          8           0       -1.601796   -3.786939    0.787977
     17          7           0        3.635769    2.744818    0.101572
     18          6           0        2.240588    2.768032    0.107191
     19          6           0        1.763483    4.193238    0.007133
     20          6           0        2.955974    4.952443   -0.224652
     21          6           0        4.105368    4.047328   -0.144052
     22          6           0        0.295724    4.687778    0.203000
     23          6           0        3.068127    6.464544   -0.403034
     24          8           0        4.110787    7.018540   -0.300801
     25          6           0        1.823710    7.362962   -0.648849
     26          7           0        6.663104    2.144248    0.103943
     27          6           0        6.610798    3.475462   -0.181641
     28          6           0        8.071198    4.050547   -0.496547
     29          6           0        8.938854    2.829157   -0.014882
     30          6           0        7.976241    1.691593    0.073736
     31          6           0        8.327114    4.681614   -1.904935
     32          6           0        9.874199    3.015891    1.264360
     33          6           0        9.381121    2.659764    2.640390
     34          7           0        6.123432   -0.571560    0.001698
     35          6           0        7.504847   -0.736830   -0.072746
     36          6           0        7.818587   -2.153420   -0.257108
     37          6           0        6.566958   -2.788508   -0.178327
     38          6           0        5.668724   -1.802087   -0.015096
     39          6           0        9.139149   -2.664636   -0.574400
     40          6           0        5.873259   -4.097452   -0.361930
     41          8           0        6.269041   -5.186682   -0.682356
     42          6           0        4.357968   -3.795449   -0.114433
     43          6           0        3.536950   -4.291079   -1.290055
     44          8           0        3.255915   -3.647183   -2.296056
     45          8           0        3.199018   -5.600905   -1.160411
     46          6           0        2.579443   -6.208875   -2.319112
     47          6           0       -2.482612   -4.310663   -0.283626
     48          6           0       -3.791748   -3.539916   -0.214621
     49          6           0       -4.709440   -3.307775   -1.172687
     50          6           0       -4.725054   -3.964416   -2.573744
     51          6           0       -5.850372   -2.453520   -0.755828
     52          6           0       -6.777389   -3.034135    0.402360
     53          6           0       -6.563357   -2.489968    1.811745
     54          6           0       -7.817595   -1.838484    2.548556
     55          6           0       -8.076453   -2.596895    3.877328
     56          6           0       -7.724746   -0.293720    2.510892
     57          6           0       -8.368962    0.276264    1.243022
     58          6           0       -9.594842    1.163276    1.516576
     59          6           0       -9.786259    2.418239    0.551548
     60          6           0       -8.910366    3.713297    0.938882
     61          6           0      -11.310345    2.650861    0.286348
     62          6           0      -11.891781    2.071434   -1.028340
     63          6           0      -13.092901    2.907419   -1.564736
     64          6           0      -14.434062    2.086102   -1.629360
     65          6           0      -14.652101    1.637435   -3.027763
     66          6           0      -15.540537    2.847640   -0.987976
     67          1           0        0.412159    1.907228    0.556992
     68          1           0        5.693625    5.338668   -0.457066
     69          1           0        9.373604    0.087918   -0.186448
     70          1           0        1.552929   -2.759448   -0.303023
     71          1           0        0.336182   -0.651774    1.401984
     72          1           0       -0.351696   -0.044672   -1.198262
     73          1           0       -1.224801   -1.193730   -0.264484
     74          1           0       -0.016591   -1.779473   -1.426164
     75          1           0        1.374330   -2.044248    2.737685
     76          1           0        2.476332   -3.270641    2.131998
     77          1           0       -0.057606   -3.541595    2.992443
     78          1           0        0.807178   -4.661786    2.513236
     79          1           0       -0.236168    3.983958    0.844392
     80          1           0       -0.270232    4.713775   -0.727707
     81          1           0        0.255425    5.669011    0.675266
     82          1           0        1.330145    7.841025    0.197260
     83          1           0        1.098716    6.788128   -1.226127
     84          1           0        2.148726    8.197742   -1.270271
     85          1           0        8.201539    4.890261    0.185972
     86          1           0        9.577566    2.534099   -0.846995
     87          1           0        7.340468    4.689840   -2.369215
     88          1           0        9.062016    4.007285   -2.346032
     89          1           0        8.820200    5.643952   -1.767946
     90          1           0       10.160680    4.066730    1.281521
     91          1           0       10.732477    2.403896    0.986935
     92          1           0       10.135427    2.079905    3.172245
     93          1           0        8.477532    2.052699    2.580546
     94          1           0        9.096585    3.529554    3.232310
     95          1           0        9.141579   -2.684210   -1.664566
     96          1           0        9.357615   -3.707156   -0.345319
     97          1           0       10.000357   -2.009068   -0.444518
     98          1           0        3.903651   -4.274953    0.753474
     99          1           0        3.134746   -6.046895   -3.242438
    100          1           0        1.535819   -5.897522   -2.372093
    101          1           0        2.609466   -7.277329   -2.103559
    102          1           0       -2.882280   -5.322396   -0.230335
    103          1           0       -1.922359   -4.144240   -1.203992
    104          1           0       -3.925684   -3.134266    0.788180
    105          1           0       -3.761806   -4.281931   -2.973849
    106          1           0       -5.092327   -3.220404   -3.280678
    107          1           0       -5.332181   -4.860033   -2.448838
    108          1           0       -6.299731   -2.091096   -1.679769
    109          1           0       -5.406649   -1.552912   -0.331055
    110          1           0       -6.550978   -4.099203    0.356997
    111          1           0       -7.763980   -2.918360   -0.044060
    112          1           0       -5.762654   -1.750611    1.803814
    113          1           0       -6.066269   -3.240865    2.424410
    114          1           0       -8.671168   -2.102350    1.924204
    115          1           0       -7.450039   -3.484630    3.967521
    116          1           0       -9.086064   -3.006243    3.843255
    117          1           0       -7.998267   -1.903420    4.715270
    118          1           0       -6.676577   -0.017643    2.624822
    119          1           0       -8.175776    0.039587    3.445761
    120          1           0       -8.710296   -0.499541    0.557594
    121          1           0       -7.619153    0.823026    0.672336
    122          1           0       -9.613869    1.564168    2.530651
    123          1           0      -10.527340    0.611261    1.408912
    124          1           0       -9.335264    2.108837   -0.390431
    125          1           0       -9.432095    4.619414    0.630779
    126          1           0       -7.991155    3.624761    0.360198
    127          1           0       -8.716947    3.754599    2.010818
    128          1           0      -11.517473    3.721002    0.275958
    129          1           0      -11.817729    2.104989    1.081452
    130          1           0      -12.237004    1.082244   -0.730612
    131          1           0      -11.085841    2.005164   -1.759860
    132          1           0      -12.868793    3.149546   -2.603563
    133          1           0      -13.173569    3.834546   -0.997102
    134          1           0      -14.260018    1.165624   -1.072288
    135          1           0      -14.503258    2.449530   -3.739478
    136          1           0      -15.690979    1.310908   -2.984497
    137          1           0      -14.090698    0.758778   -3.344279
    138          1           0      -15.760251    2.260214   -0.097324
    139          1           0      -16.423179    2.858835   -1.626622
    140          1           0      -15.306647    3.880467   -0.731108
 ---------------------------------------------------------------------

 SCF Done:  E(RB-LYP) =  -3007.36747094     A.U. after   20 cycles

 Excitation energies and oscillator strengths:

 Excited State   1:      Singlet-A      1.8337 eV  676.15 nm  f=0.2980  <S**2>=0.000
     245 -> 248       -0.19592
     246 -> 247        0.68573
     246 <- 247       -0.14325
 This state for optimization and/or second-order correction.
 Total Energy, E(TD-HF/TD-DFT) =  -3007.30008465
 Copying the excited state density for this state as the 1-particle RhoCI density.

 Excited State   2:      Singlet-A      2.0165 eV  614.84 nm  f=0.0601  <S**2>=0.000
     244 -> 247        0.10983
     245 -> 247        0.63865
     246 -> 248        0.23754

 Excited State   3:      Singlet-A      2.1734 eV  570.46 nm  f=0.0040  <S**2>=0.000
     243 -> 247        0.10129
     244 -> 247        0.68980

 Excited State   4:      Singlet-A      2.2038 eV  562.59 nm  f=0.0025  <S**2>=0.000
     243 -> 247        0.69325

 Excited State   5:      Singlet-A      2.4053 eV  515.47 nm  f=0.0000  <S**2>=0.000
     242 -> 247        0.70691

 The electronic state is 1-A.
 Alpha  occ. eigenvalues --  -46.26225 -18.83522 -18.80598 -18.77820 -18.75825
 Alpha  occ. eigenvalues --  -18.75719 -18.75168 -14.02910 -14.02495 -14.00654
 Alpha  occ. eigenvalues --  -13.99882 -10.05259 -10.02621  -9.99873  -9.99852
 Alpha  occ. eigenvalues --   -9.98479  -9.96169  -9.96092  -9.95959  -9.95886
 Alpha  occ. eigenvalues --   -9.95586  -9.95559  -9.95390  -9.94559  -9.94392
 Alpha  occ. eigenvalues --   -9.93696  -9.93514  -9.93372  -9.93335  -9.93330
 Alpha  occ. eigenvalues --   -9.93278  -9.93263  -9.93231  -9.93044  -9.93040
 Alpha  occ. eigenvalues --   -9.93037  -9.92917  -9.92851  -9.92778  -9.92442
 Alpha  occ. eigenvalues --   -9.92295  -9.92167  -9.92141  -9.92109  -9.92107
 Alpha  occ. eigenvalues --   -9.92063  -9.91818  -9.91816  -9.91719  -9.91714
 Alpha  occ. eigenvalues --   -9.91612  -9.91567  -9.91525  -9.91447  -9.91446
 Alpha  occ. eigenvalues --   -9.91413  -9.91406  -9.91255  -9.91178  -9.91176
 Alpha  occ. eigenvalues --   -9.91046  -9.90883  -9.90806  -9.90591  -9.90549
 Alpha  occ. eigenvalues --   -9.90412  -2.90933  -1.71364  -1.70815  -1.70639
 Alpha  occ. eigenvalues --   -0.98741  -0.96796  -0.93722  -0.92270  -0.90885
 Alpha  occ. eigenvalues --   -0.88099  -0.86686  -0.85470  -0.84633  -0.83119
 Alpha  occ. eigenvalues --   -0.74652  -0.73868  -0.73033  -0.72920  -0.72401
 Alpha  occ. eigenvalues --   -0.71708  -0.70909  -0.70723  -0.70408  -0.70256
 Alpha  occ. eigenvalues --   -0.69136  -0.69104  -0.68020  -0.67287  -0.67067
 Alpha  occ. eigenvalues --   -0.66306  -0.65563  -0.65187  -0.64414  -0.64269
 Alpha  occ. eigenvalues --   -0.63835  -0.62518  -0.62236  -0.61730  -0.60907
 Alpha  occ. eigenvalues --   -0.60830  -0.60305  -0.59993  -0.59362  -0.58875
 Alpha  occ. eigenvalues --   -0.58150  -0.57138  -0.56118  -0.55400  -0.54425
 Alpha  occ. eigenvalues --   -0.54007  -0.53285  -0.52699  -0.52224  -0.51195
 Alpha  occ. eigenvalues --   -0.51106  -0.50492  -0.50225  -0.49948  -0.49877
 Alpha  occ. eigenvalues --   -0.49569  -0.49236  -0.48886  -0.47067  -0.46986
 Alpha  occ. eigenvalues --   -0.46113  -0.45816  -0.45348  -0.44941  -0.43734
 Alpha  occ. eigenvalues --   -0.43645  -0.43059  -0.42801  -0.42492  -0.42118
 Alpha  occ. eigenvalues --   -0.41569  -0.41281  -0.41235  -0.41157  -0.40800
 Alpha  occ. eigenvalues --   -0.40742  -0.40395  -0.40270  -0.40094  -0.39823
 Alpha  occ. eigenvalues --   -0.39610  -0.39364  -0.39294  -0.39106  -0.38971
 Alpha  occ. eigenvalues --   -0.38917  -0.38818  -0.38518  -0.38296  -0.38176
 Alpha  occ. eigenvalues --   -0.37980  -0.37619  -0.37586  -0.37543  -0.37194
 Alpha  occ. eigenvalues --   -0.37095  -0.36858  -0.36587  -0.36337  -0.36214
 Alpha  occ. eigenvalues --   -0.36139  -0.35997  -0.35848  -0.35742  -0.35589
 Alpha  occ. eigenvalues --   -0.35335  -0.35247  -0.34957  -0.34806  -0.34627
 Alpha  occ. eigenvalues --   -0.34605  -0.34311  -0.34273  -0.34214  -0.34029
 Alpha  occ. eigenvalues --   -0.33858  -0.33656  -0.33531  -0.33267  -0.33044
 Alpha  occ. eigenvalues --   -0.32884  -0.32677  -0.32564  -0.32289  -0.32186
 Alpha  occ. eigenvalues --   -0.31972  -0.31781  -0.31603  -0.31481  -0.31367
 Alpha  occ. eigenvalues --   -0.31281  -0.31026  -0.30939  -0.30643  -0.30574
 Alpha  occ. eigenvalues --   -0.30357  -0.29968  -0.29887  -0.29772  -0.29608
 Alpha  occ. eigenvalues --   -0.29423  -0.29362  -0.29032  -0.28560  -0.28316
 Alpha  occ. eigenvalues --   -0.28221  -0.28186  -0.28000  -0.27918  -0.27690
 Alpha  occ. eigenvalues --   -0.27025  -0.26890  -0.26650  -0.26553  -0.26443
 Alpha  occ. eigenvalues --   -0.26400  -0.26070  -0.25995  -0.25811  -0.25557
 Alpha  occ. eigenvalues --   -0.25075  -0.24683  -0.23921  -0.23859  -0.23671
 Alpha  occ. eigenvalues --   -0.23195  -0.22696  -0.21335  -0.20476  -0.20404
 Alpha  occ. eigenvalues --   -0.20022  -0.19679  -0.18837  -0.18698  -0.16658
 Alpha  occ. eigenvalues --   -0.15251
 Alpha virt. eigenvalues --   -0.10841  -0.06466  -0.05476  -0.04376  -0.03872
 Alpha virt. eigenvalues --   -0.02252  -0.01877  -0.01256  -0.00716   0.00496
 Alpha virt. eigenvalues --    0.01723   0.01811   0.02309   0.02420   0.03040

 Mulliken charges:
               1
     1  Mg   0.694842
     2  C   -0.004215
     3  C   -0.080268
     4  C   -0.026922
     5  C   -0.094566
     6  N   -0.189100
     7  C   -0.083152
     8  C    0.000455
     9  C    0.008652
    10  C    0.008276
    11  C    0.141378
    12  C    0.121086
    13  C    0.139013
    14  C    0.123027
    15  O   -0.192621
    16  O   -0.259456
    17  N   -0.319224
    18  C    0.151919
    19  C   -0.138202
    20  C    0.054315
    21  C    0.090801
    22  C    0.149552
    23  C   -0.077721
    24  O   -0.128523
    25  C    0.094146
    26  N   -0.252020
    27  C    0.033626
    28  C   -0.033456
    29  C    0.047899
    30  C    0.044262
    31  C    0.156090
    32  C    0.097519
    33  C    0.077969
    34  N   -0.240167
    35  C    0.100046
    36  C   -0.156321
    37  C    0.051849
    38  C    0.087782
    39  C    0.183545
    40  C   -0.017336
    41  O   -0.095332
    42  C    0.066722
    43  C    0.096402
    44  O   -0.207804
    45  O   -0.246008
    46  C    0.230641
    47  C    0.309587
    48  C   -0.149465
    49  C   -0.169106
    50  C    0.138584
    51  C    0.115487
    52  C    0.098779
    53  C    0.096149
    54  C   -0.110995
    55  C    0.122771
    56  C    0.147280
    57  C    0.096739
    58  C    0.074122
    59  C   -0.095273
    60  C    0.098939
    61  C    0.086026
    62  C    0.059646
    63  C    0.110441
    64  C   -0.111931
    65  C    0.115089
    66  C    0.136128
    67  H   -0.067024
    68  H   -0.044904
    69  H   -0.082078
    70  H    0.015952
    71  H   -0.031300
    72  H   -0.023656
    73  H   -0.009358
    74  H    0.011227
    75  H   -0.023555
    76  H   -0.029613
    77  H   -0.040350
    78  H   -0.020561
    79  H   -0.008125
    80  H    0.013023
    81  H    0.003946
    82  H    0.022148
    83  H   -0.011459
    84  H   -0.007836
    85  H   -0.026227
    86  H   -0.041103
    87  H    0.011361
    88  H   -0.016365
    89  H   -0.002002
    90  H   -0.024885
    91  H   -0.023147
    92  H   -0.008277
    93  H   -0.001503
    94  H   -0.010001
    95  H   -0.006634
    96  H    0.003565
    97  H   -0.020819
    98  H   -0.000583
    99  H    0.013163
   100  H    0.015453
   101  H   -0.000172
   102  H    0.019677
   103  H    0.011728
   104  H   -0.027123
   105  H   -0.011538
   106  H   -0.000856
   107  H    0.014223
   108  H   -0.047977
   109  H   -0.022378
   110  H   -0.030185
   111  H   -0.022192
   112  H   -0.036625
   113  H   -0.035456
   114  H   -0.034160
   115  H   -0.017639
   116  H   -0.020532
   117  H   -0.014166
   118  H   -0.038230
   119  H   -0.041047
   120  H   -0.021704
   121  H   -0.029798
   122  H   -0.027754
   123  H   -0.037796
   124  H   -0.042773
   125  H   -0.014367
   126  H   -0.010091
   127  H   -0.009726
   128  H   -0.037412
   129  H   -0.032262
   130  H   -0.029669
   131  H   -0.031060
   132  H   -0.041688
   133  H   -0.030012
   134  H   -0.039954
   135  H   -0.012115
   136  H   -0.027941
   137  H   -0.017534
   138  H   -0.015264
   139  H   -0.030178
   140  H   -0.013117
 Sum of Mulliken charges =  -0.00000

 Dipole moment (field-independent basis, Debye):
    X=             -4.6782    Y=              1.2004    Z=              2.2456  Tot=              5.3263
 Quadrupole moment (field-independent basis, Debye-Ang):
   XX=           -377.6274   YY=           -428.1810   ZZ=           -402.1396
   XY=             21.7150   XZ=              9.4534   YZ=             -3.5090

 Normal termination of Gaussian 16 at Tue May  3 18:13:56 2022.
