 Gaussian 16, Revision A.03,
 Gaussian 16:  ES64L-G16RevA.03 25-Dec-2016

 -----------------------------------
 #p cam-b3lyp/Def2SVP td=(nstates=5)
 -----------------------------------

 --------------------------------------------------------
 step_1001_chromophore_24 TDDFT with cam-b3lyp functional
 --------------------------------------------------------
 Symbolic Z-matrix:
 Charge =  0 Multiplicity = 1

                         Standard orientation:
 ---------------------------------------------------------------------
 Center     Atomic      Atomic             Coordinates (Angstroms)
 Number     Number       Type             X           Y           Z
 ---------------------------------------------------------------------
      1         12           0        4.901554    1.080492    0.278925
      2          6           0        4.294734   -2.288320    0.082353
      3          6           0        1.444386    1.670251    0.292300
      4          6           0        5.484934    4.302893   -0.181914
      5          6           0        8.325818    0.360319   -0.042524
      6          7           0        3.085301   -0.176549    0.101650
      7          6           0        3.127419   -1.517915    0.283672
      8          6           0        1.719304   -2.087721    0.539693
      9          6           0        0.773408   -0.846097    0.422095
     10          6           0        1.834893    0.317902    0.253780
     11          6           0       -0.241066   -1.003913   -0.692854
     12          6           0        1.553410   -2.734410    1.912541
     13          6           0        0.417218   -3.763164    2.037212
     14          6           0       -0.319441   -4.229357    0.771246
     15          8           0        0.190738   -4.974441   -0.056540
     16          8           0       -1.601796   -3.786939    0.787977
     17          7           0        3.635769    2.744818    0.101572
     18          6           0        2.240588    2.768032    0.107191
     19          6           0        1.763483    4.193238    0.007133
     20          6           0        2.955974    4.952443   -0.224652
     21          6           0        4.105368    4.047328   -0.144052
     22          6           0        0.295724    4.687778    0.203000
     23          6           0        3.068127    6.464544   -0.403034
     24          8           0        4.110787    7.018540   -0.300801
     25          6           0        1.823710    7.362962   -0.648849
     26          7           0        6.663104    2.144248    0.103943
     27          6           0        6.610798    3.475462   -0.181641
     28          6           0        8.071198    4.050547   -0.496547
     29          6           0        8.938854    2.829157   -0.014882
     30          6           0        7.976241    1.691593    0.073736
     31          6           0        8.327114    4.681614   -1.904935
     32          6           0        9.874199    3.015891    1.264360
     33          6           0        9.381121    2.659764    2.640390
     34          7           0        6.123432   -0.571560    0.001698
     35          6           0        7.504847   -0.736830   -0.072746
     36          6           0        7.818587   -2.153420   -0.257108
     37          6           0        6.566958   -2.788508   -0.178327
     38          6           0        5.668724   -1.802087   -0.015096
     39          6           0        9.139149   -2.664636   -0.574400
     40          6           0        5.873259   -4.097452   -0.361930
     41          8           0        6.269041   -5.186682   -0.682356
     42          6           0        4.357968   -3.795449   -0.114433
     43          6           0        3.536950   -4.291079   -1.290055
     44          8           0        3.255915   -3.647183   -2.296056
     45          8           0        3.199018   -5.600905   -1.160411
     46          6           0        2.579443   -6.208875   -2.319112
     47          6           0       -2.482612   -4.310663   -0.283626
     48          6           0       -3.791748   -3.539916   -0.214621
     49          6           0       -4.709440   -3.307775   -1.172687
     50          6           0       -4.725054   -3.964416   -2.573744
     51          6           0       -5.850372   -2.453520   -0.755828
     52          6           0       -6.777389   -3.034135    0.402360
     53          6           0       -6.563357   -2.489968    1.811745
     54          6           0       -7.817595   -1.838484    2.548556
     55          6           0       -8.076453   -2.596895    3.877328
     56          6           0       -7.724746   -0.293720    2.510892
     57          6           0       -8.368962    0.276264    1.243022
     58          6           0       -9.594842    1.163276    1.516576
     59          6           0       -9.786259    2.418239    0.551548
     60          6           0       -8.910366    3.713297    0.938882
     61          6           0      -11.310345    2.650861    0.286348
     62          6           0      -11.891781    2.071434   -1.028340
     63          6           0      -13.092901    2.907419   -1.564736
     64          6           0      -14.434062    2.086102   -1.629360
     65          6           0      -14.652101    1.637435   -3.027763
     66          6           0      -15.540537    2.847640   -0.987976
     67          1           0        0.412159    1.907228    0.556992
     68          1           0        5.693625    5.338668   -0.457066
     69          1           0        9.373604    0.087918   -0.186448
     70          1           0        1.552929   -2.759448   -0.303023
     71          1           0        0.336182   -0.651774    1.401984
     72          1           0       -0.351696   -0.044672   -1.198262
     73          1           0       -1.224801   -1.193730   -0.264484
     74          1           0       -0.016591   -1.779473   -1.426164
     75          1           0        1.374330   -2.044248    2.737685
     76          1           0        2.476332   -3.270641    2.131998
     77          1           0       -0.057606   -3.541595    2.992443
     78          1           0        0.807178   -4.661786    2.513236
     79          1           0       -0.236168    3.983958    0.844392
     80          1           0       -0.270232    4.713775   -0.727707
     81          1           0        0.255425    5.669011    0.675266
     82          1           0        1.330145    7.841025    0.197260
     83          1           0        1.098716    6.788128   -1.226127
     84          1           0        2.148726    8.197742   -1.270271
     85          1           0        8.201539    4.890261    0.185972
     86          1           0        9.577566    2.534099   -0.846995
     87          1           0        7.340468    4.689840   -2.369215
     88          1           0        9.062016    4.007285   -2.346032
     89          1           0        8.820200    5.643952   -1.767946
     90          1           0       10.160680    4.066730    1.281521
     91          1           0       10.732477    2.403896    0.986935
     92          1           0       10.135427    2.079905    3.172245
     93          1           0        8.477532    2.052699    2.580546
     94          1           0        9.096585    3.529554    3.232310
     95          1           0        9.141579   -2.684210   -1.664566
     96          1           0        9.357615   -3.707156   -0.345319
     97          1           0       10.000357   -2.009068   -0.444518
     98          1           0        3.903651   -4.274953    0.753474
     99          1           0        3.134746   -6.046895   -3.242438
    100          1           0        1.535819   -5.897522   -2.372093
    101          1           0        2.609466   -7.277329   -2.103559
    102          1           0       -2.882280   -5.322396   -0.230335
    103          1           0       -1.922359   -4.144240   -1.203992
    104          1           0       -3.925684   -3.134266    0.788180
    105          1           0       -3.761806   -4.281931   -2.973849
    106          1           0       -5.092327   -3.220404   -3.280678
    107          1           0       -5.332181   -4.860033   -2.448838
    108          1           0       -6.299731   -2.091096   -1.679769
    109          1           0       -5.406649   -1.552912   -0.331055
    110          1           0       -6.550978   -4.099203    0.356997
    111          1           0       -7.763980   -2.918360   -0.044060
    112          1           0       -5.762654   -1.750611    1.803814
    113          1           0       -6.066269   -3.240865    2.424410
    114          1           0       -8.671168   -2.102350    1.924204
    115          1           0       -7.450039   -3.484630    3.967521
    116          1           0       -9.086064   -3.006243    3.843255
    117          1           0       -7.998267   -1.903420    4.715270
    118          1           0       -6.676577   -0.017643    2.624822
    119          1           0       -8.175776    0.039587    3.445761
    120          1           0       -8.710296   -0.499541    0.557594
    121          1           0       -7.619153    0.823026    0.672336
    122          1           0       -9.613869    1.564168    2.530651
    123          1           0      -10.527340    0.611261    1.408912
    124          1           0       -9.335264    2.108837   -0.390431
    125          1           0       -9.432095    4.619414    0.630779
    126          1           0       -7.991155    3.624761    0.360198
    127          1           0       -8.716947    3.754599    2.010818
    128          1           0      -11.517473    3.721002    0.275958
    129          1           0      -11.817729    2.104989    1.081452
    130          1           0      -12.237004    1.082244   -0.730612
    131          1           0      -11.085841    2.005164   -1.759860
    132          1           0      -12.868793    3.149546   -2.603563
    133          1           0      -13.173569    3.834546   -0.997102
    134          1           0      -14.260018    1.165624   -1.072288
    135          1           0      -14.503258    2.449530   -3.739478
    136          1           0      -15.690979    1.310908   -2.984497
    137          1           0      -14.090698    0.758778   -3.344279
    138          1           0      -15.760251    2.260214   -0.097324
    139          1           0      -16.423179    2.858835   -1.626622
    140          1           0      -15.306647    3.880467   -0.731108
 ---------------------------------------------------------------------

 SCF Done:  E(RCAM-B3LYP) =  -3007.16404447     A.U. after   18 cycles

 Excitation energies and oscillator strengths:

 Excited State   1:      Singlet-A      1.7617 eV  703.79 nm  f=0.3722  <S**2>=0.000
     245 -> 248       -0.18348
     246 -> 247        0.68338
     245 <- 248       -0.10529
 This state for optimization and/or second-order correction.
 Total Energy, E(TD-HF/TD-DFT) =  -3007.09930414
 Copying the excited state density for this state as the 1-particle RhoCI density.

 Excited State   2:      Singlet-A      2.2468 eV  551.83 nm  f=0.0921  <S**2>=0.000
     245 -> 247        0.63043
     246 -> 248        0.30556

 Excited State   3:      Singlet-A      3.4566 eV  358.69 nm  f=0.2763  <S**2>=0.000
     240 -> 247       -0.17257
     242 -> 247       -0.38754
     244 -> 247        0.28087
     245 -> 247       -0.17925
     246 -> 248        0.43905

 Excited State   4:      Singlet-A      3.5515 eV  349.11 nm  f=0.3105  <S**2>=0.000
     242 -> 247       -0.17369
     244 -> 247        0.50471
     245 -> 247        0.20085
     246 -> 248       -0.40581

 Excited State   5:      Singlet-A      3.7178 eV  333.49 nm  f=0.2654  <S**2>=0.000
     239 -> 247        0.12335
     239 -> 249        0.11928
     240 -> 247        0.20601
     242 -> 247        0.44213
     244 -> 247        0.36822
     245 -> 247       -0.16996
     246 -> 248        0.19877

 The electronic state is 1-A.
 Alpha  occ. eigenvalues --  -46.87676 -19.26384 -19.23303 -19.20732 -19.19306
 Alpha  occ. eigenvalues --  -19.18801 -19.18075 -14.41779 -14.41326 -14.39280
 Alpha  occ. eigenvalues --  -14.38024 -10.40544 -10.37890 -10.35356 -10.34947
 Alpha  occ. eigenvalues --  -10.32573 -10.30968 -10.30807 -10.30406 -10.30213
 Alpha  occ. eigenvalues --  -10.30130 -10.29782 -10.29700 -10.29547 -10.28068
 Alpha  occ. eigenvalues --  -10.28009 -10.27652 -10.27532 -10.27425 -10.27396
 Alpha  occ. eigenvalues --  -10.27338 -10.27235 -10.27199 -10.27123 -10.27088
 Alpha  occ. eigenvalues --  -10.27034 -10.27005 -10.26812 -10.26754 -10.26511
 Alpha  occ. eigenvalues --  -10.26108 -10.26015 -10.25983 -10.25946 -10.25861
 Alpha  occ. eigenvalues --  -10.25745 -10.25688 -10.25650 -10.25569 -10.25556
 Alpha  occ. eigenvalues --  -10.25433 -10.25401 -10.25260 -10.25249 -10.25183
 Alpha  occ. eigenvalues --  -10.25154 -10.25112 -10.24911 -10.24795 -10.24746
 Alpha  occ. eigenvalues --  -10.24614 -10.24593 -10.24516 -10.24171 -10.24114
 Alpha  occ. eigenvalues --  -10.24088  -3.16293  -1.91200  -1.90752  -1.90592
 Alpha  occ. eigenvalues --   -1.17147  -1.15136  -1.12584  -1.10505  -1.08707
 Alpha  occ. eigenvalues --   -1.05840  -1.04110  -1.03100  -1.02197  -1.00847
 Alpha  occ. eigenvalues --   -0.91585  -0.90782  -0.89842  -0.89716  -0.89148
 Alpha  occ. eigenvalues --   -0.88368  -0.87479  -0.87334  -0.86838  -0.86680
 Alpha  occ. eigenvalues --   -0.86085  -0.85442  -0.84285  -0.83357  -0.83177
 Alpha  occ. eigenvalues --   -0.82393  -0.81508  -0.81068  -0.80485  -0.80131
 Alpha  occ. eigenvalues --   -0.79798  -0.78384  -0.77845  -0.77207  -0.76291
 Alpha  occ. eigenvalues --   -0.76256  -0.75605  -0.75355  -0.74552  -0.74142
 Alpha  occ. eigenvalues --   -0.73177  -0.72059  -0.70999  -0.70200  -0.68933
 Alpha  occ. eigenvalues --   -0.68625  -0.67920  -0.67047  -0.66724  -0.65492
 Alpha  occ. eigenvalues --   -0.65391  -0.64418  -0.64101  -0.63970  -0.63893
 Alpha  occ. eigenvalues --   -0.63430  -0.63233  -0.62878  -0.60610  -0.60538
 Alpha  occ. eigenvalues --   -0.59890  -0.59275  -0.58790  -0.58214  -0.57132
 Alpha  occ. eigenvalues --   -0.56959  -0.56381  -0.56264  -0.55654  -0.55218
 Alpha  occ. eigenvalues --   -0.54890  -0.54560  -0.54002  -0.53916  -0.53614
 Alpha  occ. eigenvalues --   -0.53459  -0.53234  -0.53043  -0.52705  -0.52437
 Alpha  occ. eigenvalues --   -0.52225  -0.52106  -0.52019  -0.51969  -0.51785
 Alpha  occ. eigenvalues --   -0.51567  -0.51368  -0.51264  -0.51000  -0.50433
 Alpha  occ. eigenvalues --   -0.50250  -0.50203  -0.49960  -0.49779  -0.49717
 Alpha  occ. eigenvalues --   -0.49362  -0.49170  -0.49020  -0.48842  -0.48526
 Alpha  occ. eigenvalues --   -0.48408  -0.48368  -0.48104  -0.48075  -0.47828
 Alpha  occ. eigenvalues --   -0.47533  -0.47225  -0.47076  -0.46801  -0.46680
 Alpha  occ. eigenvalues --   -0.46476  -0.46195  -0.46138  -0.45988  -0.45929
 Alpha  occ. eigenvalues --   -0.45693  -0.45326  -0.45293  -0.44844  -0.44692
 Alpha  occ. eigenvalues --   -0.44526  -0.44401  -0.44221  -0.44018  -0.43962
 Alpha  occ. eigenvalues --   -0.43697  -0.43366  -0.43149  -0.43118  -0.43050
 Alpha  occ. eigenvalues --   -0.42970  -0.42654  -0.42598  -0.42054  -0.41993
 Alpha  occ. eigenvalues --   -0.41563  -0.41164  -0.41137  -0.41047  -0.40893
 Alpha  occ. eigenvalues --   -0.40505  -0.40435  -0.40268  -0.40067  -0.39642
 Alpha  occ. eigenvalues --   -0.39344  -0.39242  -0.39021  -0.38952  -0.38644
 Alpha  occ. eigenvalues --   -0.37915  -0.37837  -0.37751  -0.37551  -0.37340
 Alpha  occ. eigenvalues --   -0.37246  -0.37162  -0.36651  -0.36411  -0.36242
 Alpha  occ. eigenvalues --   -0.35602  -0.35473  -0.35359  -0.34592  -0.34331
 Alpha  occ. eigenvalues --   -0.34054  -0.33215  -0.32652  -0.31206  -0.30677
 Alpha  occ. eigenvalues --   -0.30519  -0.29677  -0.29329  -0.29129  -0.23460
 Alpha  occ. eigenvalues --   -0.20531
 Alpha virt. eigenvalues --   -0.07827  -0.01282   0.01040   0.02691   0.03121
 Alpha virt. eigenvalues --    0.03930   0.05094   0.06232   0.07058   0.07285
 Alpha virt. eigenvalues --    0.07988   0.08460   0.08779   0.09181   0.09285

 Mulliken charges:
               1
     1  Mg   0.827898
     2  C   -0.022630
     3  C   -0.096615
     4  C   -0.051481
     5  C   -0.092995
     6  N   -0.258683
     7  C   -0.040011
     8  C   -0.062631
     9  C   -0.038654
    10  C    0.031731
    11  C    0.080837
    12  C    0.074917
    13  C    0.070460
    14  C    0.192833
    15  O   -0.233093
    16  O   -0.323441
    17  N   -0.405286
    18  C    0.162108
    19  C   -0.139108
    20  C   -0.018408
    21  C    0.119670
    22  C    0.096029
    23  C    0.000139
    24  O   -0.165835
    25  C    0.018300
    26  N   -0.325152
    27  C    0.055961
    28  C   -0.081171
    29  C   -0.007598
    30  C    0.051018
    31  C    0.098115
    32  C    0.045007
    33  C    0.015412
    34  N   -0.328175
    35  C    0.094509
    36  C   -0.154623
    37  C   -0.027842
    38  C    0.122760
    39  C    0.121894
    40  C    0.084371
    41  O   -0.134770
    42  C   -0.008880
    43  C    0.182957
    44  O   -0.244491
    45  O   -0.307686
    46  C    0.190650
    47  C    0.282359
    48  C   -0.169794
    49  C   -0.193013
    50  C    0.081795
    51  C    0.058480
    52  C    0.039560
    53  C    0.040927
    54  C   -0.163020
    55  C    0.065974
    56  C    0.088882
    57  C    0.040505
    58  C    0.028081
    59  C   -0.148298
    60  C    0.045837
    61  C    0.032751
    62  C    0.011121
    63  C    0.051367
    64  C   -0.170191
    65  C    0.055902
    66  C    0.071640
    67  H   -0.031561
    68  H   -0.006831
    69  H   -0.046033
    70  H    0.046149
    71  H    0.003915
    72  H    0.003195
    73  H    0.015789
    74  H    0.035788
    75  H    0.006672
    76  H    0.000426
    77  H   -0.002280
    78  H    0.014100
    79  H    0.019673
    80  H    0.041075
    81  H    0.030933
    82  H    0.050625
    83  H    0.016582
    84  H    0.026678
    85  H    0.008298
    86  H   -0.004748
    87  H    0.034761
    88  H    0.008272
    89  H    0.022093
    90  H    0.002185
    91  H    0.004247
    92  H    0.015788
    93  H    0.021132
    94  H    0.012929
    95  H    0.020506
    96  H    0.030452
    97  H    0.004438
    98  H    0.039781
    99  H    0.036512
   100  H    0.036780
   101  H    0.023499
   102  H    0.045050
   103  H    0.037916
   104  H    0.006170
   105  H    0.013674
   106  H    0.022251
   107  H    0.036962
   108  H   -0.016601
   109  H    0.007066
   110  H    0.000974
   111  H    0.006052
   112  H   -0.011198
   113  H   -0.005816
   114  H   -0.002457
   115  H    0.007113
   116  H    0.003902
   117  H    0.008635
   118  H   -0.008488
   119  H   -0.011195
   120  H    0.004153
   121  H   -0.002392
   122  H   -0.001412
   123  H   -0.009971
   124  H   -0.012152
   125  H    0.009036
   126  H    0.011681
   127  H    0.012275
   128  H   -0.010170
   129  H   -0.004476
   130  H   -0.004746
   131  H   -0.002707
   132  H   -0.011689
   133  H   -0.002140
   134  H   -0.007964
   135  H    0.010777
   136  H   -0.003479
   137  H    0.007927
   138  H    0.009296
   139  H   -0.004348
   140  H    0.011486
 Sum of Mulliken charges =  -0.00000

 Dipole moment (field-independent basis, Debye):
    X=             -5.5870    Y=              2.2692    Z=              2.3183  Tot=              6.4605
 Quadrupole moment (field-independent basis, Debye-Ang):
   XX=           -382.7455   YY=           -423.0625   ZZ=           -401.6570
   XY=             24.4205   XZ=              9.7923   YZ=             -4.7673

 Normal termination of Gaussian 16 at Tue May  3 16:43:46 2022.
