 Gaussian 16, Revision A.03,
 Gaussian 16:  ES64L-G16RevA.03 25-Dec-2016

 ---------------------------------
 #p PBE1PBE/Def2SVP td=(nstates=5)
 ---------------------------------

 ------------------------------------------------------
 step_1001_chromophore_24 TDDFT with PBE1PBE functional
 ------------------------------------------------------
 Symbolic Z-matrix:
 Charge =  0 Multiplicity = 1

                         Standard orientation:
 ---------------------------------------------------------------------
 Center     Atomic      Atomic             Coordinates (Angstroms)
 Number     Number       Type             X           Y           Z
 ---------------------------------------------------------------------
      1         12           0        4.901554    1.080492    0.278925
      2          6           0        4.294734   -2.288320    0.082353
      3          6           0        1.444386    1.670251    0.292300
      4          6           0        5.484934    4.302893   -0.181914
      5          6           0        8.325818    0.360319   -0.042524
      6          7           0        3.085301   -0.176549    0.101650
      7          6           0        3.127419   -1.517915    0.283672
      8          6           0        1.719304   -2.087721    0.539693
      9          6           0        0.773408   -0.846097    0.422095
     10          6           0        1.834893    0.317902    0.253780
     11          6           0       -0.241066   -1.003913   -0.692854
     12          6           0        1.553410   -2.734410    1.912541
     13          6           0        0.417218   -3.763164    2.037212
     14          6           0       -0.319441   -4.229357    0.771246
     15          8           0        0.190738   -4.974441   -0.056540
     16          8           0       -1.601796   -3.786939    0.787977
     17          7           0        3.635769    2.744818    0.101572
     18          6           0        2.240588    2.768032    0.107191
     19          6           0        1.763483    4.193238    0.007133
     20          6           0        2.955974    4.952443   -0.224652
     21          6           0        4.105368    4.047328   -0.144052
     22          6           0        0.295724    4.687778    0.203000
     23          6           0        3.068127    6.464544   -0.403034
     24          8           0        4.110787    7.018540   -0.300801
     25          6           0        1.823710    7.362962   -0.648849
     26          7           0        6.663104    2.144248    0.103943
     27          6           0        6.610798    3.475462   -0.181641
     28          6           0        8.071198    4.050547   -0.496547
     29          6           0        8.938854    2.829157   -0.014882
     30          6           0        7.976241    1.691593    0.073736
     31          6           0        8.327114    4.681614   -1.904935
     32          6           0        9.874199    3.015891    1.264360
     33          6           0        9.381121    2.659764    2.640390
     34          7           0        6.123432   -0.571560    0.001698
     35          6           0        7.504847   -0.736830   -0.072746
     36          6           0        7.818587   -2.153420   -0.257108
     37          6           0        6.566958   -2.788508   -0.178327
     38          6           0        5.668724   -1.802087   -0.015096
     39          6           0        9.139149   -2.664636   -0.574400
     40          6           0        5.873259   -4.097452   -0.361930
     41          8           0        6.269041   -5.186682   -0.682356
     42          6           0        4.357968   -3.795449   -0.114433
     43          6           0        3.536950   -4.291079   -1.290055
     44          8           0        3.255915   -3.647183   -2.296056
     45          8           0        3.199018   -5.600905   -1.160411
     46          6           0        2.579443   -6.208875   -2.319112
     47          6           0       -2.482612   -4.310663   -0.283626
     48          6           0       -3.791748   -3.539916   -0.214621
     49          6           0       -4.709440   -3.307775   -1.172687
     50          6           0       -4.725054   -3.964416   -2.573744
     51          6           0       -5.850372   -2.453520   -0.755828
     52          6           0       -6.777389   -3.034135    0.402360
     53          6           0       -6.563357   -2.489968    1.811745
     54          6           0       -7.817595   -1.838484    2.548556
     55          6           0       -8.076453   -2.596895    3.877328
     56          6           0       -7.724746   -0.293720    2.510892
     57          6           0       -8.368962    0.276264    1.243022
     58          6           0       -9.594842    1.163276    1.516576
     59          6           0       -9.786259    2.418239    0.551548
     60          6           0       -8.910366    3.713297    0.938882
     61          6           0      -11.310345    2.650861    0.286348
     62          6           0      -11.891781    2.071434   -1.028340
     63          6           0      -13.092901    2.907419   -1.564736
     64          6           0      -14.434062    2.086102   -1.629360
     65          6           0      -14.652101    1.637435   -3.027763
     66          6           0      -15.540537    2.847640   -0.987976
     67          1           0        0.412159    1.907228    0.556992
     68          1           0        5.693625    5.338668   -0.457066
     69          1           0        9.373604    0.087918   -0.186448
     70          1           0        1.552929   -2.759448   -0.303023
     71          1           0        0.336182   -0.651774    1.401984
     72          1           0       -0.351696   -0.044672   -1.198262
     73          1           0       -1.224801   -1.193730   -0.264484
     74          1           0       -0.016591   -1.779473   -1.426164
     75          1           0        1.374330   -2.044248    2.737685
     76          1           0        2.476332   -3.270641    2.131998
     77          1           0       -0.057606   -3.541595    2.992443
     78          1           0        0.807178   -4.661786    2.513236
     79          1           0       -0.236168    3.983958    0.844392
     80          1           0       -0.270232    4.713775   -0.727707
     81          1           0        0.255425    5.669011    0.675266
     82          1           0        1.330145    7.841025    0.197260
     83          1           0        1.098716    6.788128   -1.226127
     84          1           0        2.148726    8.197742   -1.270271
     85          1           0        8.201539    4.890261    0.185972
     86          1           0        9.577566    2.534099   -0.846995
     87          1           0        7.340468    4.689840   -2.369215
     88          1           0        9.062016    4.007285   -2.346032
     89          1           0        8.820200    5.643952   -1.767946
     90          1           0       10.160680    4.066730    1.281521
     91          1           0       10.732477    2.403896    0.986935
     92          1           0       10.135427    2.079905    3.172245
     93          1           0        8.477532    2.052699    2.580546
     94          1           0        9.096585    3.529554    3.232310
     95          1           0        9.141579   -2.684210   -1.664566
     96          1           0        9.357615   -3.707156   -0.345319
     97          1           0       10.000357   -2.009068   -0.444518
     98          1           0        3.903651   -4.274953    0.753474
     99          1           0        3.134746   -6.046895   -3.242438
    100          1           0        1.535819   -5.897522   -2.372093
    101          1           0        2.609466   -7.277329   -2.103559
    102          1           0       -2.882280   -5.322396   -0.230335
    103          1           0       -1.922359   -4.144240   -1.203992
    104          1           0       -3.925684   -3.134266    0.788180
    105          1           0       -3.761806   -4.281931   -2.973849
    106          1           0       -5.092327   -3.220404   -3.280678
    107          1           0       -5.332181   -4.860033   -2.448838
    108          1           0       -6.299731   -2.091096   -1.679769
    109          1           0       -5.406649   -1.552912   -0.331055
    110          1           0       -6.550978   -4.099203    0.356997
    111          1           0       -7.763980   -2.918360   -0.044060
    112          1           0       -5.762654   -1.750611    1.803814
    113          1           0       -6.066269   -3.240865    2.424410
    114          1           0       -8.671168   -2.102350    1.924204
    115          1           0       -7.450039   -3.484630    3.967521
    116          1           0       -9.086064   -3.006243    3.843255
    117          1           0       -7.998267   -1.903420    4.715270
    118          1           0       -6.676577   -0.017643    2.624822
    119          1           0       -8.175776    0.039587    3.445761
    120          1           0       -8.710296   -0.499541    0.557594
    121          1           0       -7.619153    0.823026    0.672336
    122          1           0       -9.613869    1.564168    2.530651
    123          1           0      -10.527340    0.611261    1.408912
    124          1           0       -9.335264    2.108837   -0.390431
    125          1           0       -9.432095    4.619414    0.630779
    126          1           0       -7.991155    3.624761    0.360198
    127          1           0       -8.716947    3.754599    2.010818
    128          1           0      -11.517473    3.721002    0.275958
    129          1           0      -11.817729    2.104989    1.081452
    130          1           0      -12.237004    1.082244   -0.730612
    131          1           0      -11.085841    2.005164   -1.759860
    132          1           0      -12.868793    3.149546   -2.603563
    133          1           0      -13.173569    3.834546   -0.997102
    134          1           0      -14.260018    1.165624   -1.072288
    135          1           0      -14.503258    2.449530   -3.739478
    136          1           0      -15.690979    1.310908   -2.984497
    137          1           0      -14.090698    0.758778   -3.344279
    138          1           0      -15.760251    2.260214   -0.097324
    139          1           0      -16.423179    2.858835   -1.626622
    140          1           0      -15.306647    3.880467   -0.731108
 ---------------------------------------------------------------------

 SCF Done:  E(RPBE1PBE) =  -3005.35158467     A.U. after   16 cycles

 Excitation energies and oscillator strengths:

 Excited State   1:      Singlet-A      1.8942 eV  654.55 nm  f=0.3610  <S**2>=0.000
     245 -> 248       -0.17960
     246 -> 247        0.68947
     246 <- 247       -0.10123
 This state for optimization and/or second-order correction.
 Total Energy, E(TD-HF/TD-DFT) =  -3005.28197487
 Copying the excited state density for this state as the 1-particle RhoCI density.

 Excited State   2:      Singlet-A      2.2473 eV  551.70 nm  f=0.0907  <S**2>=0.000
     245 -> 247        0.64429
     246 -> 248        0.27702

 Excited State   3:      Singlet-A      3.1552 eV  392.95 nm  f=0.0036  <S**2>=0.000
     242 -> 247       -0.20058
     243 -> 247        0.65417

 Excited State   4:      Singlet-A      3.2521 eV  381.25 nm  f=0.0328  <S**2>=0.000
     240 -> 247        0.31793
     241 -> 247       -0.17404
     242 -> 247        0.44112
     243 -> 247        0.24603
     246 -> 248       -0.27895

 Excited State   5:      Singlet-A      3.2851 eV  377.41 nm  f=0.0420  <S**2>=0.000
     240 -> 247        0.14828
     241 -> 247        0.58387
     241 -> 249       -0.14104
     241 -> 250        0.10253
     242 -> 247        0.23543
     246 -> 248        0.18072

 The electronic state is 1-A.
 Alpha  occ. eigenvalues --  -46.91095 -19.27054 -19.24034 -19.21009 -19.19255
 Alpha  occ. eigenvalues --  -19.19189 -19.18402 -14.41257 -14.40867 -14.38868
 Alpha  occ. eigenvalues --  -14.37823 -10.37587 -10.35002 -10.32270 -10.32268
 Alpha  occ. eigenvalues --  -10.29963 -10.28482 -10.28386 -10.28035 -10.27834
 Alpha  occ. eigenvalues --  -10.27592 -10.27546 -10.27158 -10.26996 -10.26137
 Alpha  occ. eigenvalues --  -10.25332 -10.25282 -10.25267 -10.25211 -10.25137
 Alpha  occ. eigenvalues --  -10.25056 -10.25043 -10.25007 -10.24878 -10.24762
 Alpha  occ. eigenvalues --  -10.24733 -10.24723 -10.24658 -10.24128 -10.24019
 Alpha  occ. eigenvalues --  -10.23711 -10.23700 -10.23676 -10.23430 -10.23385
 Alpha  occ. eigenvalues --  -10.23209 -10.23198 -10.23197 -10.23153 -10.23121
 Alpha  occ. eigenvalues --  -10.23089 -10.22914 -10.22849 -10.22816 -10.22707
 Alpha  occ. eigenvalues --  -10.22545 -10.22542 -10.22495 -10.22283 -10.22193
 Alpha  occ. eigenvalues --  -10.22171 -10.22103 -10.22074 -10.22038 -10.21531
 Alpha  occ. eigenvalues --  -10.21477  -3.13288  -1.86137  -1.85667  -1.85510
 Alpha  occ. eigenvalues --   -1.11951  -1.10004  -1.07122  -1.05437  -1.03568
 Alpha  occ. eigenvalues --   -1.00745  -0.98970  -0.97726  -0.96809  -0.95304
 Alpha  occ. eigenvalues --   -0.86058  -0.84912  -0.83999  -0.83863  -0.83259
 Alpha  occ. eigenvalues --   -0.82688  -0.81791  -0.81431  -0.81245  -0.81087
 Alpha  occ. eigenvalues --   -0.80110  -0.79660  -0.78451  -0.77685  -0.77381
 Alpha  occ. eigenvalues --   -0.76662  -0.75783  -0.75306  -0.74595  -0.74255
 Alpha  occ. eigenvalues --   -0.74037  -0.72556  -0.72131  -0.71551  -0.70476
 Alpha  occ. eigenvalues --   -0.70350  -0.69980  -0.69472  -0.68948  -0.68317
 Alpha  occ. eigenvalues --   -0.67483  -0.66548  -0.65416  -0.64510  -0.63315
 Alpha  occ. eigenvalues --   -0.62861  -0.62325  -0.61405  -0.61041  -0.59876
 Alpha  occ. eigenvalues --   -0.59594  -0.58894  -0.58594  -0.58463  -0.58117
 Alpha  occ. eigenvalues --   -0.58034  -0.57381  -0.57017  -0.55230  -0.55016
 Alpha  occ. eigenvalues --   -0.54349  -0.53880  -0.53434  -0.52800  -0.51629
 Alpha  occ. eigenvalues --   -0.51464  -0.50835  -0.50673  -0.50253  -0.49807
 Alpha  occ. eigenvalues --   -0.49473  -0.49058  -0.48512  -0.48323  -0.48119
 Alpha  occ. eigenvalues --   -0.47894  -0.47738  -0.47603  -0.47172  -0.47064
 Alpha  occ. eigenvalues --   -0.46746  -0.46655  -0.46604  -0.46329  -0.46133
 Alpha  occ. eigenvalues --   -0.46057  -0.45937  -0.45788  -0.45714  -0.44964
 Alpha  occ. eigenvalues --   -0.44794  -0.44751  -0.44572  -0.44295  -0.44269
 Alpha  occ. eigenvalues --   -0.43875  -0.43696  -0.43532  -0.43453  -0.43062
 Alpha  occ. eigenvalues --   -0.42977  -0.42931  -0.42752  -0.42613  -0.42413
 Alpha  occ. eigenvalues --   -0.42192  -0.41909  -0.41651  -0.41357  -0.41304
 Alpha  occ. eigenvalues --   -0.41025  -0.40931  -0.40867  -0.40743  -0.40587
 Alpha  occ. eigenvalues --   -0.40483  -0.40076  -0.40021  -0.39712  -0.39547
 Alpha  occ. eigenvalues --   -0.39285  -0.39173  -0.39022  -0.38794  -0.38579
 Alpha  occ. eigenvalues --   -0.38385  -0.38187  -0.37958  -0.37908  -0.37812
 Alpha  occ. eigenvalues --   -0.37715  -0.37463  -0.37365  -0.36968  -0.36713
 Alpha  occ. eigenvalues --   -0.36343  -0.36018  -0.35927  -0.35827  -0.35701
 Alpha  occ. eigenvalues --   -0.35404  -0.35293  -0.35105  -0.34961  -0.34458
 Alpha  occ. eigenvalues --   -0.34269  -0.34050  -0.33931  -0.33702  -0.33408
 Alpha  occ. eigenvalues --   -0.32881  -0.32781  -0.32642  -0.32574  -0.32179
 Alpha  occ. eigenvalues --   -0.32092  -0.31945  -0.31701  -0.31322  -0.31034
 Alpha  occ. eigenvalues --   -0.30551  -0.30521  -0.30278  -0.29498  -0.29315
 Alpha  occ. eigenvalues --   -0.29288  -0.28778  -0.27526  -0.26245  -0.25844
 Alpha  occ. eigenvalues --   -0.25589  -0.25206  -0.24920  -0.24591  -0.20344
 Alpha  occ. eigenvalues --   -0.18153
 Alpha virt. eigenvalues --   -0.10352  -0.04792  -0.03152  -0.01746  -0.00645
 Alpha virt. eigenvalues --    0.00366   0.00699   0.01701   0.02405   0.03489
 Alpha virt. eigenvalues --    0.04446   0.04919   0.05280   0.05382   0.05917

 Mulliken charges:
               1
     1  Mg   0.978857
     2  C   -0.023736
     3  C   -0.085720
     4  C   -0.048471
     5  C   -0.087547
     6  N   -0.364592
     7  C    0.037598
     8  C   -0.150306
     9  C   -0.106972
    10  C    0.068037
    11  C    0.021626
    12  C    0.022939
    13  C    0.010167
    14  C    0.248057
    15  O   -0.265305
    16  O   -0.354046
    17  N   -0.512016
    18  C    0.175463
    19  C   -0.156705
    20  C   -0.078280
    21  C    0.148265
    22  C    0.034397
    23  C    0.056300
    24  O   -0.203263
    25  C   -0.055536
    26  N   -0.431015
    27  C    0.083163
    28  C   -0.146403
    29  C   -0.079753
    30  C    0.086776
    31  C    0.034299
    32  C   -0.017026
    33  C   -0.058218
    34  N   -0.456299
    35  C    0.116742
    36  C   -0.181261
    37  C   -0.065171
    38  C    0.167147
    39  C    0.071107
    40  C    0.184847
    41  O   -0.180996
    42  C   -0.117024
    43  C    0.269399
    44  O   -0.276964
    45  O   -0.340990
    46  C    0.134707
    47  C    0.245709
    48  C   -0.185806
    49  C   -0.237453
    50  C    0.019405
    51  C   -0.002553
    52  C   -0.026339
    53  C   -0.008926
    54  C   -0.245763
    55  C    0.005462
    56  C    0.031440
    57  C   -0.025106
    58  C   -0.024660
    59  C   -0.225398
    60  C   -0.014730
    61  C   -0.027331
    62  C   -0.049723
    63  C   -0.003337
    64  C   -0.263613
    65  C   -0.006244
    66  C    0.011572
    67  H    0.000260
    68  H    0.024853
    69  H   -0.012298
    70  H    0.090147
    71  H    0.040452
    72  H    0.032331
    73  H    0.045189
    74  H    0.060582
    75  H    0.038380
    76  H    0.034609
    77  H    0.028211
    78  H    0.046021
    79  H    0.045882
    80  H    0.066842
    81  H    0.058465
    82  H    0.074817
    83  H    0.044245
    84  H    0.053603
    85  H    0.046311
    86  H    0.033869
    87  H    0.062915
    88  H    0.035928
    89  H    0.048970
    90  H    0.035947
    91  H    0.036001
    92  H    0.043565
    93  H    0.051818
    94  H    0.041147
    95  H    0.051385
    96  H    0.059000
    97  H    0.031985
    98  H    0.078206
    99  H    0.058594
   100  H    0.060132
   101  H    0.046214
   102  H    0.071350
   103  H    0.062983
   104  H    0.038973
   105  H    0.040349
   106  H    0.048654
   107  H    0.064612
   108  H    0.014987
   109  H    0.041853
   110  H    0.035708
   111  H    0.037228
   112  H    0.019014
   113  H    0.025070
   114  H    0.037172
   115  H    0.033805
   116  H    0.031688
   117  H    0.035786
   118  H    0.024026
   119  H    0.021392
   120  H    0.036648
   121  H    0.030300
   122  H    0.030674
   123  H    0.023470
   124  H    0.026982
   125  H    0.036286
   126  H    0.038566
   127  H    0.038936
   128  H    0.022296
   129  H    0.029549
   130  H    0.027353
   131  H    0.029080
   132  H    0.022227
   133  H    0.028377
   134  H    0.030064
   135  H    0.037832
   136  H    0.025238
   137  H    0.036283
   138  H    0.036902
   139  H    0.022833
   140  H    0.037994
 Sum of Mulliken charges =  -0.00000

 Dipole moment (field-independent basis, Debye):
    X=             -5.1577    Y=              1.7693    Z=              2.3245  Tot=              5.9276
 Quadrupole moment (field-independent basis, Debye-Ang):
   XX=           -373.1429   YY=           -421.3755   ZZ=           -399.0133
   XY=             23.3657   XZ=              9.5606   YZ=             -4.3399

 Normal termination of Gaussian 16 at Tue May  3 17:08:19 2022.
