 Gaussian 16, Revision A.03,
 Gaussian 16:  ES64L-G16RevA.03 25-Dec-2016

 --------------------------------
 #p wB97XD/Def2SVP td=(nstates=5)
 --------------------------------

 -----------------------------------------------------
 step_1001_chromophore_24 TDDFT with wB97XD functional
 -----------------------------------------------------
 Symbolic Z-matrix:
 Charge =  0 Multiplicity = 1

                         Standard orientation:
 ---------------------------------------------------------------------
 Center     Atomic      Atomic             Coordinates (Angstroms)
 Number     Number       Type             X           Y           Z
 ---------------------------------------------------------------------
      1         12           0        4.901554    1.080492    0.278925
      2          6           0        4.294734   -2.288320    0.082353
      3          6           0        1.444386    1.670251    0.292300
      4          6           0        5.484934    4.302893   -0.181914
      5          6           0        8.325818    0.360319   -0.042524
      6          7           0        3.085301   -0.176549    0.101650
      7          6           0        3.127419   -1.517915    0.283672
      8          6           0        1.719304   -2.087721    0.539693
      9          6           0        0.773408   -0.846097    0.422095
     10          6           0        1.834893    0.317902    0.253780
     11          6           0       -0.241066   -1.003913   -0.692854
     12          6           0        1.553410   -2.734410    1.912541
     13          6           0        0.417218   -3.763164    2.037212
     14          6           0       -0.319441   -4.229357    0.771246
     15          8           0        0.190738   -4.974441   -0.056540
     16          8           0       -1.601796   -3.786939    0.787977
     17          7           0        3.635769    2.744818    0.101572
     18          6           0        2.240588    2.768032    0.107191
     19          6           0        1.763483    4.193238    0.007133
     20          6           0        2.955974    4.952443   -0.224652
     21          6           0        4.105368    4.047328   -0.144052
     22          6           0        0.295724    4.687778    0.203000
     23          6           0        3.068127    6.464544   -0.403034
     24          8           0        4.110787    7.018540   -0.300801
     25          6           0        1.823710    7.362962   -0.648849
     26          7           0        6.663104    2.144248    0.103943
     27          6           0        6.610798    3.475462   -0.181641
     28          6           0        8.071198    4.050547   -0.496547
     29          6           0        8.938854    2.829157   -0.014882
     30          6           0        7.976241    1.691593    0.073736
     31          6           0        8.327114    4.681614   -1.904935
     32          6           0        9.874199    3.015891    1.264360
     33          6           0        9.381121    2.659764    2.640390
     34          7           0        6.123432   -0.571560    0.001698
     35          6           0        7.504847   -0.736830   -0.072746
     36          6           0        7.818587   -2.153420   -0.257108
     37          6           0        6.566958   -2.788508   -0.178327
     38          6           0        5.668724   -1.802087   -0.015096
     39          6           0        9.139149   -2.664636   -0.574400
     40          6           0        5.873259   -4.097452   -0.361930
     41          8           0        6.269041   -5.186682   -0.682356
     42          6           0        4.357968   -3.795449   -0.114433
     43          6           0        3.536950   -4.291079   -1.290055
     44          8           0        3.255915   -3.647183   -2.296056
     45          8           0        3.199018   -5.600905   -1.160411
     46          6           0        2.579443   -6.208875   -2.319112
     47          6           0       -2.482612   -4.310663   -0.283626
     48          6           0       -3.791748   -3.539916   -0.214621
     49          6           0       -4.709440   -3.307775   -1.172687
     50          6           0       -4.725054   -3.964416   -2.573744
     51          6           0       -5.850372   -2.453520   -0.755828
     52          6           0       -6.777389   -3.034135    0.402360
     53          6           0       -6.563357   -2.489968    1.811745
     54          6           0       -7.817595   -1.838484    2.548556
     55          6           0       -8.076453   -2.596895    3.877328
     56          6           0       -7.724746   -0.293720    2.510892
     57          6           0       -8.368962    0.276264    1.243022
     58          6           0       -9.594842    1.163276    1.516576
     59          6           0       -9.786259    2.418239    0.551548
     60          6           0       -8.910366    3.713297    0.938882
     61          6           0      -11.310345    2.650861    0.286348
     62          6           0      -11.891781    2.071434   -1.028340
     63          6           0      -13.092901    2.907419   -1.564736
     64          6           0      -14.434062    2.086102   -1.629360
     65          6           0      -14.652101    1.637435   -3.027763
     66          6           0      -15.540537    2.847640   -0.987976
     67          1           0        0.412159    1.907228    0.556992
     68          1           0        5.693625    5.338668   -0.457066
     69          1           0        9.373604    0.087918   -0.186448
     70          1           0        1.552929   -2.759448   -0.303023
     71          1           0        0.336182   -0.651774    1.401984
     72          1           0       -0.351696   -0.044672   -1.198262
     73          1           0       -1.224801   -1.193730   -0.264484
     74          1           0       -0.016591   -1.779473   -1.426164
     75          1           0        1.374330   -2.044248    2.737685
     76          1           0        2.476332   -3.270641    2.131998
     77          1           0       -0.057606   -3.541595    2.992443
     78          1           0        0.807178   -4.661786    2.513236
     79          1           0       -0.236168    3.983958    0.844392
     80          1           0       -0.270232    4.713775   -0.727707
     81          1           0        0.255425    5.669011    0.675266
     82          1           0        1.330145    7.841025    0.197260
     83          1           0        1.098716    6.788128   -1.226127
     84          1           0        2.148726    8.197742   -1.270271
     85          1           0        8.201539    4.890261    0.185972
     86          1           0        9.577566    2.534099   -0.846995
     87          1           0        7.340468    4.689840   -2.369215
     88          1           0        9.062016    4.007285   -2.346032
     89          1           0        8.820200    5.643952   -1.767946
     90          1           0       10.160680    4.066730    1.281521
     91          1           0       10.732477    2.403896    0.986935
     92          1           0       10.135427    2.079905    3.172245
     93          1           0        8.477532    2.052699    2.580546
     94          1           0        9.096585    3.529554    3.232310
     95          1           0        9.141579   -2.684210   -1.664566
     96          1           0        9.357615   -3.707156   -0.345319
     97          1           0       10.000357   -2.009068   -0.444518
     98          1           0        3.903651   -4.274953    0.753474
     99          1           0        3.134746   -6.046895   -3.242438
    100          1           0        1.535819   -5.897522   -2.372093
    101          1           0        2.609466   -7.277329   -2.103559
    102          1           0       -2.882280   -5.322396   -0.230335
    103          1           0       -1.922359   -4.144240   -1.203992
    104          1           0       -3.925684   -3.134266    0.788180
    105          1           0       -3.761806   -4.281931   -2.973849
    106          1           0       -5.092327   -3.220404   -3.280678
    107          1           0       -5.332181   -4.860033   -2.448838
    108          1           0       -6.299731   -2.091096   -1.679769
    109          1           0       -5.406649   -1.552912   -0.331055
    110          1           0       -6.550978   -4.099203    0.356997
    111          1           0       -7.763980   -2.918360   -0.044060
    112          1           0       -5.762654   -1.750611    1.803814
    113          1           0       -6.066269   -3.240865    2.424410
    114          1           0       -8.671168   -2.102350    1.924204
    115          1           0       -7.450039   -3.484630    3.967521
    116          1           0       -9.086064   -3.006243    3.843255
    117          1           0       -7.998267   -1.903420    4.715270
    118          1           0       -6.676577   -0.017643    2.624822
    119          1           0       -8.175776    0.039587    3.445761
    120          1           0       -8.710296   -0.499541    0.557594
    121          1           0       -7.619153    0.823026    0.672336
    122          1           0       -9.613869    1.564168    2.530651
    123          1           0      -10.527340    0.611261    1.408912
    124          1           0       -9.335264    2.108837   -0.390431
    125          1           0       -9.432095    4.619414    0.630779
    126          1           0       -7.991155    3.624761    0.360198
    127          1           0       -8.716947    3.754599    2.010818
    128          1           0      -11.517473    3.721002    0.275958
    129          1           0      -11.817729    2.104989    1.081452
    130          1           0      -12.237004    1.082244   -0.730612
    131          1           0      -11.085841    2.005164   -1.759860
    132          1           0      -12.868793    3.149546   -2.603563
    133          1           0      -13.173569    3.834546   -0.997102
    134          1           0      -14.260018    1.165624   -1.072288
    135          1           0      -14.503258    2.449530   -3.739478
    136          1           0      -15.690979    1.310908   -2.984497
    137          1           0      -14.090698    0.758778   -3.344279
    138          1           0      -15.760251    2.260214   -0.097324
    139          1           0      -16.423179    2.858835   -1.626622
    140          1           0      -15.306647    3.880467   -0.731108
 ---------------------------------------------------------------------

 SCF Done:  E(RwB97XD) =  -3007.86164263     A.U. after   19 cycles

 Excitation energies and oscillator strengths:

 Excited State   1:      Singlet-A      1.7167 eV  722.24 nm  f=0.3705  <S**2>=0.000
     245 -> 248       -0.18764
     246 -> 247        0.68135
     245 <- 248       -0.11343
 This state for optimization and/or second-order correction.
 Total Energy, E(TD-HF/TD-DFT) =  -3007.79855686
 Copying the excited state density for this state as the 1-particle RhoCI density.

 Excited State   2:      Singlet-A      2.1929 eV  565.39 nm  f=0.0898  <S**2>=0.000
     245 -> 247        0.62838
     246 -> 248        0.30707

 Excited State   3:      Singlet-A      3.4590 eV  358.44 nm  f=0.2803  <S**2>=0.000
     240 -> 247       -0.17058
     242 -> 247       -0.41148
     244 -> 247        0.23249
     245 -> 247       -0.17455
     246 -> 248        0.44264

 Excited State   4:      Singlet-A      3.5805 eV  346.28 nm  f=0.3274  <S**2>=0.000
     242 -> 247       -0.21275
     244 -> 247        0.48697
     245 -> 247        0.20573
     246 -> 248       -0.40116

 Excited State   5:      Singlet-A      3.7579 eV  329.93 nm  f=0.1550  <S**2>=0.000
     239 -> 247        0.34185
     239 -> 248       -0.11157
     239 -> 249        0.26026
     239 -> 250        0.15092
     240 -> 247        0.22143
     240 -> 249        0.10914
     242 -> 247        0.26668
     244 -> 247        0.28370
     245 -> 247       -0.12348
     246 -> 248        0.14947

 The electronic state is 1-A.
 Alpha  occ. eigenvalues --  -46.94026 -19.31592 -19.28503 -19.25637 -19.24345
 Alpha  occ. eigenvalues --  -19.23797 -19.23001 -14.46365 -14.45921 -14.43935
 Alpha  occ. eigenvalues --  -14.42588 -10.44352 -10.41729 -10.39355 -10.38920
 Alpha  occ. eigenvalues --  -10.36458 -10.35041 -10.34886 -10.34532 -10.34329
 Alpha  occ. eigenvalues --  -10.34130 -10.34043 -10.33489 -10.33419 -10.32004
 Alpha  occ. eigenvalues --  -10.31997 -10.31822 -10.31555 -10.31469 -10.31371
 Alpha  occ. eigenvalues --  -10.31310 -10.31280 -10.31213 -10.31096 -10.31092
 Alpha  occ. eigenvalues --  -10.31080 -10.30998 -10.30831 -10.30589 -10.30565
 Alpha  occ. eigenvalues --  -10.30014 -10.29992 -10.29956 -10.29910 -10.29811
 Alpha  occ. eigenvalues --  -10.29642 -10.29640 -10.29594 -10.29594 -10.29492
 Alpha  occ. eigenvalues --  -10.29325 -10.29243 -10.29221 -10.29201 -10.29097
 Alpha  occ. eigenvalues --  -10.29034 -10.28949 -10.28831 -10.28659 -10.28626
 Alpha  occ. eigenvalues --  -10.28547 -10.28451 -10.28356 -10.28064 -10.27982
 Alpha  occ. eigenvalues --  -10.27913  -3.20068  -1.93666  -1.93197  -1.93041
 Alpha  occ. eigenvalues --   -1.19305  -1.17294  -1.14836  -1.12706  -1.10876
 Alpha  occ. eigenvalues --   -1.08013  -1.06091  -1.05102  -1.04193  -1.02927
 Alpha  occ. eigenvalues --   -0.93523  -0.92592  -0.91635  -0.91514  -0.90935
 Alpha  occ. eigenvalues --   -0.90287  -0.89377  -0.89118  -0.88741  -0.88570
 Alpha  occ. eigenvalues --   -0.88071  -0.87308  -0.86123  -0.85221  -0.85045
 Alpha  occ. eigenvalues --   -0.84302  -0.83394  -0.82954  -0.82414  -0.81958
 Alpha  occ. eigenvalues --   -0.81743  -0.80370  -0.79723  -0.79105  -0.78148
 Alpha  occ. eigenvalues --   -0.78046  -0.77543  -0.77183  -0.76485  -0.75992
 Alpha  occ. eigenvalues --   -0.75093  -0.74038  -0.72964  -0.72122  -0.70810
 Alpha  occ. eigenvalues --   -0.70514  -0.69913  -0.68977  -0.68696  -0.67450
 Alpha  occ. eigenvalues --   -0.67260  -0.66366  -0.66025  -0.65913  -0.65774
 Alpha  occ. eigenvalues --   -0.65419  -0.65047  -0.64706  -0.62547  -0.62474
 Alpha  occ. eigenvalues --   -0.61939  -0.61211  -0.60761  -0.60166  -0.59090
 Alpha  occ. eigenvalues --   -0.58885  -0.58330  -0.58146  -0.57584  -0.57149
 Alpha  occ. eigenvalues --   -0.56868  -0.56535  -0.55897  -0.55768  -0.55533
 Alpha  occ. eigenvalues --   -0.55323  -0.55121  -0.54934  -0.54577  -0.54377
 Alpha  occ. eigenvalues --   -0.54108  -0.53999  -0.53962  -0.53922  -0.53671
 Alpha  occ. eigenvalues --   -0.53463  -0.53260  -0.53177  -0.52928  -0.52318
 Alpha  occ. eigenvalues --   -0.52161  -0.52127  -0.51858  -0.51662  -0.51603
 Alpha  occ. eigenvalues --   -0.51299  -0.51092  -0.50935  -0.50772  -0.50461
 Alpha  occ. eigenvalues --   -0.50329  -0.50253  -0.49996  -0.49994  -0.49709
 Alpha  occ. eigenvalues --   -0.49434  -0.49125  -0.48931  -0.48793  -0.48570
 Alpha  occ. eigenvalues --   -0.48326  -0.48123  -0.48047  -0.47865  -0.47812
 Alpha  occ. eigenvalues --   -0.47585  -0.47233  -0.47202  -0.46761  -0.46583
 Alpha  occ. eigenvalues --   -0.46422  -0.46292  -0.46122  -0.45976  -0.45899
 Alpha  occ. eigenvalues --   -0.45573  -0.45335  -0.45091  -0.45044  -0.44956
 Alpha  occ. eigenvalues --   -0.44862  -0.44572  -0.44547  -0.43985  -0.43860
 Alpha  occ. eigenvalues --   -0.43435  -0.43042  -0.43008  -0.42912  -0.42769
 Alpha  occ. eigenvalues --   -0.42387  -0.42353  -0.42199  -0.41970  -0.41517
 Alpha  occ. eigenvalues --   -0.41267  -0.41117  -0.40919  -0.40796  -0.40503
 Alpha  occ. eigenvalues --   -0.39882  -0.39706  -0.39645  -0.39477  -0.39200
 Alpha  occ. eigenvalues --   -0.39147  -0.39025  -0.38724  -0.38274  -0.38091
 Alpha  occ. eigenvalues --   -0.37459  -0.37428  -0.37303  -0.36526  -0.36168
 Alpha  occ. eigenvalues --   -0.36053  -0.35432  -0.34577  -0.33214  -0.32882
 Alpha  occ. eigenvalues --   -0.32472  -0.31897  -0.31361  -0.31252  -0.25394
 Alpha  occ. eigenvalues --   -0.22342
 Alpha virt. eigenvalues --   -0.06155   0.00634   0.03090   0.04819   0.06121
 Alpha virt. eigenvalues --    0.06313   0.07384   0.08501   0.09325   0.10007
 Alpha virt. eigenvalues --    0.10804   0.11835   0.12029   0.12101   0.12601

 Mulliken charges:
               1
     1  Mg   0.966983
     2  C   -0.028080
     3  C   -0.107046
     4  C   -0.064925
     5  C   -0.099602
     6  N   -0.329566
     7  C    0.003072
     8  C   -0.107569
     9  C   -0.085653
    10  C    0.055811
    11  C    0.034011
    12  C    0.035810
    13  C    0.018000
    14  C    0.237330
    15  O   -0.261034
    16  O   -0.351118
    17  N   -0.484136
    18  C    0.176779
    19  C   -0.151866
    20  C   -0.065482
    21  C    0.144171
    22  C    0.048343
    23  C    0.049847
    24  O   -0.196992
    25  C   -0.043754
    26  N   -0.398780
    27  C    0.075720
    28  C   -0.126254
    29  C   -0.054268
    30  C    0.070341
    31  C    0.048554
    32  C   -0.003967
    33  C   -0.039432
    34  N   -0.416556
    35  C    0.105243
    36  C   -0.173591
    37  C   -0.066834
    38  C    0.152081
    39  C    0.077977
    40  C    0.164236
    41  O   -0.173174
    42  C   -0.078092
    43  C    0.247028
    44  O   -0.271670
    45  O   -0.338630
    46  C    0.149416
    47  C    0.256391
    48  C   -0.189047
    49  C   -0.224565
    50  C    0.033933
    51  C    0.017494
    52  C   -0.008959
    53  C    0.004530
    54  C   -0.214754
    55  C    0.018951
    56  C    0.046284
    57  C   -0.007016
    58  C   -0.007900
    59  C   -0.200642
    60  C   -0.001124
    61  C   -0.006176
    62  C   -0.032367
    63  C    0.012152
    64  C   -0.231910
    65  C    0.006216
    66  C    0.021720
    67  H   -0.005808
    68  H    0.019524
    69  H   -0.019836
    70  H    0.064733
    71  H    0.029885
    72  H    0.025596
    73  H    0.037519
    74  H    0.057526
    75  H    0.031370
    76  H    0.023862
    77  H    0.024150
    78  H    0.040566
    79  H    0.042409
    80  H    0.064397
    81  H    0.053248
    82  H    0.073046
    83  H    0.037656
    84  H    0.052648
    85  H    0.035327
    86  H    0.021505
    87  H    0.055794
    88  H    0.029817
    89  H    0.044423
    90  H    0.027329
    91  H    0.029034
    92  H    0.038442
    93  H    0.041036
    94  H    0.035128
    95  H    0.043572
    96  H    0.054793
    97  H    0.026080
    98  H    0.069257
    99  H    0.054416
   100  H    0.056145
   101  H    0.042464
   102  H    0.066637
   103  H    0.057315
   104  H    0.031608
   105  H    0.035482
   106  H    0.043191
   107  H    0.058567
   108  H    0.008346
   109  H    0.029597
   110  H    0.025707
   111  H    0.029679
   112  H    0.005983
   113  H    0.017145
   114  H    0.021138
   115  H    0.027640
   116  H    0.026182
   117  H    0.029860
   118  H    0.016194
   119  H    0.011860
   120  H    0.025672
   121  H    0.021875
   122  H    0.020135
   123  H    0.013144
   124  H    0.011431
   125  H    0.030380
   126  H    0.032621
   127  H    0.032935
   128  H    0.011253
   129  H    0.018802
   130  H    0.016312
   131  H    0.021245
   132  H    0.012566
   133  H    0.017932
   134  H    0.017499
   135  H    0.031186
   136  H    0.017684
   137  H    0.031095
   138  H    0.031602
   139  H    0.016898
   140  H    0.032657
 Sum of Mulliken charges =  -0.00000

 Dipole moment (field-independent basis, Debye):
    X=             -5.7595    Y=              2.4205    Z=              2.3248  Tot=              6.6660
 Quadrupole moment (field-independent basis, Debye-Ang):
   XX=           -378.7344   YY=           -418.4747   ZZ=           -398.5338
   XY=             24.9788   XZ=              9.7571   YZ=             -4.7582

 Normal termination of Gaussian 16 at Tue May  3 17:59:32 2022.
