 Gaussian 16, Revision A.03,
 Gaussian 16:  ES64L-G16RevA.03 25-Dec-2016

 --------------------
 #p ZINDO=(nstates=5)
 --------------------

 ------------------------------
 step_1001_chromophore_24 ZINDO
 ------------------------------
 Symbolic Z-matrix:
 Charge =  0 Multiplicity = 1

                         Standard orientation:
 ---------------------------------------------------------------------
 Center     Atomic      Atomic             Coordinates (Angstroms)
 Number     Number       Type             X           Y           Z
 ---------------------------------------------------------------------
      1         12           0        4.901554    1.080492    0.278925
      2          6           0        4.294734   -2.288320    0.082353
      3          6           0        1.444386    1.670251    0.292300
      4          6           0        5.484934    4.302893   -0.181914
      5          6           0        8.325818    0.360319   -0.042524
      6          7           0        3.085301   -0.176549    0.101650
      7          6           0        3.127419   -1.517915    0.283672
      8          6           0        1.719304   -2.087721    0.539693
      9          6           0        0.773408   -0.846097    0.422095
     10          6           0        1.834893    0.317902    0.253780
     11          6           0       -0.241066   -1.003913   -0.692854
     12          6           0        1.553410   -2.734410    1.912541
     13          6           0        0.417218   -3.763164    2.037212
     14          6           0       -0.319441   -4.229357    0.771246
     15          8           0        0.190738   -4.974441   -0.056540
     16          8           0       -1.601796   -3.786939    0.787977
     17          7           0        3.635769    2.744818    0.101572
     18          6           0        2.240588    2.768032    0.107191
     19          6           0        1.763483    4.193238    0.007133
     20          6           0        2.955974    4.952443   -0.224652
     21          6           0        4.105368    4.047328   -0.144052
     22          6           0        0.295724    4.687778    0.203000
     23          6           0        3.068127    6.464544   -0.403034
     24          8           0        4.110787    7.018540   -0.300801
     25          6           0        1.823710    7.362962   -0.648849
     26          7           0        6.663104    2.144248    0.103943
     27          6           0        6.610798    3.475462   -0.181641
     28          6           0        8.071198    4.050547   -0.496547
     29          6           0        8.938854    2.829157   -0.014882
     30          6           0        7.976241    1.691593    0.073736
     31          6           0        8.327114    4.681614   -1.904935
     32          6           0        9.874199    3.015891    1.264360
     33          6           0        9.381121    2.659764    2.640390
     34          7           0        6.123432   -0.571560    0.001698
     35          6           0        7.504847   -0.736830   -0.072746
     36          6           0        7.818587   -2.153420   -0.257108
     37          6           0        6.566958   -2.788508   -0.178327
     38          6           0        5.668724   -1.802087   -0.015096
     39          6           0        9.139149   -2.664636   -0.574400
     40          6           0        5.873259   -4.097452   -0.361930
     41          8           0        6.269041   -5.186682   -0.682356
     42          6           0        4.357968   -3.795449   -0.114433
     43          6           0        3.536950   -4.291079   -1.290055
     44          8           0        3.255915   -3.647183   -2.296056
     45          8           0        3.199018   -5.600905   -1.160411
     46          6           0        2.579443   -6.208875   -2.319112
     47          6           0       -2.482612   -4.310663   -0.283626
     48          6           0       -3.791748   -3.539916   -0.214621
     49          6           0       -4.709440   -3.307775   -1.172687
     50          6           0       -4.725054   -3.964416   -2.573744
     51          6           0       -5.850372   -2.453520   -0.755828
     52          6           0       -6.777389   -3.034135    0.402360
     53          6           0       -6.563357   -2.489968    1.811745
     54          6           0       -7.817595   -1.838484    2.548556
     55          6           0       -8.076453   -2.596895    3.877328
     56          6           0       -7.724746   -0.293720    2.510892
     57          6           0       -8.368962    0.276264    1.243022
     58          6           0       -9.594842    1.163276    1.516576
     59          6           0       -9.786259    2.418239    0.551548
     60          6           0       -8.910366    3.713297    0.938882
     61          6           0      -11.310345    2.650861    0.286348
     62          6           0      -11.891781    2.071434   -1.028340
     63          6           0      -13.092901    2.907419   -1.564736
     64          6           0      -14.434062    2.086102   -1.629360
     65          6           0      -14.652101    1.637435   -3.027763
     66          6           0      -15.540537    2.847640   -0.987976
     67          1           0        0.412159    1.907228    0.556992
     68          1           0        5.693625    5.338668   -0.457066
     69          1           0        9.373604    0.087918   -0.186448
     70          1           0        1.552929   -2.759448   -0.303023
     71          1           0        0.336182   -0.651774    1.401984
     72          1           0       -0.351696   -0.044672   -1.198262
     73          1           0       -1.224801   -1.193730   -0.264484
     74          1           0       -0.016591   -1.779473   -1.426164
     75          1           0        1.374330   -2.044248    2.737685
     76          1           0        2.476332   -3.270641    2.131998
     77          1           0       -0.057606   -3.541595    2.992443
     78          1           0        0.807178   -4.661786    2.513236
     79          1           0       -0.236168    3.983958    0.844392
     80          1           0       -0.270232    4.713775   -0.727707
     81          1           0        0.255425    5.669011    0.675266
     82          1           0        1.330145    7.841025    0.197260
     83          1           0        1.098716    6.788128   -1.226127
     84          1           0        2.148726    8.197742   -1.270271
     85          1           0        8.201539    4.890261    0.185972
     86          1           0        9.577566    2.534099   -0.846995
     87          1           0        7.340468    4.689840   -2.369215
     88          1           0        9.062016    4.007285   -2.346032
     89          1           0        8.820200    5.643952   -1.767946
     90          1           0       10.160680    4.066730    1.281521
     91          1           0       10.732477    2.403896    0.986935
     92          1           0       10.135427    2.079905    3.172245
     93          1           0        8.477532    2.052699    2.580546
     94          1           0        9.096585    3.529554    3.232310
     95          1           0        9.141579   -2.684210   -1.664566
     96          1           0        9.357615   -3.707156   -0.345319
     97          1           0       10.000357   -2.009068   -0.444518
     98          1           0        3.903651   -4.274953    0.753474
     99          1           0        3.134746   -6.046895   -3.242438
    100          1           0        1.535819   -5.897522   -2.372093
    101          1           0        2.609466   -7.277329   -2.103559
    102          1           0       -2.882280   -5.322396   -0.230335
    103          1           0       -1.922359   -4.144240   -1.203992
    104          1           0       -3.925684   -3.134266    0.788180
    105          1           0       -3.761806   -4.281931   -2.973849
    106          1           0       -5.092327   -3.220404   -3.280678
    107          1           0       -5.332181   -4.860033   -2.448838
    108          1           0       -6.299731   -2.091096   -1.679769
    109          1           0       -5.406649   -1.552912   -0.331055
    110          1           0       -6.550978   -4.099203    0.356997
    111          1           0       -7.763980   -2.918360   -0.044060
    112          1           0       -5.762654   -1.750611    1.803814
    113          1           0       -6.066269   -3.240865    2.424410
    114          1           0       -8.671168   -2.102350    1.924204
    115          1           0       -7.450039   -3.484630    3.967521
    116          1           0       -9.086064   -3.006243    3.843255
    117          1           0       -7.998267   -1.903420    4.715270
    118          1           0       -6.676577   -0.017643    2.624822
    119          1           0       -8.175776    0.039587    3.445761
    120          1           0       -8.710296   -0.499541    0.557594
    121          1           0       -7.619153    0.823026    0.672336
    122          1           0       -9.613869    1.564168    2.530651
    123          1           0      -10.527340    0.611261    1.408912
    124          1           0       -9.335264    2.108837   -0.390431
    125          1           0       -9.432095    4.619414    0.630779
    126          1           0       -7.991155    3.624761    0.360198
    127          1           0       -8.716947    3.754599    2.010818
    128          1           0      -11.517473    3.721002    0.275958
    129          1           0      -11.817729    2.104989    1.081452
    130          1           0      -12.237004    1.082244   -0.730612
    131          1           0      -11.085841    2.005164   -1.759860
    132          1           0      -12.868793    3.149546   -2.603563
    133          1           0      -13.173569    3.834546   -0.997102
    134          1           0      -14.260018    1.165624   -1.072288
    135          1           0      -14.503258    2.449530   -3.739478
    136          1           0      -15.690979    1.310908   -2.984497
    137          1           0      -14.090698    0.758778   -3.344279
    138          1           0      -15.760251    2.260214   -0.097324
    139          1           0      -16.423179    2.858835   -1.626622
    140          1           0      -15.306647    3.880467   -0.731108
 ---------------------------------------------------------------------

 SCF Done:  E(RZINDO/S) =  -474.341170968     A.U. after   19 cycles

 Excitation energies and oscillator strengths:

 Excited State   1:      Singlet-A      1.3159 eV  942.22 nm  f=0.5695  <S**2>=0.000
     175 ->178        -0.18537
     176 ->177         0.66525
 This state for optimization and/or second-order correction.
 Total Energy, E(CIS/TDA) =  -474.292813716
 Copying the excited state density for this state as the 1-particle RhoCI density.

 Excited State   2:      Singlet-A      1.9246 eV  644.20 nm  f=0.0232  <S**2>=0.000
     175 ->177         0.53137
     176 ->178         0.43936

 Excited State   3:      Singlet-A      2.9904 eV  414.61 nm  f=0.2932  <S**2>=0.000
     168 ->177        -0.23887
     168 ->179         0.35825
     168 ->181        -0.19510
     168 ->186         0.20485
     171 ->177         0.11016
     175 ->177        -0.21462
     176 ->178         0.27151

 Excited State   4:      Singlet-A      3.0137 eV  411.41 nm  f=0.8954  <S**2>=0.000
     168 ->177         0.14778
     168 ->179        -0.21972
     168 ->181         0.11488
     168 ->186        -0.11956
     175 ->177        -0.36372
     176 ->178         0.45254

 Excited State   5:      Singlet-A      3.1107 eV  398.58 nm  f=0.0854  <S**2>=0.000
     176 ->179         0.60584
     176 ->181         0.18542
     176 ->184         0.10150

 The electronic state is 1-A.
 Alpha  occ. eigenvalues --   -1.84943  -1.79863  -1.78109  -1.72540  -1.72028
 Alpha  occ. eigenvalues --   -1.69111  -1.64227  -1.61854  -1.61161  -1.58103
 Alpha  occ. eigenvalues --   -1.55924  -1.51933  -1.49462  -1.47949  -1.45226
 Alpha  occ. eigenvalues --   -1.43748  -1.41672  -1.39099  -1.38111  -1.37631
 Alpha  occ. eigenvalues --   -1.35616  -1.34346  -1.33072  -1.31640  -1.29282
 Alpha  occ. eigenvalues --   -1.27940  -1.24464  -1.22144  -1.20733  -1.18641
 Alpha  occ. eigenvalues --   -1.17038  -1.16526  -1.15413  -1.14595  -1.13363
 Alpha  occ. eigenvalues --   -1.13228  -1.11361  -1.10294  -1.04691  -1.03061
 Alpha  occ. eigenvalues --   -1.02603  -1.01130  -0.98847  -0.97464  -0.97122
 Alpha  occ. eigenvalues --   -0.96640  -0.95113  -0.92951  -0.92694  -0.92195
 Alpha  occ. eigenvalues --   -0.91366  -0.89616  -0.89137  -0.88803  -0.87509
 Alpha  occ. eigenvalues --   -0.85150  -0.84745  -0.82620  -0.81203  -0.79780
 Alpha  occ. eigenvalues --   -0.78940  -0.77590  -0.76540  -0.75774  -0.75531
 Alpha  occ. eigenvalues --   -0.74873  -0.74481  -0.73594  -0.73222  -0.73151
 Alpha  occ. eigenvalues --   -0.72273  -0.71771  -0.71552  -0.70962  -0.70780
 Alpha  occ. eigenvalues --   -0.70329  -0.69755  -0.69093  -0.68323  -0.68188
 Alpha  occ. eigenvalues --   -0.66900  -0.66504  -0.66200  -0.65223  -0.65118
 Alpha  occ. eigenvalues --   -0.65059  -0.64285  -0.64105  -0.63669  -0.63217
 Alpha  occ. eigenvalues --   -0.63049  -0.62925  -0.62501  -0.61994  -0.61783
 Alpha  occ. eigenvalues --   -0.61378  -0.61038  -0.60908  -0.60717  -0.60516
 Alpha  occ. eigenvalues --   -0.59876  -0.59548  -0.59314  -0.59052  -0.58579
 Alpha  occ. eigenvalues --   -0.58334  -0.58097  -0.57238  -0.56603  -0.56122
 Alpha  occ. eigenvalues --   -0.55927  -0.55093  -0.55012  -0.54711  -0.54535
 Alpha  occ. eigenvalues --   -0.54170  -0.53740  -0.53392  -0.53030  -0.52627
 Alpha  occ. eigenvalues --   -0.52499  -0.51988  -0.51798  -0.51344  -0.51060
 Alpha  occ. eigenvalues --   -0.51013  -0.50587  -0.50205  -0.50177  -0.49928
 Alpha  occ. eigenvalues --   -0.49490  -0.49302  -0.49007  -0.48804  -0.48615
 Alpha  occ. eigenvalues --   -0.48209  -0.48065  -0.47804  -0.47774  -0.47364
 Alpha  occ. eigenvalues --   -0.47193  -0.46880  -0.46409  -0.46359  -0.46277
 Alpha  occ. eigenvalues --   -0.46020  -0.45911  -0.45678  -0.45417  -0.45124
 Alpha  occ. eigenvalues --   -0.45076  -0.44591  -0.44360  -0.44245  -0.44078
 Alpha  occ. eigenvalues --   -0.43522  -0.43365  -0.42730  -0.42361  -0.42166
 Alpha  occ. eigenvalues --   -0.41794  -0.41290  -0.40127  -0.39095  -0.38557
 Alpha  occ. eigenvalues --   -0.37111  -0.36657  -0.35588  -0.34747  -0.34337
 Alpha  occ. eigenvalues --   -0.33530  -0.31771  -0.31518  -0.31278  -0.26027
 Alpha  occ. eigenvalues --   -0.21136
 Alpha virt. eigenvalues --   -0.07580  -0.01596   0.00168   0.01713   0.01959
 Alpha virt. eigenvalues --    0.02960   0.03364   0.04077   0.04841   0.05182
 Alpha virt. eigenvalues --    0.06266   0.07136   0.07955   0.08329   0.08603

 Mulliken charges:
               1
     1  Mg   0.424370
     2  C   -0.055483
     3  C   -0.077138
     4  C   -0.069152
     5  C   -0.050371
     6  N   -0.261224
     7  C    0.095524
     8  C    0.001565
     9  C   -0.000572
    10  C    0.151907
    11  C   -0.044517
    12  C   -0.014566
    13  C   -0.021984
    14  C    0.485812
    15  O   -0.515770
    16  O   -0.263613
    17  N   -0.350966
    18  C    0.132745
    19  C    0.006621
    20  C   -0.029698
    21  C    0.146830
    22  C   -0.037080
    23  C    0.328672
    24  O   -0.492881
    25  C   -0.036260
    26  N   -0.269714
    27  C    0.155362
    28  C   -0.009492
    29  C    0.002069
    30  C    0.096585
    31  C   -0.051728
    32  C   -0.022288
    33  C   -0.049242
    34  N   -0.322971
    35  C    0.059100
    36  C    0.023880
    37  C   -0.064290
    38  C    0.124937
    39  C   -0.040715
    40  C    0.339997
    41  O   -0.505308
    42  C    0.054198
    43  C    0.489124
    44  O   -0.534467
    45  O   -0.256029
    46  C    0.081616
    47  C    0.095892
    48  C   -0.097252
    49  C   -0.012908
    50  C   -0.042946
    51  C   -0.029582
    52  C   -0.025918
    53  C   -0.034250
    54  C   -0.018955
    55  C   -0.057654
    56  C   -0.024547
    57  C   -0.025116
    58  C   -0.036969
    59  C   -0.031071
    60  C   -0.059972
    61  C   -0.039998
    62  C   -0.041797
    63  C   -0.044871
    64  C   -0.004244
    65  C   -0.051532
    66  C   -0.051774
    67  H    0.025237
    68  H    0.034507
    69  H    0.018141
    70  H    0.056003
    71  H    0.028611
    72  H    0.014969
    73  H    0.016357
    74  H    0.039365
    75  H    0.025459
    76  H    0.018415
    77  H    0.038373
    78  H    0.031108
    79  H    0.024135
    80  H    0.035843
    81  H    0.031237
    82  H    0.047738
    83  H    0.020332
    84  H    0.033527
    85  H    0.023659
    86  H    0.019928
    87  H    0.039492
    88  H    0.024999
    89  H    0.028587
    90  H    0.017433
    91  H    0.018940
    92  H    0.019862
    93  H    0.022609
    94  H    0.019507
    95  H    0.027241
    96  H    0.035188
    97  H    0.025635
    98  H    0.055205
    99  H    0.049131
   100  H    0.047261
   101  H    0.022723
   102  H    0.061541
   103  H    0.053101
   104  H    0.029385
   105  H    0.024577
   106  H    0.026688
   107  H    0.035668
   108  H    0.019003
   109  H    0.015620
   110  H    0.018668
   111  H    0.020984
   112  H    0.013742
   113  H    0.018588
   114  H    0.015096
   115  H    0.024462
   116  H    0.013927
   117  H    0.022897
   118  H    0.018772
   119  H    0.016859
   120  H    0.021887
   121  H    0.017641
   122  H    0.017608
   123  H    0.018399
   124  H    0.011537
   125  H    0.020941
   126  H    0.020124
   127  H    0.023617
   128  H    0.020480
   129  H    0.020830
   130  H    0.020059
   131  H    0.022074
   132  H    0.014805
   133  H    0.024464
   134  H    0.016562
   135  H    0.022743
   136  H    0.008084
   137  H    0.018067
   138  H    0.016657
   139  H    0.015788
   140  H    0.023366
 Sum of Mulliken charges =  -0.00000

 Dipole moment (field-independent basis, Debye):
    X=             -8.2541    Y=              4.6235    Z=              3.9277  Tot=             10.2438
 N-N= 4.375168990164D+03 E-N= 0.000000000000D+00  KE=-9.425560275382D+03
 Leave Link  601 at Tue May  3 18:14:04 2022, MaxMem=  6710886400 cpu:               3.2 elap:               0.2
 (Enter /sw/apps/gaussian-16.0/g16/l9999.exe)
 1\1\GINC-BP1-COMPUTE182\SP\RZINDO CIS\STO-3G\C55H74Mg1N4O6\OF15641\03-
 May-2022\0\\#p ZINDO=(nstates=5)\\step_1001_chromophore_24 ZINDO\\0,1\
 Mg,0,-1.129,43.961,25.179\C,0,1.285,43.517,27.573\C,0,-3.595,43.363,27
 .6\C,0,-3.389,43.749,22.774\C,0,1.447,44.245,22.806\N,0,-1.133,43.401,
 27.323\C,0,-0.028,43.532,28.095\C,0,-0.39,43.501,29.592\C,0,-1.937,43.
 263,29.61\C,0,-2.265,43.341,28.062\C,0,-2.309,41.975,30.317\C,0,-0.058
 ,44.792,30.336\C,0,0.12,44.663,31.858\C,0,0.17,43.265,32.495\O,0,1.131

 Normal termination of Gaussian 16 at Tue May  3 18:14:04 2022.
