 Gaussian 16, Revision A.03,
 Gaussian 16:  ES64L-G16RevA.03 25-Dec-2016

 ------------------------------
 #p blyp/Def2SVP td=(nstates=5)
 ------------------------------

 -------------------------------------------------
 step_601_chromophore_3 TDDFT with blyp functional
 -------------------------------------------------
 Symbolic Z-matrix:
 Charge =  0 Multiplicity = 1

                         Standard orientation:
 ---------------------------------------------------------------------
 Center     Atomic      Atomic             Coordinates (Angstroms)
 Number     Number       Type             X           Y           Z
 ---------------------------------------------------------------------
      1         12           0       -5.563153    0.712819   -0.208567
      2          6           0       -4.445133   -2.509422    0.002716
      3          6           0       -2.129149    1.851394    0.413231
      4          6           0       -6.698045    3.894330   -0.011066
      5          6           0       -8.801928   -0.456575    0.099868
      6          7           0       -3.580626   -0.212652    0.162637
      7          6           0       -3.327610   -1.559804   -0.010812
      8          6           0       -1.821963   -1.837050   -0.109419
      9          6           0       -1.166788   -0.530065    0.247291
     10          6           0       -2.362980    0.411241    0.373017
     11          6           0       -0.169336   -0.537195    1.415364
     12          6           0       -1.414981   -2.517602   -1.456044
     13          6           0       -0.150456   -3.409683   -1.510374
     14          6           0        1.008421   -3.165043   -0.435122
     15          8           0        1.170175   -3.743326    0.642286
     16          8           0        1.957545   -2.326976   -0.988869
     17          7           0       -4.610434    2.603147    0.125264
     18          6           0       -3.192273    2.840285    0.293872
     19          6           0       -3.021017    4.258499    0.395152
     20          6           0       -4.251593    4.955805    0.221321
     21          6           0       -5.241809    3.853212    0.040010
     22          6           0       -1.669052    4.882638    0.730322
     23          6           0       -4.570097    6.390940    0.145388
     24          8           0       -5.718482    6.848731    0.037541
     25          6           0       -3.464630    7.457901    0.178662
     26          7           0       -7.471320    1.550516    0.019410
     27          6           0       -7.684594    2.872932    0.097603
     28          6           0       -9.171892    3.236982    0.390633
     29          6           0       -9.814298    1.816150    0.147593
     30          6           0       -8.625883    0.886365    0.120222
     31          6           0       -9.487104    3.885200    1.810576
     32          6           0      -10.810261    1.731657   -1.112887
     33          6           0      -12.225342    1.339118   -0.798863
     34          7           0       -6.458376   -1.066380   -0.094341
     35          6           0       -7.777865   -1.408202    0.115032
     36          6           0       -7.957708   -2.804862    0.177749
     37          6           0       -6.622476   -3.324324    0.066357
     38          6           0       -5.794828   -2.200850    0.046479
     39          6           0       -9.167921   -3.593826    0.454853
     40          6           0       -5.782886   -4.489641    0.164978
     41          8           0       -6.033283   -5.671621    0.323935
     42          6           0       -4.397523   -3.992829   -0.135519
     43          6           0       -3.405789   -4.664442    0.711032
     44          8           0       -3.356438   -4.492618    1.961631
     45          8           0       -2.423230   -5.302792   -0.019837
     46          6           0       -1.336753   -5.831419    0.899677
     47          6           0        3.275259   -2.301813   -0.259374
     48          6           0        4.204914   -2.085086   -1.444784
     49          6           0        5.512181   -2.336969   -1.450035
     50          6           0        6.233872   -2.903995   -0.226963
     51          6           0        6.471573   -2.013992   -2.561691
     52          6           0        6.845448   -0.579718   -2.660912
     53          6           0        8.269247   -0.262590   -3.384445
     54          6           0        9.133365    0.562975   -2.456635
     55          6           0        9.466712   -0.284938   -1.270884
     56          6           0       10.400456    1.146518   -3.084059
     57          6           0       10.985048    2.478912   -2.414725
     58          6           0       12.355115    2.152792   -1.795813
     59          6           0       12.457675    2.734994   -0.354716
     60          6           0       13.088327    4.164836   -0.391470
     61          6           0       13.254982    1.800482    0.559122
     62          6           0       12.248075    1.089914    1.572921
     63          6           0       12.980775   -0.020324    2.254746
     64          6           0       13.014137    0.142487    3.785711
     65          6           0       14.376340   -0.213841    4.259159
     66          6           0       11.947612   -0.790916    4.372292
     67          1           0       -1.079241    2.143733    0.486869
     68          1           0       -7.153756    4.837644    0.296689
     69          1           0       -9.869738   -0.682342    0.142388
     70          1           0       -1.502131   -2.574554    0.627579
     71          1           0       -0.673204   -0.273273   -0.689569
     72          1           0       -0.547454    0.198528    2.125570
     73          1           0        0.806507   -0.174798    1.092895
     74          1           0       -0.075909   -1.512126    1.894357
     75          1           0       -1.360648   -1.766160   -2.244638
     76          1           0       -2.284959   -3.026101   -1.871678
     77          1           0        0.265257   -3.030158   -2.443977
     78          1           0       -0.328122   -4.478482   -1.627623
     79          1           0       -1.192293    5.172861   -0.206020
     80          1           0       -1.161525    4.014595    1.150893
     81          1           0       -1.732416    5.746668    1.390693
     82          1           0       -2.751052    7.239770   -0.616012
     83          1           0       -3.093889    7.551257    1.198846
     84          1           0       -3.915366    8.444442    0.070614
     85          1           0       -9.484532    3.995948   -0.326126
     86          1           0      -10.243790    1.484185    1.093122
     87          1           0      -10.081829    4.799160    1.818165
     88          1           0       -8.515893    4.001584    2.292106
     89          1           0      -10.045927    3.128294    2.361305
     90          1           0      -10.427842    0.936319   -1.752855
     91          1           0      -10.798473    2.630340   -1.730239
     92          1           0      -12.870057    2.020238   -1.354639
     93          1           0      -12.439324    1.210550    0.262557
     94          1           0      -12.451592    0.397343   -1.298231
     95          1           0       -9.984903   -2.878122    0.536783
     96          1           0       -9.114304   -4.198929    1.359053
     97          1           0       -9.305340   -4.208232   -0.435933
     98          1           0       -4.100869   -4.169200   -1.169015
     99          1           0       -0.876076   -4.994753    1.424383
    100          1           0       -0.584884   -6.344271    0.300270
    101          1           0       -1.669847   -6.621883    1.573369
    102          1           0        3.645462   -3.251225    0.128048
    103          1           0        3.515458   -1.552647    0.494476
    104          1           0        3.774442   -1.457333   -2.224951
    105          1           0        5.631919   -3.096285    0.660343
    106          1           0        7.001478   -2.180408    0.047608
    107          1           0        6.641239   -3.908171   -0.343062
    108          1           0        5.857732   -2.221815   -3.437691
    109          1           0        7.315389   -2.702058   -2.606030
    110          1           0        6.646242   -0.034194   -1.738874
    111          1           0        6.213450   -0.148372   -3.438123
    112          1           0        8.152887    0.255340   -4.335572
    113          1           0        8.850079   -1.117077   -3.731744
    114          1           0        8.615008    1.462180   -2.124509
    115          1           0       10.536707   -0.493566   -1.247418
    116          1           0        8.946523   -1.242056   -1.255985
    117          1           0        9.221247    0.133857   -0.294020
    118          1           0       10.160711    1.274045   -4.139811
    119          1           0       11.250926    0.467374   -3.148327
    120          1           0       10.385969    2.981995   -1.656579
    121          1           0       11.225771    3.204141   -3.191164
    122          1           0       13.101224    2.601790   -2.450967
    123          1           0       12.568021    1.084101   -1.784375
    124          1           0       11.447497    2.838804    0.041815
    125          1           0       14.015462    4.130057    0.180791
    126          1           0       12.397830    4.922073   -0.020851
    127          1           0       13.367305    4.471078   -1.399518
    128          1           0       13.901364    2.274964    1.297607
    129          1           0       13.804522    1.046017   -0.003039
    130          1           0       11.387923    0.739141    1.001557
    131          1           0       11.895038    1.798514    2.321158
    132          1           0       13.967390    0.002827    1.792727
    133          1           0       12.618333   -1.002166    1.948590
    134          1           0       12.651297    1.095642    4.167817
    135          1           0       14.629881    0.505493    5.037629
    136          1           0       15.128024   -0.043520    3.488833
    137          1           0       14.498485   -1.217081    4.665869
    138          1           0       11.789367   -0.580743    5.430148
    139          1           0       12.306964   -1.817436    4.306683
    140          1           0       11.008247   -0.680072    3.829450
 ---------------------------------------------------------------------

 SCF Done:  E(RB-LYP) =  -3007.32894667     A.U. after   20 cycles

 Excitation energies and oscillator strengths:

 Excited State   1:      Singlet-A      1.6705 eV  742.22 nm  f=0.0041  <S**2>=0.000
     244 -> 247        0.66951
     245 -> 247       -0.20918
 This state for optimization and/or second-order correction.
 Total Energy, E(TD-HF/TD-DFT) =  -3007.26755846
 Copying the excited state density for this state as the 1-particle RhoCI density.

 Excited State   2:      Singlet-A      1.7841 eV  694.92 nm  f=0.2822  <S**2>=0.000
     245 -> 248       -0.21020
     246 -> 247        0.67867
     246 <- 247       -0.14642

 Excited State   3:      Singlet-A      1.8450 eV  672.01 nm  f=0.0172  <S**2>=0.000
     243 -> 247        0.62702
     244 -> 247        0.11315
     245 -> 247        0.28708

 Excited State   4:      Singlet-A      1.9735 eV  628.24 nm  f=0.0707  <S**2>=0.000
     243 -> 247       -0.31872
     244 -> 247        0.16378
     245 -> 247        0.55179
     246 -> 248        0.23467

 Excited State   5:      Singlet-A      2.3775 eV  521.50 nm  f=0.0007  <S**2>=0.000
     240 -> 247        0.26215
     241 -> 247        0.30563
     242 -> 247        0.57490

 The electronic state is 1-A.
 Alpha  occ. eigenvalues --  -46.26844 -18.84063 -18.82533 -18.78688 -18.75763
 Alpha  occ. eigenvalues --  -18.75073 -18.74778 -14.04060 -14.02836 -14.01501
 Alpha  occ. eigenvalues --  -14.00748 -10.05945 -10.03283  -9.99314  -9.99044
 Alpha  occ. eigenvalues --   -9.98846  -9.97479  -9.97110  -9.96786  -9.96566
 Alpha  occ. eigenvalues --   -9.96467  -9.96205  -9.95407  -9.95311  -9.94863
 Alpha  occ. eigenvalues --   -9.94273  -9.94112  -9.94094  -9.93952  -9.93942
 Alpha  occ. eigenvalues --   -9.93903  -9.93886  -9.93642  -9.93555  -9.93213
 Alpha  occ. eigenvalues --   -9.93193  -9.93111  -9.92908  -9.92814  -9.92749
 Alpha  occ. eigenvalues --   -9.92663  -9.92509  -9.92301  -9.92257  -9.92254
 Alpha  occ. eigenvalues --   -9.92178  -9.92092  -9.92064  -9.92056  -9.91949
 Alpha  occ. eigenvalues --   -9.91742  -9.91736  -9.91577  -9.91529  -9.91498
 Alpha  occ. eigenvalues --   -9.91450  -9.91329  -9.91035  -9.90809  -9.90694
 Alpha  occ. eigenvalues --   -9.90689  -9.90668  -9.90652  -9.90563  -9.90282
 Alpha  occ. eigenvalues --   -9.90124  -2.91598  -1.72014  -1.71481  -1.71314
 Alpha  occ. eigenvalues --   -0.98434  -0.96084  -0.91167  -0.90672  -0.90038
 Alpha  occ. eigenvalues --   -0.87637  -0.87297  -0.86665  -0.85580  -0.82798
 Alpha  occ. eigenvalues --   -0.76620  -0.74666  -0.73589  -0.73399  -0.72968
 Alpha  occ. eigenvalues --   -0.72277  -0.71544  -0.71298  -0.70760  -0.70644
 Alpha  occ. eigenvalues --   -0.69914  -0.69280  -0.68353  -0.67681  -0.67369
 Alpha  occ. eigenvalues --   -0.66467  -0.65952  -0.65187  -0.64599  -0.64337
 Alpha  occ. eigenvalues --   -0.63660  -0.62819  -0.62206  -0.61826  -0.60886
 Alpha  occ. eigenvalues --   -0.60552  -0.60370  -0.59932  -0.59693  -0.58883
 Alpha  occ. eigenvalues --   -0.58525  -0.57684  -0.56926  -0.56196  -0.54374
 Alpha  occ. eigenvalues --   -0.54109  -0.53900  -0.52882  -0.52481  -0.51870
 Alpha  occ. eigenvalues --   -0.51611  -0.51040  -0.51004  -0.50518  -0.50504
 Alpha  occ. eigenvalues --   -0.50042  -0.49791  -0.49052  -0.47837  -0.46678
 Alpha  occ. eigenvalues --   -0.46108  -0.46079  -0.45446  -0.45213  -0.44434
 Alpha  occ. eigenvalues --   -0.43980  -0.43591  -0.43079  -0.42552  -0.42483
 Alpha  occ. eigenvalues --   -0.42081  -0.41775  -0.41502  -0.41224  -0.41055
 Alpha  occ. eigenvalues --   -0.40933  -0.40709  -0.40671  -0.40573  -0.40091
 Alpha  occ. eigenvalues --   -0.39794  -0.39730  -0.39657  -0.39554  -0.39392
 Alpha  occ. eigenvalues --   -0.39206  -0.39008  -0.38864  -0.38733  -0.38441
 Alpha  occ. eigenvalues --   -0.38322  -0.37849  -0.37730  -0.37493  -0.37441
 Alpha  occ. eigenvalues --   -0.37379  -0.36934  -0.36700  -0.36671  -0.36659
 Alpha  occ. eigenvalues --   -0.36412  -0.36323  -0.36054  -0.35961  -0.35626
 Alpha  occ. eigenvalues --   -0.35575  -0.35160  -0.35106  -0.34831  -0.34653
 Alpha  occ. eigenvalues --   -0.34375  -0.34317  -0.34188  -0.34055  -0.34036
 Alpha  occ. eigenvalues --   -0.33758  -0.33691  -0.33447  -0.33408  -0.33184
 Alpha  occ. eigenvalues --   -0.32727  -0.32589  -0.32394  -0.32266  -0.32122
 Alpha  occ. eigenvalues --   -0.31998  -0.31822  -0.31725  -0.31551  -0.31524
 Alpha  occ. eigenvalues --   -0.31365  -0.31285  -0.30815  -0.30720  -0.30379
 Alpha  occ. eigenvalues --   -0.30240  -0.30213  -0.30174  -0.29927  -0.29748
 Alpha  occ. eigenvalues --   -0.29700  -0.29681  -0.29509  -0.29479  -0.29252
 Alpha  occ. eigenvalues --   -0.28847  -0.28666  -0.28505  -0.28486  -0.28276
 Alpha  occ. eigenvalues --   -0.27814  -0.27410  -0.27305  -0.27089  -0.26872
 Alpha  occ. eigenvalues --   -0.26662  -0.26293  -0.26100  -0.25837  -0.25582
 Alpha  occ. eigenvalues --   -0.25082  -0.24667  -0.24455  -0.23892  -0.23691
 Alpha  occ. eigenvalues --   -0.23679  -0.23090  -0.21758  -0.21023  -0.20815
 Alpha  occ. eigenvalues --   -0.20521  -0.20181  -0.18529  -0.17882  -0.17133
 Alpha  occ. eigenvalues --   -0.16014
 Alpha virt. eigenvalues --   -0.11785  -0.07134  -0.06275  -0.04994  -0.04425
 Alpha virt. eigenvalues --   -0.03241  -0.02834  -0.01993  -0.01595  -0.00157
 Alpha virt. eigenvalues --    0.01138   0.01642   0.01904   0.02634   0.02889

 Mulliken charges:
               1
     1  Mg   0.722007
     2  C   -0.020886
     3  C   -0.077019
     4  C   -0.001939
     5  C   -0.122407
     6  N   -0.219476
     7  C   -0.057016
     8  C    0.011205
     9  C    0.008489
    10  C    0.015691
    11  C    0.152227
    12  C    0.099560
    13  C    0.147131
    14  C    0.101122
    15  O   -0.196827
    16  O   -0.276742
    17  N   -0.323979
    18  C    0.161494
    19  C   -0.176882
    20  C    0.098204
    21  C    0.074442
    22  C    0.175736
    23  C   -0.114055
    24  O   -0.180515
    25  C    0.131535
    26  N   -0.194931
    27  C   -0.012398
    28  C   -0.032003
    29  C    0.062148
    30  C   -0.033015
    31  C    0.128031
    32  C    0.102550
    33  C    0.077762
    34  N   -0.285883
    35  C    0.208631
    36  C   -0.192994
    37  C    0.059064
    38  C    0.083939
    39  C    0.196716
    40  C   -0.051065
    41  O   -0.128768
    42  C    0.122423
    43  C    0.105577
    44  O   -0.229782
    45  O   -0.288833
    46  C    0.218061
    47  C    0.308402
    48  C   -0.141522
    49  C   -0.133807
    50  C    0.109594
    51  C    0.171954
    52  C    0.081161
    53  C    0.090459
    54  C   -0.059970
    55  C    0.111060
    56  C    0.096251
    57  C    0.096404
    58  C    0.076428
    59  C   -0.072125
    60  C    0.115261
    61  C    0.075019
    62  C    0.021800
    63  C    0.119330
    64  C   -0.080812
    65  C    0.129861
    66  C    0.089249
    67  H   -0.040787
    68  H   -0.031336
    69  H   -0.067570
    70  H   -0.000992
    71  H   -0.027026
    72  H   -0.013101
    73  H   -0.014343
    74  H    0.017390
    75  H   -0.041183
    76  H   -0.032502
    77  H   -0.010490
    78  H    0.022901
    79  H    0.002462
    80  H   -0.006738
    81  H    0.003440
    82  H    0.010140
    83  H    0.005043
    84  H   -0.020009
    85  H   -0.015496
    86  H   -0.027906
    87  H    0.006522
    88  H    0.002083
    89  H   -0.021522
    90  H   -0.023770
    91  H   -0.013969
    92  H   -0.014366
    93  H    0.002062
    94  H   -0.018872
    95  H   -0.030462
    96  H    0.023049
    97  H    0.009447
    98  H    0.005933
    99  H    0.039637
   100  H    0.000590
   101  H    0.018234
   102  H    0.021368
   103  H    0.024612
   104  H   -0.036614
   105  H   -0.032408
   106  H    0.007376
   107  H   -0.000199
   108  H   -0.032911
   109  H   -0.022826
   110  H   -0.011656
   111  H   -0.025991
   112  H   -0.044338
   113  H   -0.036207
   114  H   -0.038115
   115  H   -0.018102
   116  H   -0.027479
   117  H   -0.011574
   118  H   -0.056198
   119  H   -0.042738
   120  H   -0.022641
   121  H   -0.034649
   122  H   -0.034866
   123  H   -0.026956
   124  H   -0.027932
   125  H   -0.020885
   126  H   -0.015363
   127  H   -0.026905
   128  H   -0.029071
   129  H   -0.017920
   130  H   -0.033839
   131  H   -0.027504
   132  H   -0.043873
   133  H   -0.043548
   134  H   -0.027423
   135  H   -0.030033
   136  H   -0.023859
   137  H   -0.015715
   138  H   -0.022416
   139  H   -0.020423
   140  H   -0.017000
 Sum of Mulliken charges =  -0.00000

 Dipole moment (field-independent basis, Debye):
    X=              4.0885    Y=              2.2023    Z=             -3.4654  Tot=              5.7944
 Quadrupole moment (field-independent basis, Debye-Ang):
   XX=           -374.6669   YY=           -449.7985   ZZ=           -405.9955
   XY=            -12.5177   XZ=              6.8336   YZ=             15.6530

 Normal termination of Gaussian 16 at Sat Apr 30 06:30:22 2022.
