 Gaussian 16, Revision A.03,
 Gaussian 16:  ES64L-G16RevA.03 25-Dec-2016

 -----------------------------------
 #p cam-b3lyp/Def2SVP td=(nstates=5)
 -----------------------------------

 ------------------------------------------------------
 step_601_chromophore_3 TDDFT with cam-b3lyp functional
 ------------------------------------------------------
 Symbolic Z-matrix:
 Charge =  0 Multiplicity = 1

                         Standard orientation:
 ---------------------------------------------------------------------
 Center     Atomic      Atomic             Coordinates (Angstroms)
 Number     Number       Type             X           Y           Z
 ---------------------------------------------------------------------
      1         12           0       -5.563153    0.712819   -0.208567
      2          6           0       -4.445133   -2.509422    0.002716
      3          6           0       -2.129149    1.851394    0.413231
      4          6           0       -6.698045    3.894330   -0.011066
      5          6           0       -8.801928   -0.456575    0.099868
      6          7           0       -3.580626   -0.212652    0.162637
      7          6           0       -3.327610   -1.559804   -0.010812
      8          6           0       -1.821963   -1.837050   -0.109419
      9          6           0       -1.166788   -0.530065    0.247291
     10          6           0       -2.362980    0.411241    0.373017
     11          6           0       -0.169336   -0.537195    1.415364
     12          6           0       -1.414981   -2.517602   -1.456044
     13          6           0       -0.150456   -3.409683   -1.510374
     14          6           0        1.008421   -3.165043   -0.435122
     15          8           0        1.170175   -3.743326    0.642286
     16          8           0        1.957545   -2.326976   -0.988869
     17          7           0       -4.610434    2.603147    0.125264
     18          6           0       -3.192273    2.840285    0.293872
     19          6           0       -3.021017    4.258499    0.395152
     20          6           0       -4.251593    4.955805    0.221321
     21          6           0       -5.241809    3.853212    0.040010
     22          6           0       -1.669052    4.882638    0.730322
     23          6           0       -4.570097    6.390940    0.145388
     24          8           0       -5.718482    6.848731    0.037541
     25          6           0       -3.464630    7.457901    0.178662
     26          7           0       -7.471320    1.550516    0.019410
     27          6           0       -7.684594    2.872932    0.097603
     28          6           0       -9.171892    3.236982    0.390633
     29          6           0       -9.814298    1.816150    0.147593
     30          6           0       -8.625883    0.886365    0.120222
     31          6           0       -9.487104    3.885200    1.810576
     32          6           0      -10.810261    1.731657   -1.112887
     33          6           0      -12.225342    1.339118   -0.798863
     34          7           0       -6.458376   -1.066380   -0.094341
     35          6           0       -7.777865   -1.408202    0.115032
     36          6           0       -7.957708   -2.804862    0.177749
     37          6           0       -6.622476   -3.324324    0.066357
     38          6           0       -5.794828   -2.200850    0.046479
     39          6           0       -9.167921   -3.593826    0.454853
     40          6           0       -5.782886   -4.489641    0.164978
     41          8           0       -6.033283   -5.671621    0.323935
     42          6           0       -4.397523   -3.992829   -0.135519
     43          6           0       -3.405789   -4.664442    0.711032
     44          8           0       -3.356438   -4.492618    1.961631
     45          8           0       -2.423230   -5.302792   -0.019837
     46          6           0       -1.336753   -5.831419    0.899677
     47          6           0        3.275259   -2.301813   -0.259374
     48          6           0        4.204914   -2.085086   -1.444784
     49          6           0        5.512181   -2.336969   -1.450035
     50          6           0        6.233872   -2.903995   -0.226963
     51          6           0        6.471573   -2.013992   -2.561691
     52          6           0        6.845448   -0.579718   -2.660912
     53          6           0        8.269247   -0.262590   -3.384445
     54          6           0        9.133365    0.562975   -2.456635
     55          6           0        9.466712   -0.284938   -1.270884
     56          6           0       10.400456    1.146518   -3.084059
     57          6           0       10.985048    2.478912   -2.414725
     58          6           0       12.355115    2.152792   -1.795813
     59          6           0       12.457675    2.734994   -0.354716
     60          6           0       13.088327    4.164836   -0.391470
     61          6           0       13.254982    1.800482    0.559122
     62          6           0       12.248075    1.089914    1.572921
     63          6           0       12.980775   -0.020324    2.254746
     64          6           0       13.014137    0.142487    3.785711
     65          6           0       14.376340   -0.213841    4.259159
     66          6           0       11.947612   -0.790916    4.372292
     67          1           0       -1.079241    2.143733    0.486869
     68          1           0       -7.153756    4.837644    0.296689
     69          1           0       -9.869738   -0.682342    0.142388
     70          1           0       -1.502131   -2.574554    0.627579
     71          1           0       -0.673204   -0.273273   -0.689569
     72          1           0       -0.547454    0.198528    2.125570
     73          1           0        0.806507   -0.174798    1.092895
     74          1           0       -0.075909   -1.512126    1.894357
     75          1           0       -1.360648   -1.766160   -2.244638
     76          1           0       -2.284959   -3.026101   -1.871678
     77          1           0        0.265257   -3.030158   -2.443977
     78          1           0       -0.328122   -4.478482   -1.627623
     79          1           0       -1.192293    5.172861   -0.206020
     80          1           0       -1.161525    4.014595    1.150893
     81          1           0       -1.732416    5.746668    1.390693
     82          1           0       -2.751052    7.239770   -0.616012
     83          1           0       -3.093889    7.551257    1.198846
     84          1           0       -3.915366    8.444442    0.070614
     85          1           0       -9.484532    3.995948   -0.326126
     86          1           0      -10.243790    1.484185    1.093122
     87          1           0      -10.081829    4.799160    1.818165
     88          1           0       -8.515893    4.001584    2.292106
     89          1           0      -10.045927    3.128294    2.361305
     90          1           0      -10.427842    0.936319   -1.752855
     91          1           0      -10.798473    2.630340   -1.730239
     92          1           0      -12.870057    2.020238   -1.354639
     93          1           0      -12.439324    1.210550    0.262557
     94          1           0      -12.451592    0.397343   -1.298231
     95          1           0       -9.984903   -2.878122    0.536783
     96          1           0       -9.114304   -4.198929    1.359053
     97          1           0       -9.305340   -4.208232   -0.435933
     98          1           0       -4.100869   -4.169200   -1.169015
     99          1           0       -0.876076   -4.994753    1.424383
    100          1           0       -0.584884   -6.344271    0.300270
    101          1           0       -1.669847   -6.621883    1.573369
    102          1           0        3.645462   -3.251225    0.128048
    103          1           0        3.515458   -1.552647    0.494476
    104          1           0        3.774442   -1.457333   -2.224951
    105          1           0        5.631919   -3.096285    0.660343
    106          1           0        7.001478   -2.180408    0.047608
    107          1           0        6.641239   -3.908171   -0.343062
    108          1           0        5.857732   -2.221815   -3.437691
    109          1           0        7.315389   -2.702058   -2.606030
    110          1           0        6.646242   -0.034194   -1.738874
    111          1           0        6.213450   -0.148372   -3.438123
    112          1           0        8.152887    0.255340   -4.335572
    113          1           0        8.850079   -1.117077   -3.731744
    114          1           0        8.615008    1.462180   -2.124509
    115          1           0       10.536707   -0.493566   -1.247418
    116          1           0        8.946523   -1.242056   -1.255985
    117          1           0        9.221247    0.133857   -0.294020
    118          1           0       10.160711    1.274045   -4.139811
    119          1           0       11.250926    0.467374   -3.148327
    120          1           0       10.385969    2.981995   -1.656579
    121          1           0       11.225771    3.204141   -3.191164
    122          1           0       13.101224    2.601790   -2.450967
    123          1           0       12.568021    1.084101   -1.784375
    124          1           0       11.447497    2.838804    0.041815
    125          1           0       14.015462    4.130057    0.180791
    126          1           0       12.397830    4.922073   -0.020851
    127          1           0       13.367305    4.471078   -1.399518
    128          1           0       13.901364    2.274964    1.297607
    129          1           0       13.804522    1.046017   -0.003039
    130          1           0       11.387923    0.739141    1.001557
    131          1           0       11.895038    1.798514    2.321158
    132          1           0       13.967390    0.002827    1.792727
    133          1           0       12.618333   -1.002166    1.948590
    134          1           0       12.651297    1.095642    4.167817
    135          1           0       14.629881    0.505493    5.037629
    136          1           0       15.128024   -0.043520    3.488833
    137          1           0       14.498485   -1.217081    4.665869
    138          1           0       11.789367   -0.580743    5.430148
    139          1           0       12.306964   -1.817436    4.306683
    140          1           0       11.008247   -0.680072    3.829450
 ---------------------------------------------------------------------

 SCF Done:  E(RCAM-B3LYP) =  -3007.12174373     A.U. after   18 cycles

 Excitation energies and oscillator strengths:

 Excited State   1:      Singlet-A      1.6705 eV  742.19 nm  f=0.3713  <S**2>=0.000
     245 -> 248        0.19193
     246 -> 247        0.68308
     245 <- 248        0.11156
 This state for optimization and/or second-order correction.
 Total Energy, E(TD-HF/TD-DFT) =  -3007.06035367
 Copying the excited state density for this state as the 1-particle RhoCI density.

 Excited State   2:      Singlet-A      2.1435 eV  578.42 nm  f=0.1344  <S**2>=0.000
     245 -> 247        0.64749
     246 -> 248       -0.27138

 Excited State   3:      Singlet-A      3.2317 eV  383.65 nm  f=0.0062  <S**2>=0.000
     244 -> 247        0.67633
     246 -> 248        0.12234

 Excited State   4:      Singlet-A      3.3919 eV  365.53 nm  f=0.0010  <S**2>=0.000
     240 -> 249        0.11598
     242 -> 247        0.54427
     242 -> 249        0.28858
     242 -> 251        0.16223
     243 -> 247        0.18392

 Excited State   5:      Singlet-A      3.4049 eV  364.14 nm  f=0.0750  <S**2>=0.000
     240 -> 247       -0.26036
     242 -> 249       -0.10635
     243 -> 247        0.49040
     246 -> 248        0.32787

 The electronic state is 1-A.
 Alpha  occ. eigenvalues --  -46.88344 -19.26935 -19.25518 -19.21659 -19.18807
 Alpha  occ. eigenvalues --  -19.18276 -19.18117 -14.43175 -14.41534 -14.40059
 Alpha  occ. eigenvalues --  -14.39079 -10.41328 -10.38777 -10.34662 -10.34084
 Alpha  occ. eigenvalues --  -10.33164 -10.32054 -10.31783 -10.31290 -10.31039
 Alpha  occ. eigenvalues --  -10.30879 -10.30773 -10.29588 -10.29382 -10.28917
 Alpha  occ. eigenvalues --  -10.28834 -10.28743 -10.28349 -10.28251 -10.28064
 Alpha  occ. eigenvalues --  -10.27991 -10.27827 -10.27627 -10.27446 -10.27404
 Alpha  occ. eigenvalues --  -10.27371 -10.27280 -10.27209 -10.26914 -10.26550
 Alpha  occ. eigenvalues --  -10.26339 -10.26264 -10.26202 -10.26020 -10.25959
 Alpha  occ. eigenvalues --  -10.25916 -10.25892 -10.25789 -10.25738 -10.25733
 Alpha  occ. eigenvalues --  -10.25727 -10.25371 -10.25319 -10.25259 -10.25231
 Alpha  occ. eigenvalues --  -10.25090 -10.25051 -10.24741 -10.24586 -10.24491
 Alpha  occ. eigenvalues --  -10.24341 -10.24290 -10.24279 -10.24265 -10.23842
 Alpha  occ. eigenvalues --  -10.23757  -3.17006  -1.91895  -1.91461  -1.91315
 Alpha  occ. eigenvalues --   -1.16826  -1.14536  -1.09589  -1.08528  -1.08474
 Alpha  occ. eigenvalues --   -1.05331  -1.05128  -1.04266  -1.03302  -1.00379
 Alpha  occ. eigenvalues --   -0.93838  -0.91577  -0.90435  -0.90221  -0.89732
 Alpha  occ. eigenvalues --   -0.88895  -0.88185  -0.87866  -0.87343  -0.87273
 Alpha  occ. eigenvalues --   -0.86466  -0.85687  -0.84696  -0.83800  -0.83527
 Alpha  occ. eigenvalues --   -0.82571  -0.82054  -0.81077  -0.80637  -0.80123
 Alpha  occ. eigenvalues --   -0.79584  -0.78483  -0.77962  -0.77365  -0.76251
 Alpha  occ. eigenvalues --   -0.75960  -0.75760  -0.75206  -0.74982  -0.74121
 Alpha  occ. eigenvalues --   -0.73616  -0.72748  -0.71858  -0.71033  -0.69009
 Alpha  occ. eigenvalues --   -0.68645  -0.68451  -0.67383  -0.66843  -0.65927
 Alpha  occ. eigenvalues --   -0.65697  -0.65276  -0.64938  -0.64686  -0.64614
 Alpha  occ. eigenvalues --   -0.63990  -0.63807  -0.62982  -0.61594  -0.60338
 Alpha  occ. eigenvalues --   -0.59647  -0.59482  -0.59025  -0.58542  -0.57999
 Alpha  occ. eigenvalues --   -0.57361  -0.56811  -0.56385  -0.55735  -0.55551
 Alpha  occ. eigenvalues --   -0.55327  -0.54663  -0.54619  -0.54210  -0.53788
 Alpha  occ. eigenvalues --   -0.53737  -0.53548  -0.53430  -0.53271  -0.52748
 Alpha  occ. eigenvalues --   -0.52500  -0.52420  -0.52364  -0.52176  -0.52072
 Alpha  occ. eigenvalues --   -0.51876  -0.51601  -0.51388  -0.51265  -0.50906
 Alpha  occ. eigenvalues --   -0.50833  -0.50076  -0.49955  -0.49812  -0.49792
 Alpha  occ. eigenvalues --   -0.49526  -0.49354  -0.49247  -0.48810  -0.48697
 Alpha  occ. eigenvalues --   -0.48670  -0.48501  -0.48386  -0.47925  -0.47901
 Alpha  occ. eigenvalues --   -0.47694  -0.47552  -0.47080  -0.46993  -0.46687
 Alpha  occ. eigenvalues --   -0.46582  -0.46308  -0.46127  -0.46067  -0.45885
 Alpha  occ. eigenvalues --   -0.45577  -0.45405  -0.45269  -0.45049  -0.44874
 Alpha  occ. eigenvalues --   -0.44573  -0.44293  -0.44155  -0.43877  -0.43718
 Alpha  occ. eigenvalues --   -0.43678  -0.43413  -0.43290  -0.43128  -0.42898
 Alpha  occ. eigenvalues --   -0.42755  -0.42698  -0.42151  -0.42083  -0.42023
 Alpha  occ. eigenvalues --   -0.41796  -0.41715  -0.41611  -0.41409  -0.41279
 Alpha  occ. eigenvalues --   -0.41103  -0.40878  -0.40731  -0.40587  -0.40492
 Alpha  occ. eigenvalues --   -0.39911  -0.39864  -0.39546  -0.39498  -0.39263
 Alpha  occ. eigenvalues --   -0.38680  -0.38499  -0.38307  -0.38017  -0.37936
 Alpha  occ. eigenvalues --   -0.37863  -0.37015  -0.36877  -0.36489  -0.36278
 Alpha  occ. eigenvalues --   -0.36124  -0.35755  -0.35058  -0.34871  -0.34767
 Alpha  occ. eigenvalues --   -0.34094  -0.33487  -0.32857  -0.31089  -0.30722
 Alpha  occ. eigenvalues --   -0.30706  -0.30292  -0.29822  -0.29478  -0.23828
 Alpha  occ. eigenvalues --   -0.21392
 Alpha virt. eigenvalues --   -0.09038  -0.02059   0.00108   0.02122   0.02608
 Alpha virt. eigenvalues --    0.02833   0.04665   0.05185   0.05857   0.06803
 Alpha virt. eigenvalues --    0.07792   0.07934   0.08595   0.09072   0.09266

 Mulliken charges:
               1
     1  Mg   0.853506
     2  C   -0.038540
     3  C   -0.085941
     4  C   -0.022236
     5  C   -0.124269
     6  N   -0.284507
     7  C   -0.016171
     8  C   -0.034751
     9  C   -0.051154
    10  C    0.037347
    11  C    0.088497
    12  C    0.053914
    13  C    0.079467
    14  C    0.174839
    15  O   -0.239028
    16  O   -0.341968
    17  N   -0.405675
    18  C    0.163340
    19  C   -0.176362
    20  C    0.018212
    21  C    0.107368
    22  C    0.120206
    23  C   -0.034470
    24  O   -0.220689
    25  C    0.051149
    26  N   -0.273100
    27  C    0.013109
    28  C   -0.081510
    29  C   -0.001154
    30  C   -0.009337
    31  C    0.071112
    32  C    0.045926
    33  C    0.011568
    34  N   -0.376552
    35  C    0.203165
    36  C   -0.189559
    37  C   -0.011436
    38  C    0.111230
    39  C    0.145996
    40  C    0.050927
    41  O   -0.167609
    42  C    0.033001
    43  C    0.195369
    44  O   -0.266240
    45  O   -0.352018
    46  C    0.176788
    47  C    0.276518
    48  C   -0.151208
    49  C   -0.161683
    50  C    0.049773
    51  C    0.109214
    52  C    0.019603
    53  C    0.042597
    54  C   -0.117383
    55  C    0.054526
    56  C    0.044868
    57  C    0.040416
    58  C    0.026331
    59  C   -0.131732
    60  C    0.059134
    61  C    0.023883
    62  C   -0.021383
    63  C    0.058186
    64  C   -0.144232
    65  C    0.066206
    66  C    0.035238
    67  H   -0.004666
    68  H    0.003604
    69  H   -0.033404
    70  H    0.028248
    71  H    0.010108
    72  H    0.014258
    73  H    0.010002
    74  H    0.042942
    75  H   -0.009368
    76  H   -0.000840
    77  H    0.025626
    78  H    0.052600
    79  H    0.030416
    80  H    0.019036
    81  H    0.029966
    82  H    0.036889
    83  H    0.033143
    84  H    0.017539
    85  H    0.019131
    86  H    0.006899
    87  H    0.030785
    88  H    0.026478
    89  H    0.002919
    90  H    0.007194
    91  H    0.014137
    92  H    0.010747
    93  H    0.024689
    94  H    0.005298
    95  H   -0.005894
    96  H    0.048511
    97  H    0.034788
    98  H    0.049638
    99  H    0.063119
   100  H    0.024432
   101  H    0.043560
   102  H    0.049118
   103  H    0.048860
   104  H   -0.002061
   105  H   -0.007077
   106  H    0.027775
   107  H    0.025399
   108  H   -0.000351
   109  H    0.006640
   110  H    0.016303
   111  H    0.003973
   112  H   -0.014193
   113  H   -0.007738
   114  H   -0.006616
   115  H    0.004088
   116  H   -0.005814
   117  H    0.011023
   118  H   -0.025004
   119  H   -0.014098
   120  H    0.003546
   121  H   -0.004008
   122  H   -0.005532
   123  H   -0.001701
   124  H    0.002675
   125  H    0.003835
   126  H    0.008552
   127  H   -0.003053
   128  H   -0.000605
   129  H    0.008459
   130  H   -0.010408
   131  H   -0.000426
   132  H   -0.013966
   133  H   -0.012393
   134  H    0.003447
   135  H   -0.004015
   136  H    0.001537
   137  H    0.009118
   138  H    0.002961
   139  H    0.002074
   140  H    0.006515
 Sum of Mulliken charges =  -0.00000

 Dipole moment (field-independent basis, Debye):
    X=              4.6291    Y=              2.8519    Z=             -3.5531  Tot=              6.4951
 Quadrupole moment (field-independent basis, Debye-Ang):
   XX=           -376.4478   YY=           -445.5875   ZZ=           -406.0067
   XY=            -14.4126   XZ=              7.3055   YZ=             16.5834

 Normal termination of Gaussian 16 at Sat Apr 30 05:37:17 2022.
