 Gaussian 16, Revision A.03,
 Gaussian 16:  ES64L-G16RevA.03 25-Dec-2016

 ---------------------------------
 #p PBE1PBE/Def2SVP td=(nstates=5)
 ---------------------------------

 ----------------------------------------------------
 step_601_chromophore_3 TDDFT with PBE1PBE functional
 ----------------------------------------------------
 Symbolic Z-matrix:
 Charge =  0 Multiplicity = 1

                         Standard orientation:
 ---------------------------------------------------------------------
 Center     Atomic      Atomic             Coordinates (Angstroms)
 Number     Number       Type             X           Y           Z
 ---------------------------------------------------------------------
      1         12           0       -5.563153    0.712819   -0.208567
      2          6           0       -4.445133   -2.509422    0.002716
      3          6           0       -2.129149    1.851394    0.413231
      4          6           0       -6.698045    3.894330   -0.011066
      5          6           0       -8.801928   -0.456575    0.099868
      6          7           0       -3.580626   -0.212652    0.162637
      7          6           0       -3.327610   -1.559804   -0.010812
      8          6           0       -1.821963   -1.837050   -0.109419
      9          6           0       -1.166788   -0.530065    0.247291
     10          6           0       -2.362980    0.411241    0.373017
     11          6           0       -0.169336   -0.537195    1.415364
     12          6           0       -1.414981   -2.517602   -1.456044
     13          6           0       -0.150456   -3.409683   -1.510374
     14          6           0        1.008421   -3.165043   -0.435122
     15          8           0        1.170175   -3.743326    0.642286
     16          8           0        1.957545   -2.326976   -0.988869
     17          7           0       -4.610434    2.603147    0.125264
     18          6           0       -3.192273    2.840285    0.293872
     19          6           0       -3.021017    4.258499    0.395152
     20          6           0       -4.251593    4.955805    0.221321
     21          6           0       -5.241809    3.853212    0.040010
     22          6           0       -1.669052    4.882638    0.730322
     23          6           0       -4.570097    6.390940    0.145388
     24          8           0       -5.718482    6.848731    0.037541
     25          6           0       -3.464630    7.457901    0.178662
     26          7           0       -7.471320    1.550516    0.019410
     27          6           0       -7.684594    2.872932    0.097603
     28          6           0       -9.171892    3.236982    0.390633
     29          6           0       -9.814298    1.816150    0.147593
     30          6           0       -8.625883    0.886365    0.120222
     31          6           0       -9.487104    3.885200    1.810576
     32          6           0      -10.810261    1.731657   -1.112887
     33          6           0      -12.225342    1.339118   -0.798863
     34          7           0       -6.458376   -1.066380   -0.094341
     35          6           0       -7.777865   -1.408202    0.115032
     36          6           0       -7.957708   -2.804862    0.177749
     37          6           0       -6.622476   -3.324324    0.066357
     38          6           0       -5.794828   -2.200850    0.046479
     39          6           0       -9.167921   -3.593826    0.454853
     40          6           0       -5.782886   -4.489641    0.164978
     41          8           0       -6.033283   -5.671621    0.323935
     42          6           0       -4.397523   -3.992829   -0.135519
     43          6           0       -3.405789   -4.664442    0.711032
     44          8           0       -3.356438   -4.492618    1.961631
     45          8           0       -2.423230   -5.302792   -0.019837
     46          6           0       -1.336753   -5.831419    0.899677
     47          6           0        3.275259   -2.301813   -0.259374
     48          6           0        4.204914   -2.085086   -1.444784
     49          6           0        5.512181   -2.336969   -1.450035
     50          6           0        6.233872   -2.903995   -0.226963
     51          6           0        6.471573   -2.013992   -2.561691
     52          6           0        6.845448   -0.579718   -2.660912
     53          6           0        8.269247   -0.262590   -3.384445
     54          6           0        9.133365    0.562975   -2.456635
     55          6           0        9.466712   -0.284938   -1.270884
     56          6           0       10.400456    1.146518   -3.084059
     57          6           0       10.985048    2.478912   -2.414725
     58          6           0       12.355115    2.152792   -1.795813
     59          6           0       12.457675    2.734994   -0.354716
     60          6           0       13.088327    4.164836   -0.391470
     61          6           0       13.254982    1.800482    0.559122
     62          6           0       12.248075    1.089914    1.572921
     63          6           0       12.980775   -0.020324    2.254746
     64          6           0       13.014137    0.142487    3.785711
     65          6           0       14.376340   -0.213841    4.259159
     66          6           0       11.947612   -0.790916    4.372292
     67          1           0       -1.079241    2.143733    0.486869
     68          1           0       -7.153756    4.837644    0.296689
     69          1           0       -9.869738   -0.682342    0.142388
     70          1           0       -1.502131   -2.574554    0.627579
     71          1           0       -0.673204   -0.273273   -0.689569
     72          1           0       -0.547454    0.198528    2.125570
     73          1           0        0.806507   -0.174798    1.092895
     74          1           0       -0.075909   -1.512126    1.894357
     75          1           0       -1.360648   -1.766160   -2.244638
     76          1           0       -2.284959   -3.026101   -1.871678
     77          1           0        0.265257   -3.030158   -2.443977
     78          1           0       -0.328122   -4.478482   -1.627623
     79          1           0       -1.192293    5.172861   -0.206020
     80          1           0       -1.161525    4.014595    1.150893
     81          1           0       -1.732416    5.746668    1.390693
     82          1           0       -2.751052    7.239770   -0.616012
     83          1           0       -3.093889    7.551257    1.198846
     84          1           0       -3.915366    8.444442    0.070614
     85          1           0       -9.484532    3.995948   -0.326126
     86          1           0      -10.243790    1.484185    1.093122
     87          1           0      -10.081829    4.799160    1.818165
     88          1           0       -8.515893    4.001584    2.292106
     89          1           0      -10.045927    3.128294    2.361305
     90          1           0      -10.427842    0.936319   -1.752855
     91          1           0      -10.798473    2.630340   -1.730239
     92          1           0      -12.870057    2.020238   -1.354639
     93          1           0      -12.439324    1.210550    0.262557
     94          1           0      -12.451592    0.397343   -1.298231
     95          1           0       -9.984903   -2.878122    0.536783
     96          1           0       -9.114304   -4.198929    1.359053
     97          1           0       -9.305340   -4.208232   -0.435933
     98          1           0       -4.100869   -4.169200   -1.169015
     99          1           0       -0.876076   -4.994753    1.424383
    100          1           0       -0.584884   -6.344271    0.300270
    101          1           0       -1.669847   -6.621883    1.573369
    102          1           0        3.645462   -3.251225    0.128048
    103          1           0        3.515458   -1.552647    0.494476
    104          1           0        3.774442   -1.457333   -2.224951
    105          1           0        5.631919   -3.096285    0.660343
    106          1           0        7.001478   -2.180408    0.047608
    107          1           0        6.641239   -3.908171   -0.343062
    108          1           0        5.857732   -2.221815   -3.437691
    109          1           0        7.315389   -2.702058   -2.606030
    110          1           0        6.646242   -0.034194   -1.738874
    111          1           0        6.213450   -0.148372   -3.438123
    112          1           0        8.152887    0.255340   -4.335572
    113          1           0        8.850079   -1.117077   -3.731744
    114          1           0        8.615008    1.462180   -2.124509
    115          1           0       10.536707   -0.493566   -1.247418
    116          1           0        8.946523   -1.242056   -1.255985
    117          1           0        9.221247    0.133857   -0.294020
    118          1           0       10.160711    1.274045   -4.139811
    119          1           0       11.250926    0.467374   -3.148327
    120          1           0       10.385969    2.981995   -1.656579
    121          1           0       11.225771    3.204141   -3.191164
    122          1           0       13.101224    2.601790   -2.450967
    123          1           0       12.568021    1.084101   -1.784375
    124          1           0       11.447497    2.838804    0.041815
    125          1           0       14.015462    4.130057    0.180791
    126          1           0       12.397830    4.922073   -0.020851
    127          1           0       13.367305    4.471078   -1.399518
    128          1           0       13.901364    2.274964    1.297607
    129          1           0       13.804522    1.046017   -0.003039
    130          1           0       11.387923    0.739141    1.001557
    131          1           0       11.895038    1.798514    2.321158
    132          1           0       13.967390    0.002827    1.792727
    133          1           0       12.618333   -1.002166    1.948590
    134          1           0       12.651297    1.095642    4.167817
    135          1           0       14.629881    0.505493    5.037629
    136          1           0       15.128024   -0.043520    3.488833
    137          1           0       14.498485   -1.217081    4.665869
    138          1           0       11.789367   -0.580743    5.430148
    139          1           0       12.306964   -1.817436    4.306683
    140          1           0       11.008247   -0.680072    3.829450
 ---------------------------------------------------------------------

 SCF Done:  E(RPBE1PBE) =  -3005.31128802     A.U. after   15 cycles

 Excitation energies and oscillator strengths:

 Excited State   1:      Singlet-A      1.8283 eV  678.12 nm  f=0.3561  <S**2>=0.000
     245 -> 248       -0.18736
     246 -> 247        0.68977
     246 <- 247       -0.10528
 This state for optimization and/or second-order correction.
 Total Energy, E(TD-HF/TD-DFT) =  -3005.24409756
 Copying the excited state density for this state as the 1-particle RhoCI density.

 Excited State   2:      Singlet-A      2.1518 eV  576.19 nm  f=0.1254  <S**2>=0.000
     245 -> 247        0.65689
     246 -> 248        0.24974

 Excited State   3:      Singlet-A      2.8152 eV  440.41 nm  f=0.0000  <S**2>=0.000
     243 -> 247        0.13707
     244 -> 247        0.66222
     244 -> 249       -0.16038

 Excited State   4:      Singlet-A      2.8951 eV  428.25 nm  f=0.0017  <S**2>=0.000
     241 -> 247       -0.16408
     242 -> 247        0.23182
     243 -> 247        0.61767
     244 -> 247       -0.12146

 Excited State   5:      Singlet-A      2.9966 eV  413.75 nm  f=0.0026  <S**2>=0.000
     241 -> 247       -0.39188
     242 -> 247        0.46983
     243 -> 247       -0.28938
     246 -> 248        0.12298

 The electronic state is 1-A.
 Alpha  occ. eigenvalues --  -46.91774 -19.27668 -19.26169 -19.21954 -19.19096
 Alpha  occ. eigenvalues --  -19.18539 -19.18260 -14.42612 -14.41088 -14.39755
 Alpha  occ. eigenvalues --  -14.38772 -10.38435 -10.35832 -10.31700 -10.31234
 Alpha  occ. eigenvalues --  -10.30614 -10.29895 -10.29477 -10.28895 -10.28696
 Alpha  occ. eigenvalues --  -10.28415 -10.28145 -10.27354 -10.27177 -10.26443
 Alpha  occ. eigenvalues --  -10.26324 -10.26305 -10.26099 -10.25972 -10.25792
 Alpha  occ. eigenvalues --  -10.25723 -10.25681 -10.25368 -10.25323 -10.25247
 Alpha  occ. eigenvalues --  -10.24973 -10.24964 -10.24840 -10.24225 -10.24225
 Alpha  occ. eigenvalues --  -10.24017 -10.23795 -10.23757 -10.23638 -10.23463
 Alpha  occ. eigenvalues --  -10.23460 -10.23452 -10.23391 -10.23274 -10.23237
 Alpha  occ. eigenvalues --  -10.23042 -10.23035 -10.22925 -10.22801 -10.22745
 Alpha  occ. eigenvalues --  -10.22708 -10.22650 -10.22391 -10.22341 -10.22079
 Alpha  occ. eigenvalues --  -10.21887 -10.21670 -10.21662 -10.21645 -10.21325
 Alpha  occ. eigenvalues --  -10.21212  -3.14010  -1.86841  -1.86385  -1.86243
 Alpha  occ. eigenvalues --   -1.11645  -1.09292  -1.04362  -1.03359  -1.03164
 Alpha  occ. eigenvalues --   -1.00079  -0.99916  -0.98958  -0.97881  -0.94922
 Alpha  occ. eigenvalues --   -0.88253  -0.85725  -0.84582  -0.84416  -0.83871
 Alpha  occ. eigenvalues --   -0.83256  -0.82315  -0.82164  -0.81676  -0.81552
 Alpha  occ. eigenvalues --   -0.80724  -0.79911  -0.78898  -0.78098  -0.77701
 Alpha  occ. eigenvalues --   -0.76882  -0.76321  -0.75278  -0.74856  -0.74307
 Alpha  occ. eigenvalues --   -0.73844  -0.72783  -0.72183  -0.71667  -0.70398
 Alpha  occ. eigenvalues --   -0.70272  -0.69846  -0.69559  -0.69127  -0.68291
 Alpha  occ. eigenvalues --   -0.67914  -0.67199  -0.66231  -0.65421  -0.63479
 Alpha  occ. eigenvalues --   -0.62987  -0.62711  -0.61821  -0.61080  -0.60389
 Alpha  occ. eigenvalues --   -0.60213  -0.59481  -0.59429  -0.59142  -0.58729
 Alpha  occ. eigenvalues --   -0.58572  -0.57970  -0.57173  -0.56185  -0.54850
 Alpha  occ. eigenvalues --   -0.54263  -0.53952  -0.53540  -0.53232  -0.52432
 Alpha  occ. eigenvalues --   -0.51928  -0.51297  -0.50861  -0.50244  -0.50109
 Alpha  occ. eigenvalues --   -0.49902  -0.49186  -0.49152  -0.48731  -0.48264
 Alpha  occ. eigenvalues --   -0.48131  -0.48107  -0.47910  -0.47737  -0.47327
 Alpha  occ. eigenvalues --   -0.47063  -0.46885  -0.46738  -0.46684  -0.46614
 Alpha  occ. eigenvalues --   -0.46417  -0.46157  -0.46075  -0.45825  -0.45532
 Alpha  occ. eigenvalues --   -0.45445  -0.44689  -0.44587  -0.44388  -0.44278
 Alpha  occ. eigenvalues --   -0.44106  -0.44003  -0.43885  -0.43369  -0.43273
 Alpha  occ. eigenvalues --   -0.43262  -0.43073  -0.43051  -0.42587  -0.42546
 Alpha  occ. eigenvalues --   -0.42377  -0.42203  -0.41758  -0.41676  -0.41383
 Alpha  occ. eigenvalues --   -0.41360  -0.40936  -0.40846  -0.40688  -0.40638
 Alpha  occ. eigenvalues --   -0.40349  -0.40099  -0.39979  -0.39684  -0.39651
 Alpha  occ. eigenvalues --   -0.39300  -0.39025  -0.38923  -0.38638  -0.38523
 Alpha  occ. eigenvalues --   -0.38444  -0.38062  -0.38000  -0.37868  -0.37645
 Alpha  occ. eigenvalues --   -0.37614  -0.37412  -0.37025  -0.36952  -0.36862
 Alpha  occ. eigenvalues --   -0.36615  -0.36562  -0.36464  -0.36218  -0.36137
 Alpha  occ. eigenvalues --   -0.35886  -0.35668  -0.35581  -0.35387  -0.35330
 Alpha  occ. eigenvalues --   -0.34757  -0.34595  -0.34471  -0.34302  -0.34144
 Alpha  occ. eigenvalues --   -0.33481  -0.33433  -0.33239  -0.32952  -0.32848
 Alpha  occ. eigenvalues --   -0.32659  -0.31914  -0.31868  -0.31616  -0.31125
 Alpha  occ. eigenvalues --   -0.31066  -0.30563  -0.30017  -0.29935  -0.29807
 Alpha  occ. eigenvalues --   -0.29061  -0.28829  -0.27861  -0.26569  -0.25993
 Alpha  occ. eigenvalues --   -0.25784  -0.25457  -0.25095  -0.24964  -0.20804
 Alpha  occ. eigenvalues --   -0.18990
 Alpha virt. eigenvalues --   -0.11446  -0.05529  -0.04038  -0.01908  -0.01781
 Alpha virt. eigenvalues --   -0.00633  -0.00003   0.00860   0.01336   0.02837
 Alpha virt. eigenvalues --    0.04237   0.04457   0.04636   0.05542   0.05937

 Mulliken charges:
               1
     1  Mg   1.003022
     2  C   -0.034874
     3  C   -0.079007
     4  C   -0.015208
     5  C   -0.105060
     6  N   -0.386383
     7  C    0.053878
     8  C   -0.103645
     9  C   -0.127667
    10  C    0.077382
    11  C    0.026758
    12  C    0.008725
    13  C    0.001656
    14  C    0.240769
    15  O   -0.272303
    16  O   -0.370587
    17  N   -0.506571
    18  C    0.184631
    19  C   -0.205731
    20  C   -0.035895
    21  C    0.143368
    22  C    0.059639
    23  C    0.014403
    24  O   -0.257268
    25  C   -0.022317
    26  N   -0.382004
    27  C    0.041690
    28  C   -0.149761
    29  C   -0.077495
    30  C    0.029508
    31  C    0.012147
    32  C   -0.014293
    33  C   -0.060819
    34  N   -0.504988
    35  C    0.209930
    36  C   -0.204109
    37  C   -0.046381
    38  C    0.148584
    39  C    0.090169
    40  C    0.150692
    41  O   -0.215236
    42  C   -0.096811
    43  C    0.287996
    44  O   -0.297027
    45  O   -0.382595
    46  C    0.118143
    47  C    0.229344
    48  C   -0.153590
    49  C   -0.210426
    50  C   -0.011773
    51  C    0.044769
    52  C   -0.046856
    53  C   -0.010547
    54  C   -0.208126
    55  C   -0.002740
    56  C   -0.009090
    57  C   -0.019629
    58  C   -0.023832
    59  C   -0.223043
    60  C    0.003806
    61  C   -0.032861
    62  C   -0.087040
    63  C    0.003619
    64  C   -0.240548
    65  C    0.007781
    66  C   -0.024842
    67  H    0.024163
    68  H    0.034556
    69  H   -0.000367
    70  H    0.071189
    71  H    0.048835
    72  H    0.042880
    73  H    0.038211
    74  H    0.068836
    75  H    0.022749
    76  H    0.033594
    77  H    0.059225
    78  H    0.082639
    79  H    0.058653
    80  H    0.046845
    81  H    0.057171
    82  H    0.063113
    83  H    0.059217
    84  H    0.045228
    85  H    0.055004
    86  H    0.044291
    87  H    0.057210
    88  H    0.054624
    89  H    0.030837
    90  H    0.040631
    91  H    0.045561
    92  H    0.039073
    93  H    0.051096
    94  H    0.033039
    95  H    0.023597
    96  H    0.075558
    97  H    0.063414
    98  H    0.087962
    99  H    0.086187
   100  H    0.045895
   101  H    0.066237
   102  H    0.076327
   103  H    0.074627
   104  H    0.028162
   105  H    0.019451
   106  H    0.057188
   107  H    0.052732
   108  H    0.034159
   109  H    0.036666
   110  H    0.047241
   111  H    0.038275
   112  H    0.017707
   113  H    0.024183
   114  H    0.032527
   115  H    0.032344
   116  H    0.026100
   117  H    0.037082
   118  H    0.008347
   119  H    0.018082
   120  H    0.033384
   121  H    0.029688
   122  H    0.027380
   123  H    0.028812
   124  H    0.039719
   125  H    0.030768
   126  H    0.035619
   127  H    0.023851
   128  H    0.034211
   129  H    0.039388
   130  H    0.029980
   131  H    0.032115
   132  H    0.018656
   133  H    0.019816
   134  H    0.039216
   135  H    0.024563
   136  H    0.029036
   137  H    0.035383
   138  H    0.031601
   139  H    0.029807
   140  H    0.035430
 Sum of Mulliken charges =  -0.00000

 Dipole moment (field-independent basis, Debye):
    X=              4.4675    Y=              2.6570    Z=             -3.5942  Tot=              6.3195
 Quadrupole moment (field-independent basis, Debye-Ang):
   XX=           -368.4859   YY=           -443.7496   ZZ=           -403.3577
   XY=            -13.9788   XZ=              7.3184   YZ=             16.4839

 Normal termination of Gaussian 16 at Sat Apr 30 05:54:27 2022.
