 Gaussian 16, Revision A.03,
 Gaussian 16:  ES64L-G16RevA.03 25-Dec-2016

 --------------------------------
 #p wB97XD/Def2SVP td=(nstates=5)
 --------------------------------

 ---------------------------------------------------
 step_601_chromophore_3 TDDFT with wB97XD functional
 ---------------------------------------------------
 Symbolic Z-matrix:
 Charge =  0 Multiplicity = 1

                         Standard orientation:
 ---------------------------------------------------------------------
 Center     Atomic      Atomic             Coordinates (Angstroms)
 Number     Number       Type             X           Y           Z
 ---------------------------------------------------------------------
      1         12           0       -5.563153    0.712819   -0.208567
      2          6           0       -4.445133   -2.509422    0.002716
      3          6           0       -2.129149    1.851394    0.413231
      4          6           0       -6.698045    3.894330   -0.011066
      5          6           0       -8.801928   -0.456575    0.099868
      6          7           0       -3.580626   -0.212652    0.162637
      7          6           0       -3.327610   -1.559804   -0.010812
      8          6           0       -1.821963   -1.837050   -0.109419
      9          6           0       -1.166788   -0.530065    0.247291
     10          6           0       -2.362980    0.411241    0.373017
     11          6           0       -0.169336   -0.537195    1.415364
     12          6           0       -1.414981   -2.517602   -1.456044
     13          6           0       -0.150456   -3.409683   -1.510374
     14          6           0        1.008421   -3.165043   -0.435122
     15          8           0        1.170175   -3.743326    0.642286
     16          8           0        1.957545   -2.326976   -0.988869
     17          7           0       -4.610434    2.603147    0.125264
     18          6           0       -3.192273    2.840285    0.293872
     19          6           0       -3.021017    4.258499    0.395152
     20          6           0       -4.251593    4.955805    0.221321
     21          6           0       -5.241809    3.853212    0.040010
     22          6           0       -1.669052    4.882638    0.730322
     23          6           0       -4.570097    6.390940    0.145388
     24          8           0       -5.718482    6.848731    0.037541
     25          6           0       -3.464630    7.457901    0.178662
     26          7           0       -7.471320    1.550516    0.019410
     27          6           0       -7.684594    2.872932    0.097603
     28          6           0       -9.171892    3.236982    0.390633
     29          6           0       -9.814298    1.816150    0.147593
     30          6           0       -8.625883    0.886365    0.120222
     31          6           0       -9.487104    3.885200    1.810576
     32          6           0      -10.810261    1.731657   -1.112887
     33          6           0      -12.225342    1.339118   -0.798863
     34          7           0       -6.458376   -1.066380   -0.094341
     35          6           0       -7.777865   -1.408202    0.115032
     36          6           0       -7.957708   -2.804862    0.177749
     37          6           0       -6.622476   -3.324324    0.066357
     38          6           0       -5.794828   -2.200850    0.046479
     39          6           0       -9.167921   -3.593826    0.454853
     40          6           0       -5.782886   -4.489641    0.164978
     41          8           0       -6.033283   -5.671621    0.323935
     42          6           0       -4.397523   -3.992829   -0.135519
     43          6           0       -3.405789   -4.664442    0.711032
     44          8           0       -3.356438   -4.492618    1.961631
     45          8           0       -2.423230   -5.302792   -0.019837
     46          6           0       -1.336753   -5.831419    0.899677
     47          6           0        3.275259   -2.301813   -0.259374
     48          6           0        4.204914   -2.085086   -1.444784
     49          6           0        5.512181   -2.336969   -1.450035
     50          6           0        6.233872   -2.903995   -0.226963
     51          6           0        6.471573   -2.013992   -2.561691
     52          6           0        6.845448   -0.579718   -2.660912
     53          6           0        8.269247   -0.262590   -3.384445
     54          6           0        9.133365    0.562975   -2.456635
     55          6           0        9.466712   -0.284938   -1.270884
     56          6           0       10.400456    1.146518   -3.084059
     57          6           0       10.985048    2.478912   -2.414725
     58          6           0       12.355115    2.152792   -1.795813
     59          6           0       12.457675    2.734994   -0.354716
     60          6           0       13.088327    4.164836   -0.391470
     61          6           0       13.254982    1.800482    0.559122
     62          6           0       12.248075    1.089914    1.572921
     63          6           0       12.980775   -0.020324    2.254746
     64          6           0       13.014137    0.142487    3.785711
     65          6           0       14.376340   -0.213841    4.259159
     66          6           0       11.947612   -0.790916    4.372292
     67          1           0       -1.079241    2.143733    0.486869
     68          1           0       -7.153756    4.837644    0.296689
     69          1           0       -9.869738   -0.682342    0.142388
     70          1           0       -1.502131   -2.574554    0.627579
     71          1           0       -0.673204   -0.273273   -0.689569
     72          1           0       -0.547454    0.198528    2.125570
     73          1           0        0.806507   -0.174798    1.092895
     74          1           0       -0.075909   -1.512126    1.894357
     75          1           0       -1.360648   -1.766160   -2.244638
     76          1           0       -2.284959   -3.026101   -1.871678
     77          1           0        0.265257   -3.030158   -2.443977
     78          1           0       -0.328122   -4.478482   -1.627623
     79          1           0       -1.192293    5.172861   -0.206020
     80          1           0       -1.161525    4.014595    1.150893
     81          1           0       -1.732416    5.746668    1.390693
     82          1           0       -2.751052    7.239770   -0.616012
     83          1           0       -3.093889    7.551257    1.198846
     84          1           0       -3.915366    8.444442    0.070614
     85          1           0       -9.484532    3.995948   -0.326126
     86          1           0      -10.243790    1.484185    1.093122
     87          1           0      -10.081829    4.799160    1.818165
     88          1           0       -8.515893    4.001584    2.292106
     89          1           0      -10.045927    3.128294    2.361305
     90          1           0      -10.427842    0.936319   -1.752855
     91          1           0      -10.798473    2.630340   -1.730239
     92          1           0      -12.870057    2.020238   -1.354639
     93          1           0      -12.439324    1.210550    0.262557
     94          1           0      -12.451592    0.397343   -1.298231
     95          1           0       -9.984903   -2.878122    0.536783
     96          1           0       -9.114304   -4.198929    1.359053
     97          1           0       -9.305340   -4.208232   -0.435933
     98          1           0       -4.100869   -4.169200   -1.169015
     99          1           0       -0.876076   -4.994753    1.424383
    100          1           0       -0.584884   -6.344271    0.300270
    101          1           0       -1.669847   -6.621883    1.573369
    102          1           0        3.645462   -3.251225    0.128048
    103          1           0        3.515458   -1.552647    0.494476
    104          1           0        3.774442   -1.457333   -2.224951
    105          1           0        5.631919   -3.096285    0.660343
    106          1           0        7.001478   -2.180408    0.047608
    107          1           0        6.641239   -3.908171   -0.343062
    108          1           0        5.857732   -2.221815   -3.437691
    109          1           0        7.315389   -2.702058   -2.606030
    110          1           0        6.646242   -0.034194   -1.738874
    111          1           0        6.213450   -0.148372   -3.438123
    112          1           0        8.152887    0.255340   -4.335572
    113          1           0        8.850079   -1.117077   -3.731744
    114          1           0        8.615008    1.462180   -2.124509
    115          1           0       10.536707   -0.493566   -1.247418
    116          1           0        8.946523   -1.242056   -1.255985
    117          1           0        9.221247    0.133857   -0.294020
    118          1           0       10.160711    1.274045   -4.139811
    119          1           0       11.250926    0.467374   -3.148327
    120          1           0       10.385969    2.981995   -1.656579
    121          1           0       11.225771    3.204141   -3.191164
    122          1           0       13.101224    2.601790   -2.450967
    123          1           0       12.568021    1.084101   -1.784375
    124          1           0       11.447497    2.838804    0.041815
    125          1           0       14.015462    4.130057    0.180791
    126          1           0       12.397830    4.922073   -0.020851
    127          1           0       13.367305    4.471078   -1.399518
    128          1           0       13.901364    2.274964    1.297607
    129          1           0       13.804522    1.046017   -0.003039
    130          1           0       11.387923    0.739141    1.001557
    131          1           0       11.895038    1.798514    2.321158
    132          1           0       13.967390    0.002827    1.792727
    133          1           0       12.618333   -1.002166    1.948590
    134          1           0       12.651297    1.095642    4.167817
    135          1           0       14.629881    0.505493    5.037629
    136          1           0       15.128024   -0.043520    3.488833
    137          1           0       14.498485   -1.217081    4.665869
    138          1           0       11.789367   -0.580743    5.430148
    139          1           0       12.306964   -1.817436    4.306683
    140          1           0       11.008247   -0.680072    3.829450
 ---------------------------------------------------------------------

 SCF Done:  E(RwB97XD) =  -3007.82133425     A.U. after   18 cycles

 Excitation energies and oscillator strengths:

 Excited State   1:      Singlet-A      1.6106 eV  769.81 nm  f=0.3702  <S**2>=0.000
     245 -> 248        0.19741
     246 -> 247        0.68106
     245 <- 248        0.12134
 This state for optimization and/or second-order correction.
 Total Energy, E(TD-HF/TD-DFT) =  -3007.76214608
 Copying the excited state density for this state as the 1-particle RhoCI density.

 Excited State   2:      Singlet-A      2.0863 eV  594.28 nm  f=0.1301  <S**2>=0.000
     245 -> 247        0.64527
     246 -> 248       -0.27372

 Excited State   3:      Singlet-A      3.2440 eV  382.20 nm  f=0.0082  <S**2>=0.000
     244 -> 247        0.66233
     246 -> 248        0.13742

 Excited State   4:      Singlet-A      3.4122 eV  363.35 nm  f=0.0008  <S**2>=0.000
     242 -> 247        0.54156
     242 -> 249        0.33198
     242 -> 250       -0.16342
     243 -> 247        0.13671

 Excited State   5:      Singlet-A      3.4260 eV  361.89 nm  f=0.1184  <S**2>=0.000
     240 -> 247        0.20039
     243 -> 247        0.47086
     244 -> 247       -0.13831
     245 -> 247        0.10654
     246 -> 248        0.37354

 The electronic state is 1-A.
 Alpha  occ. eigenvalues --  -46.94692 -19.32180 -19.30740 -19.26603 -19.23782
 Alpha  occ. eigenvalues --  -19.23327 -19.23164 -14.47802 -14.46093 -14.44718
 Alpha  occ. eigenvalues --  -14.43678 -10.45195 -10.42646 -10.38647 -10.38081
 Alpha  occ. eigenvalues --  -10.37099 -10.36093 -10.35849 -10.35403 -10.35081
 Alpha  occ. eigenvalues --  -10.34887 -10.34688 -10.33537 -10.33362 -10.33015
 Alpha  occ. eigenvalues --  -10.32870 -10.32860 -10.32498 -10.32217 -10.32064
 Alpha  occ. eigenvalues --  -10.32046 -10.31876 -10.31660 -10.31525 -10.31456
 Alpha  occ. eigenvalues --  -10.31401 -10.31328 -10.31291 -10.30881 -10.30469
 Alpha  occ. eigenvalues --  -10.30338 -10.30196 -10.30162 -10.29894 -10.29889
 Alpha  occ. eigenvalues --  -10.29830 -10.29811 -10.29750 -10.29670 -10.29609
 Alpha  occ. eigenvalues --  -10.29578 -10.29335 -10.29318 -10.29167 -10.29048
 Alpha  occ. eigenvalues --  -10.29021 -10.29006 -10.28691 -10.28621 -10.28435
 Alpha  occ. eigenvalues --  -10.28258 -10.28113 -10.28108 -10.28096 -10.27677
 Alpha  occ. eigenvalues --  -10.27643  -3.20783  -1.94365  -1.93908  -1.93761
 Alpha  occ. eigenvalues --   -1.19004  -1.16701  -1.11817  -1.10753  -1.10682
 Alpha  occ. eigenvalues --   -1.07422  -1.07242  -1.06277  -1.05317  -1.02442
 Alpha  occ. eigenvalues --   -0.95846  -0.93392  -0.92228  -0.92051  -0.91522
 Alpha  occ. eigenvalues --   -0.90792  -0.89970  -0.89744  -0.89272  -0.89198
 Alpha  occ. eigenvalues --   -0.88401  -0.87597  -0.86574  -0.85670  -0.85361
 Alpha  occ. eigenvalues --   -0.84499  -0.83985  -0.82951  -0.82577  -0.81972
 Alpha  occ. eigenvalues --   -0.81539  -0.80406  -0.79915  -0.79277  -0.78085
 Alpha  occ. eigenvalues --   -0.77897  -0.77544  -0.77139  -0.76815  -0.75962
 Alpha  occ. eigenvalues --   -0.75529  -0.74748  -0.73810  -0.72995  -0.71007
 Alpha  occ. eigenvalues --   -0.70540  -0.70340  -0.69385  -0.68717  -0.67840
 Alpha  occ. eigenvalues --   -0.67680  -0.67124  -0.66917  -0.66670  -0.66420
 Alpha  occ. eigenvalues --   -0.66007  -0.65629  -0.64817  -0.63596  -0.62314
 Alpha  occ. eigenvalues --   -0.61650  -0.61428  -0.61038  -0.60546  -0.59957
 Alpha  occ. eigenvalues --   -0.59352  -0.58729  -0.58312  -0.57673  -0.57508
 Alpha  occ. eigenvalues --   -0.57268  -0.56602  -0.56566  -0.56145  -0.55691
 Alpha  occ. eigenvalues --   -0.55593  -0.55457  -0.55330  -0.55141  -0.54664
 Alpha  occ. eigenvalues --   -0.54430  -0.54388  -0.54260  -0.54120  -0.53975
 Alpha  occ. eigenvalues --   -0.53766  -0.53489  -0.53339  -0.53163  -0.52834
 Alpha  occ. eigenvalues --   -0.52765  -0.51974  -0.51869  -0.51780  -0.51696
 Alpha  occ. eigenvalues --   -0.51423  -0.51293  -0.51219  -0.50679  -0.50572
 Alpha  occ. eigenvalues --   -0.50566  -0.50453  -0.50289  -0.49853  -0.49811
 Alpha  occ. eigenvalues --   -0.49586  -0.49481  -0.48985  -0.48910  -0.48603
 Alpha  occ. eigenvalues --   -0.48521  -0.48296  -0.48040  -0.47937  -0.47799
 Alpha  occ. eigenvalues --   -0.47496  -0.47282  -0.47166  -0.46901  -0.46795
 Alpha  occ. eigenvalues --   -0.46534  -0.46210  -0.46081  -0.45779  -0.45619
 Alpha  occ. eigenvalues --   -0.45591  -0.45339  -0.45162  -0.45000  -0.44768
 Alpha  occ. eigenvalues --   -0.44678  -0.44563  -0.44085  -0.44032  -0.43953
 Alpha  occ. eigenvalues --   -0.43783  -0.43666  -0.43512  -0.43277  -0.43212
 Alpha  occ. eigenvalues --   -0.43086  -0.42724  -0.42658  -0.42442  -0.42411
 Alpha  occ. eigenvalues --   -0.41812  -0.41704  -0.41420  -0.41350  -0.41166
 Alpha  occ. eigenvalues --   -0.40523  -0.40426  -0.40265  -0.39887  -0.39854
 Alpha  occ. eigenvalues --   -0.39708  -0.38877  -0.38828  -0.38603  -0.38162
 Alpha  occ. eigenvalues --   -0.38116  -0.37599  -0.36980  -0.36762  -0.36728
 Alpha  occ. eigenvalues --   -0.35938  -0.35622  -0.34921  -0.33218  -0.32764
 Alpha  occ. eigenvalues --   -0.32747  -0.32255  -0.31994  -0.31670  -0.25744
 Alpha  occ. eigenvalues --   -0.23192
 Alpha virt. eigenvalues --   -0.07405  -0.00139   0.02192   0.04581   0.05033
 Alpha virt. eigenvalues --    0.05379   0.06809   0.07518   0.08098   0.09449
 Alpha virt. eigenvalues --    0.10628   0.11157   0.11308   0.12284   0.12653

 Mulliken charges:
               1
     1  Mg   0.991554
     2  C   -0.041527
     3  C   -0.096007
     4  C   -0.032781
     5  C   -0.128390
     6  N   -0.352690
     7  C    0.023388
     8  C   -0.066837
     9  C   -0.104466
    10  C    0.063885
    11  C    0.038514
    12  C    0.015436
    13  C    0.022146
    14  C    0.221680
    15  O   -0.266542
    16  O   -0.368970
    17  N   -0.480686
    18  C    0.177322
    19  C   -0.191253
    20  C   -0.030143
    21  C    0.135861
    22  C    0.073138
    23  C    0.011519
    24  O   -0.251089
    25  C   -0.011235
    26  N   -0.348907
    27  C    0.034265
    28  C   -0.129417
    29  C   -0.049072
    30  C    0.017889
    31  C    0.024118
    32  C    0.000260
    33  C   -0.046446
    34  N   -0.467526
    35  C    0.209120
    36  C   -0.203176
    37  C   -0.046539
    38  C    0.135209
    39  C    0.103018
    40  C    0.130441
    41  O   -0.205673
    42  C   -0.048167
    43  C    0.263027
    44  O   -0.292489
    45  O   -0.380149
    46  C    0.133177
    47  C    0.245648
    48  C   -0.166168
    49  C   -0.192394
    50  C    0.002102
    51  C    0.060398
    52  C   -0.030174
    53  C    0.006236
    54  C   -0.176836
    55  C    0.011512
    56  C    0.009016
    57  C   -0.007677
    58  C   -0.007776
    59  C   -0.188962
    60  C    0.014855
    61  C   -0.013363
    62  C   -0.062517
    63  C    0.021007
    64  C   -0.209967
    65  C    0.017997
    66  C   -0.012552
    67  H    0.020365
    68  H    0.028309
    69  H   -0.008806
    70  H    0.045213
    71  H    0.036956
    72  H    0.036506
    73  H    0.033043
    74  H    0.064800
    75  H    0.015290
    76  H    0.023171
    77  H    0.053503
    78  H    0.077663
    79  H    0.054713
    80  H    0.040661
    81  H    0.052289
    82  H    0.058396
    83  H    0.054697
    84  H    0.044249
    85  H    0.045970
    86  H    0.029368
    87  H    0.053102
    88  H    0.047563
    89  H    0.024360
    90  H    0.031233
    91  H    0.038590
    92  H    0.033607
    93  H    0.045495
    94  H    0.026997
    95  H    0.016394
    96  H    0.071336
    97  H    0.057821
    98  H    0.079505
    99  H    0.080224
   100  H    0.043309
   101  H    0.063368
   102  H    0.068370
   103  H    0.070456
   104  H    0.024829
   105  H    0.013951
   106  H    0.048801
   107  H    0.047960
   108  H    0.026514
   109  H    0.029829
   110  H    0.037713
   111  H    0.030420
   112  H    0.009984
   113  H    0.014990
   114  H    0.019398
   115  H    0.023539
   116  H    0.012522
   117  H    0.031910
   118  H    0.000075
   119  H    0.007477
   120  H    0.024302
   121  H    0.022917
   122  H    0.018902
   123  H    0.015172
   124  H    0.023847
   125  H    0.024501
   126  H    0.030878
   127  H    0.017162
   128  H    0.022090
   129  H    0.030012
   130  H    0.010654
   131  H    0.022055
   132  H    0.004814
   133  H    0.012593
   134  H    0.028620
   135  H    0.019050
   136  H    0.022538
   137  H    0.030188
   138  H    0.026310
   139  H    0.021755
   140  H    0.028466
 Sum of Mulliken charges =  -0.00000

 Dipole moment (field-independent basis, Debye):
    X=              4.7487    Y=              2.9701    Z=             -3.5916  Tot=              6.6536
 Quadrupole moment (field-independent basis, Debye-Ang):
   XX=           -371.9148   YY=           -441.4465   ZZ=           -403.0505
   XY=            -14.5521   XZ=              7.5930   YZ=             16.6815

 Normal termination of Gaussian 16 at Sat Apr 30 06:18:59 2022.
