 Gaussian 16, Revision A.03,
 Gaussian 16:  ES64L-G16RevA.03 25-Dec-2016

 --------------------
 #p ZINDO=(nstates=5)
 --------------------

 ----------------------------
 step_601_chromophore_3 ZINDO
 ----------------------------
 Symbolic Z-matrix:
 Charge =  0 Multiplicity = 1

                         Standard orientation:
 ---------------------------------------------------------------------
 Center     Atomic      Atomic             Coordinates (Angstroms)
 Number     Number       Type             X           Y           Z
 ---------------------------------------------------------------------
      1         12           0       -5.563153    0.712819   -0.208567
      2          6           0       -4.445133   -2.509422    0.002716
      3          6           0       -2.129149    1.851394    0.413231
      4          6           0       -6.698045    3.894330   -0.011066
      5          6           0       -8.801928   -0.456575    0.099868
      6          7           0       -3.580626   -0.212652    0.162637
      7          6           0       -3.327610   -1.559804   -0.010812
      8          6           0       -1.821963   -1.837050   -0.109419
      9          6           0       -1.166788   -0.530065    0.247291
     10          6           0       -2.362980    0.411241    0.373017
     11          6           0       -0.169336   -0.537195    1.415364
     12          6           0       -1.414981   -2.517602   -1.456044
     13          6           0       -0.150456   -3.409683   -1.510374
     14          6           0        1.008421   -3.165043   -0.435122
     15          8           0        1.170175   -3.743326    0.642286
     16          8           0        1.957545   -2.326976   -0.988869
     17          7           0       -4.610434    2.603147    0.125264
     18          6           0       -3.192273    2.840285    0.293872
     19          6           0       -3.021017    4.258499    0.395152
     20          6           0       -4.251593    4.955805    0.221321
     21          6           0       -5.241809    3.853212    0.040010
     22          6           0       -1.669052    4.882638    0.730322
     23          6           0       -4.570097    6.390940    0.145388
     24          8           0       -5.718482    6.848731    0.037541
     25          6           0       -3.464630    7.457901    0.178662
     26          7           0       -7.471320    1.550516    0.019410
     27          6           0       -7.684594    2.872932    0.097603
     28          6           0       -9.171892    3.236982    0.390633
     29          6           0       -9.814298    1.816150    0.147593
     30          6           0       -8.625883    0.886365    0.120222
     31          6           0       -9.487104    3.885200    1.810576
     32          6           0      -10.810261    1.731657   -1.112887
     33          6           0      -12.225342    1.339118   -0.798863
     34          7           0       -6.458376   -1.066380   -0.094341
     35          6           0       -7.777865   -1.408202    0.115032
     36          6           0       -7.957708   -2.804862    0.177749
     37          6           0       -6.622476   -3.324324    0.066357
     38          6           0       -5.794828   -2.200850    0.046479
     39          6           0       -9.167921   -3.593826    0.454853
     40          6           0       -5.782886   -4.489641    0.164978
     41          8           0       -6.033283   -5.671621    0.323935
     42          6           0       -4.397523   -3.992829   -0.135519
     43          6           0       -3.405789   -4.664442    0.711032
     44          8           0       -3.356438   -4.492618    1.961631
     45          8           0       -2.423230   -5.302792   -0.019837
     46          6           0       -1.336753   -5.831419    0.899677
     47          6           0        3.275259   -2.301813   -0.259374
     48          6           0        4.204914   -2.085086   -1.444784
     49          6           0        5.512181   -2.336969   -1.450035
     50          6           0        6.233872   -2.903995   -0.226963
     51          6           0        6.471573   -2.013992   -2.561691
     52          6           0        6.845448   -0.579718   -2.660912
     53          6           0        8.269247   -0.262590   -3.384445
     54          6           0        9.133365    0.562975   -2.456635
     55          6           0        9.466712   -0.284938   -1.270884
     56          6           0       10.400456    1.146518   -3.084059
     57          6           0       10.985048    2.478912   -2.414725
     58          6           0       12.355115    2.152792   -1.795813
     59          6           0       12.457675    2.734994   -0.354716
     60          6           0       13.088327    4.164836   -0.391470
     61          6           0       13.254982    1.800482    0.559122
     62          6           0       12.248075    1.089914    1.572921
     63          6           0       12.980775   -0.020324    2.254746
     64          6           0       13.014137    0.142487    3.785711
     65          6           0       14.376340   -0.213841    4.259159
     66          6           0       11.947612   -0.790916    4.372292
     67          1           0       -1.079241    2.143733    0.486869
     68          1           0       -7.153756    4.837644    0.296689
     69          1           0       -9.869738   -0.682342    0.142388
     70          1           0       -1.502131   -2.574554    0.627579
     71          1           0       -0.673204   -0.273273   -0.689569
     72          1           0       -0.547454    0.198528    2.125570
     73          1           0        0.806507   -0.174798    1.092895
     74          1           0       -0.075909   -1.512126    1.894357
     75          1           0       -1.360648   -1.766160   -2.244638
     76          1           0       -2.284959   -3.026101   -1.871678
     77          1           0        0.265257   -3.030158   -2.443977
     78          1           0       -0.328122   -4.478482   -1.627623
     79          1           0       -1.192293    5.172861   -0.206020
     80          1           0       -1.161525    4.014595    1.150893
     81          1           0       -1.732416    5.746668    1.390693
     82          1           0       -2.751052    7.239770   -0.616012
     83          1           0       -3.093889    7.551257    1.198846
     84          1           0       -3.915366    8.444442    0.070614
     85          1           0       -9.484532    3.995948   -0.326126
     86          1           0      -10.243790    1.484185    1.093122
     87          1           0      -10.081829    4.799160    1.818165
     88          1           0       -8.515893    4.001584    2.292106
     89          1           0      -10.045927    3.128294    2.361305
     90          1           0      -10.427842    0.936319   -1.752855
     91          1           0      -10.798473    2.630340   -1.730239
     92          1           0      -12.870057    2.020238   -1.354639
     93          1           0      -12.439324    1.210550    0.262557
     94          1           0      -12.451592    0.397343   -1.298231
     95          1           0       -9.984903   -2.878122    0.536783
     96          1           0       -9.114304   -4.198929    1.359053
     97          1           0       -9.305340   -4.208232   -0.435933
     98          1           0       -4.100869   -4.169200   -1.169015
     99          1           0       -0.876076   -4.994753    1.424383
    100          1           0       -0.584884   -6.344271    0.300270
    101          1           0       -1.669847   -6.621883    1.573369
    102          1           0        3.645462   -3.251225    0.128048
    103          1           0        3.515458   -1.552647    0.494476
    104          1           0        3.774442   -1.457333   -2.224951
    105          1           0        5.631919   -3.096285    0.660343
    106          1           0        7.001478   -2.180408    0.047608
    107          1           0        6.641239   -3.908171   -0.343062
    108          1           0        5.857732   -2.221815   -3.437691
    109          1           0        7.315389   -2.702058   -2.606030
    110          1           0        6.646242   -0.034194   -1.738874
    111          1           0        6.213450   -0.148372   -3.438123
    112          1           0        8.152887    0.255340   -4.335572
    113          1           0        8.850079   -1.117077   -3.731744
    114          1           0        8.615008    1.462180   -2.124509
    115          1           0       10.536707   -0.493566   -1.247418
    116          1           0        8.946523   -1.242056   -1.255985
    117          1           0        9.221247    0.133857   -0.294020
    118          1           0       10.160711    1.274045   -4.139811
    119          1           0       11.250926    0.467374   -3.148327
    120          1           0       10.385969    2.981995   -1.656579
    121          1           0       11.225771    3.204141   -3.191164
    122          1           0       13.101224    2.601790   -2.450967
    123          1           0       12.568021    1.084101   -1.784375
    124          1           0       11.447497    2.838804    0.041815
    125          1           0       14.015462    4.130057    0.180791
    126          1           0       12.397830    4.922073   -0.020851
    127          1           0       13.367305    4.471078   -1.399518
    128          1           0       13.901364    2.274964    1.297607
    129          1           0       13.804522    1.046017   -0.003039
    130          1           0       11.387923    0.739141    1.001557
    131          1           0       11.895038    1.798514    2.321158
    132          1           0       13.967390    0.002827    1.792727
    133          1           0       12.618333   -1.002166    1.948590
    134          1           0       12.651297    1.095642    4.167817
    135          1           0       14.629881    0.505493    5.037629
    136          1           0       15.128024   -0.043520    3.488833
    137          1           0       14.498485   -1.217081    4.665869
    138          1           0       11.789367   -0.580743    5.430148
    139          1           0       12.306964   -1.817436    4.306683
    140          1           0       11.008247   -0.680072    3.829450
 ---------------------------------------------------------------------

 SCF Done:  E(RZINDO/S) =  -474.247529289     A.U. after   20 cycles

 Excitation energies and oscillator strengths:

 Excited State   1:      Singlet-A      1.2220 eV 1014.64 nm  f=0.5892  <S**2>=0.000
     175 ->178        -0.20038
     176 ->177         0.65948
 This state for optimization and/or second-order correction.
 Total Energy, E(CIS/TDA) =  -474.202623303
 Copying the excited state density for this state as the 1-particle RhoCI density.

 Excited State   2:      Singlet-A      1.8597 eV  666.67 nm  f=0.0767  <S**2>=0.000
     175 ->177         0.56316
     176 ->178         0.39951

 Excited State   3:      Singlet-A      2.8937 eV  428.46 nm  f=0.0001  <S**2>=0.000
     168 ->177         0.32880
     168 ->179        -0.42282
     168 ->181         0.26798
     168 ->182         0.10245
     168 ->186         0.21289
     168 ->188        -0.10477

 Excited State   4:      Singlet-A      2.9187 eV  424.79 nm  f=0.5391  <S**2>=0.000
     169 ->177        -0.19707
     169 ->178        -0.11054
     169 ->179        -0.16437
     169 ->181        -0.17851
     169 ->186         0.11581
     173 ->177         0.12269
     175 ->177        -0.26300
     176 ->178         0.41194
     176 ->179         0.20771

 Excited State   5:      Singlet-A      2.9810 eV  415.92 nm  f=0.3465  <S**2>=0.000
     169 ->177         0.27424
     169 ->178         0.14569
     169 ->179         0.22190
     169 ->181         0.23551
     169 ->183         0.10837
     169 ->186        -0.16103
     169 ->187         0.12653
     175 ->177        -0.20326
     176 ->178         0.30552
     176 ->179         0.16629

 The electronic state is 1-A.
 Alpha  occ. eigenvalues --   -1.87672  -1.81368  -1.77561  -1.71456  -1.71135
 Alpha  occ. eigenvalues --   -1.69102  -1.67105  -1.63489  -1.60287  -1.57711
 Alpha  occ. eigenvalues --   -1.57497  -1.52858  -1.48373  -1.47255  -1.46280
 Alpha  occ. eigenvalues --   -1.44445  -1.42168  -1.40192  -1.40174  -1.38983
 Alpha  occ. eigenvalues --   -1.36783  -1.35321  -1.34151  -1.30155  -1.29269
 Alpha  occ. eigenvalues --   -1.27656  -1.24541  -1.21603  -1.20287  -1.18792
 Alpha  occ. eigenvalues --   -1.17559  -1.16563  -1.15358  -1.14431  -1.12992
 Alpha  occ. eigenvalues --   -1.12563  -1.10865  -1.10106  -1.05019  -1.03399
 Alpha  occ. eigenvalues --   -1.02291  -1.01330  -0.99418  -0.97553  -0.97086
 Alpha  occ. eigenvalues --   -0.96120  -0.94851  -0.93675  -0.93280  -0.92604
 Alpha  occ. eigenvalues --   -0.91442  -0.90852  -0.89460  -0.88106  -0.87671
 Alpha  occ. eigenvalues --   -0.86828  -0.85566  -0.82371  -0.82207  -0.80297
 Alpha  occ. eigenvalues --   -0.79876  -0.78413  -0.76862  -0.76273  -0.75816
 Alpha  occ. eigenvalues --   -0.75562  -0.75473  -0.74620  -0.74223  -0.73302
 Alpha  occ. eigenvalues --   -0.72761  -0.72248  -0.71305  -0.70793  -0.70586
 Alpha  occ. eigenvalues --   -0.70544  -0.69811  -0.69189  -0.67838  -0.67488
 Alpha  occ. eigenvalues --   -0.67095  -0.66910  -0.66870  -0.66219  -0.65664
 Alpha  occ. eigenvalues --   -0.65552  -0.65092  -0.64775  -0.64127  -0.63942
 Alpha  occ. eigenvalues --   -0.63642  -0.63201  -0.63025  -0.62288  -0.62121
 Alpha  occ. eigenvalues --   -0.61831  -0.61635  -0.61119  -0.60385  -0.60061
 Alpha  occ. eigenvalues --   -0.60013  -0.59456  -0.59156  -0.58473  -0.58054
 Alpha  occ. eigenvalues --   -0.57900  -0.57626  -0.57146  -0.56628  -0.56054
 Alpha  occ. eigenvalues --   -0.55996  -0.55445  -0.55190  -0.54796  -0.54188
 Alpha  occ. eigenvalues --   -0.53877  -0.53812  -0.53629  -0.52924  -0.52799
 Alpha  occ. eigenvalues --   -0.52264  -0.52139  -0.52041  -0.51671  -0.51036
 Alpha  occ. eigenvalues --   -0.50810  -0.50786  -0.50667  -0.50429  -0.50076
 Alpha  occ. eigenvalues --   -0.49694  -0.49616  -0.49514  -0.49225  -0.48868
 Alpha  occ. eigenvalues --   -0.48573  -0.48473  -0.48373  -0.47674  -0.47589
 Alpha  occ. eigenvalues --   -0.47384  -0.47125  -0.46939  -0.46788  -0.46708
 Alpha  occ. eigenvalues --   -0.46160  -0.46103  -0.45656  -0.45617  -0.45529
 Alpha  occ. eigenvalues --   -0.45364  -0.44837  -0.44312  -0.44169  -0.43417
 Alpha  occ. eigenvalues --   -0.43356  -0.42770  -0.42718  -0.42503  -0.42286
 Alpha  occ. eigenvalues --   -0.42133  -0.41512  -0.40907  -0.39539  -0.38476
 Alpha  occ. eigenvalues --   -0.37573  -0.37431  -0.35163  -0.34766  -0.34695
 Alpha  occ. eigenvalues --   -0.33273  -0.32843  -0.32269  -0.31777  -0.26343
 Alpha  occ. eigenvalues --   -0.22005
 Alpha virt. eigenvalues --   -0.08855  -0.02390  -0.00587   0.00806   0.01388
 Alpha virt. eigenvalues --    0.01912   0.02006   0.02911   0.04417   0.04551
 Alpha virt. eigenvalues --    0.06123   0.07054   0.07213   0.07502   0.08008

 Mulliken charges:
               1
     1  Mg   0.429798
     2  C   -0.033069
     3  C   -0.076253
     4  C   -0.089690
     5  C   -0.074913
     6  N   -0.265183
     7  C    0.104715
     8  C    0.013835
     9  C    0.010032
    10  C    0.123093
    11  C   -0.047572
    12  C   -0.021365
    13  C    0.006184
    14  C    0.458438
    15  O   -0.510502
    16  O   -0.263036
    17  N   -0.348240
    18  C    0.090307
    19  C    0.029694
    20  C   -0.045860
    21  C    0.152368
    22  C   -0.054108
    23  C    0.327215
    24  O   -0.534381
    25  C   -0.035309
    26  N   -0.260965
    27  C    0.158539
    28  C   -0.005424
    29  C   -0.008703
    30  C    0.128307
    31  C   -0.054142
    32  C   -0.025422
    33  C   -0.056490
    34  N   -0.321525
    35  C    0.102453
    36  C    0.022037
    37  C   -0.074602
    38  C    0.125205
    39  C   -0.034366
    40  C    0.343847
    41  O   -0.522661
    42  C    0.068703
    43  C    0.485267
    44  O   -0.538065
    45  O   -0.272118
    46  C    0.072015
    47  C    0.093142
    48  C   -0.094898
    49  C   -0.003349
    50  C   -0.052086
    51  C   -0.011208
    52  C   -0.029149
    53  C   -0.035166
    54  C    0.001973
    55  C   -0.054314
    56  C   -0.039740
    57  C   -0.044134
    58  C   -0.037629
    59  C   -0.015517
    60  C   -0.063210
    61  C   -0.042351
    62  C   -0.044969
    63  C   -0.033354
    64  C   -0.005955
    65  C   -0.051680
    66  C   -0.057014
    67  H    0.043226
    68  H    0.037624
    69  H    0.026418
    70  H    0.039729
    71  H    0.026320
    72  H    0.020175
    73  H    0.019490
    74  H    0.040347
    75  H    0.016815
    76  H    0.021682
    77  H    0.027806
    78  H    0.055688
    79  H    0.031969
    80  H    0.030423
    81  H    0.035794
    82  H    0.038810
    83  H    0.039312
    84  H    0.034018
    85  H    0.032387
    86  H    0.032678
    87  H    0.033119
    88  H    0.028731
    89  H    0.016936
    90  H    0.017830
    91  H    0.026978
    92  H    0.019920
    93  H    0.029685
    94  H    0.012607
    95  H    0.016419
    96  H    0.044424
    97  H    0.036304
    98  H    0.052400
    99  H    0.058034
   100  H    0.024291
   101  H    0.050934
   102  H    0.059328
   103  H    0.062095
   104  H    0.029042
   105  H    0.015084
   106  H    0.028592
   107  H    0.027666
   108  H    0.014394
   109  H    0.026696
   110  H    0.033295
   111  H    0.011709
   112  H    0.010189
   113  H    0.022182
   114  H    0.017943
   115  H    0.016259
   116  H    0.014367
   117  H    0.012117
   118  H    0.007199
   119  H    0.020195
   120  H    0.031250
   121  H    0.016103
   122  H    0.017012
   123  H    0.020054
   124  H    0.023596
   125  H    0.019721
   126  H    0.018753
   127  H    0.016139
   128  H    0.021056
   129  H    0.027264
   130  H    0.014347
   131  H    0.020814
   132  H    0.013512
   133  H    0.016413
   134  H    0.028799
   135  H    0.006731
   136  H    0.015155
   137  H    0.024487
   138  H    0.011356
   139  H    0.016343
   140  H    0.015936
 Sum of Mulliken charges =  -0.00000

 Dipole moment (field-independent basis, Debye):
    X=              6.4483    Y=              4.5615    Z=             -4.7411  Tot=              9.2123
 N-N= 4.288480592202D+03 E-N= 0.000000000000D+00  KE=-9.251112453334D+03
 Leave Link  601 at Sat Apr 30 06:30:28 2022, MaxMem=  6710886400 cpu:               0.8 elap:               0.0
 (Enter /sw/apps/gaussian-16.0/g16/l9999.exe)
 1\1\GINC-BP1-COMPUTE102\SP\RZINDO CIS\STO-3G\C55H74Mg1N4O6\OF15641\30-
 Apr-2022\0\\#p ZINDO=(nstates=5)\\step_601_chromophore_3 ZINDO\\0,1\Mg
 ,0,1.804,8.203,26.292\C,0,2.364,10.318,28.917\C,0,2.922,5.421,28.41\C,
 0,1.646,6.15,23.607\C,0,1.636,10.948,24.197\N,0,2.544,7.928,28.366\C,0
 ,2.485,8.916,29.33\C,0,2.65,8.332,30.739\C,0,3.041,6.896,30.516\C,0,2.
 919,6.756,29.\C,0,4.356,6.417,31.149\C,0,1.426,8.623,31.666\C,0,1.627,
 8.688,33.2\C,0,2.864,7.906,33.846\O,0,3.982,8.354,34.112\O,0,2.431,6.6

 Normal termination of Gaussian 16 at Sat Apr 30 06:30:28 2022.
