 Gaussian 16, Revision A.03,
 Gaussian 16:  ES64L-G16RevA.03 25-Dec-2016

 ------------------------------
 #p blyp/Def2SVP td=(nstates=5)
 ------------------------------

 --------------------------------------------------
 step_701_chromophore_16 TDDFT with blyp functional
 --------------------------------------------------
 Symbolic Z-matrix:
 Charge =  0 Multiplicity = 1

                         Standard orientation:
 ---------------------------------------------------------------------
 Center     Atomic      Atomic             Coordinates (Angstroms)
 Number     Number       Type             X           Y           Z
 ---------------------------------------------------------------------
      1         12           0        6.318269    0.599803   -0.133250
      2          6           0        4.022115   -2.192383   -0.099227
      3          6           0        3.668233    2.622830   -0.876834
      4          6           0        8.349737    3.041106    0.177432
      5          6           0        8.855568   -1.764250    0.615328
      6          7           0        4.137190    0.179178   -0.619520
      7          6           0        3.405823   -0.953978   -0.385653
      8          6           0        1.869522   -0.740856   -0.544229
      9          6           0        1.869571    0.782412   -0.884518
     10          6           0        3.335903    1.226930   -0.804062
     11          6           0        1.169076    1.220913   -2.232223
     12          6           0        1.162987   -1.204894    0.739415
     13          6           0       -0.249168   -0.766528    0.911193
     14          6           0       -1.304695   -1.932604    0.995612
     15          8           0       -1.225954   -2.910377    1.765507
     16          8           0       -2.346858   -1.772312    0.256541
     17          7           0        6.046044    2.593540   -0.461576
     18          6           0        4.894772    3.250396   -0.764595
     19          6           0        5.178725    4.649373   -0.853121
     20          6           0        6.608108    4.794672   -0.563132
     21          6           0        7.092972    3.450346   -0.306524
     22          6           0        4.145076    5.664916   -1.262573
     23          6           0        7.389100    6.080927   -0.594287
     24          8           0        8.622870    6.131859   -0.335029
     25          6           0        6.696013    7.342881   -0.904671
     26          7           0        8.322423    0.643207    0.332424
     27          6           0        8.933027    1.822716    0.457836
     28          6           0       10.266495    1.652783    1.037178
     29          6           0       10.377006    0.092745    1.445278
     30          6           0        9.088825   -0.385616    0.809471
     31          6           0       11.434564    2.271834    0.175361
     32          6           0       10.452266   -0.164110    2.990598
     33          6           0        9.316407    0.239685    3.851580
     34          7           0        6.481579   -1.533346    0.089644
     35          6           0        7.568263   -2.328266    0.331584
     36          6           0        7.177536   -3.761984    0.327847
     37          6           0        5.787995   -3.720996    0.212340
     38          6           0        5.404160   -2.392911    0.058667
     39          6           0        8.134914   -4.860143    0.519984
     40          6           0        4.647862   -4.589277    0.104182
     41          8           0        4.569380   -5.822737    0.162434
     42          6           0        3.489341   -3.563268   -0.097240
     43          6           0        2.909065   -3.887379   -1.409730
     44          8           0        3.436041   -3.870724   -2.510739
     45          8           0        1.626405   -4.349842   -1.319412
     46          6           0        1.078035   -4.856901   -2.631676
     47          6           0       -3.400175   -2.851979    0.189244
     48          6           0       -4.635395   -2.250388   -0.557167
     49          6           0       -5.979769   -2.596713   -0.447049
     50          6           0       -6.476574   -3.792961    0.305019
     51          6           0       -6.999717   -1.739104   -1.151662
     52          6           0       -7.213062   -0.334247   -0.688997
     53          6           0       -8.502858   -0.149020    0.167449
     54          6           0       -9.453790    0.851487   -0.542252
     55          6           0       -9.090202    2.347603   -0.248105
     56          6           0      -10.925801    0.645604   -0.220506
     57          6           0      -11.839396    0.220406   -1.447614
     58          6           0      -12.772490    1.350444   -1.952557
     59          6           0      -14.276868    0.810763   -1.793519
     60          6           0      -15.002873    1.230003   -3.061442
     61          6           0      -14.999955    1.333777   -0.513897
     62          6           0      -14.774320    0.438608    0.757152
     63          6           0      -14.080122    1.100781    1.994159
     64          6           0      -15.198828    1.444875    3.007776
     65          6           0      -14.806035    0.868143    4.358177
     66          6           0      -15.255435    2.960682    3.227937
     67          1           0        2.843314    3.298620   -1.112998
     68          1           0        9.029114    3.855563    0.437534
     69          1           0        9.677535   -2.399295    0.950467
     70          1           0        1.504605   -1.338831   -1.380002
     71          1           0        1.382163    1.346071   -0.089778
     72          1           0        1.053321    0.424000   -2.967119
     73          1           0        1.861974    1.938879   -2.672422
     74          1           0        0.241860    1.791185   -2.178211
     75          1           0        1.746288   -0.761754    1.545589
     76          1           0        1.186992   -2.295103    0.759433
     77          1           0       -0.611011   -0.321148   -0.015261
     78          1           0       -0.325116   -0.155906    1.810366
     79          1           0        4.147488    6.399055   -0.456891
     80          1           0        3.140578    5.260616   -1.385658
     81          1           0        4.554678    6.077626   -2.183949
     82          1           0        6.329104    7.327058   -1.930718
     83          1           0        7.475563    8.098512   -0.806067
     84          1           0        5.862799    7.380813   -0.204410
     85          1           0       10.189626    2.188746    1.982870
     86          1           0       11.227148   -0.322102    0.904373
     87          1           0       11.712046    3.199261    0.676378
     88          1           0       11.001670    2.591540   -0.772766
     89          1           0       12.242259    1.554951    0.029687
     90          1           0       11.347943    0.402661    3.246249
     91          1           0       10.884025   -1.147730    3.171977
     92          1           0        8.411824    0.671749    3.423585
     93          1           0        9.711449    1.022065    4.498945
     94          1           0        9.145923   -0.727940    4.322873
     95          1           0        7.695591   -5.835666    0.313858
     96          1           0        8.519800   -4.787453    1.537545
     97          1           0        9.003350   -4.765870   -0.132171
     98          1           0        2.746069   -3.713650    0.685509
     99          1           0        1.703642   -4.736348   -3.515703
    100          1           0        0.096986   -4.406342   -2.788162
    101          1           0        1.058403   -5.938818   -2.507831
    102          1           0       -3.742005   -3.100866    1.193864
    103          1           0       -3.068465   -3.804317   -0.225806
    104          1           0       -4.490905   -1.394619   -1.215953
    105          1           0       -6.980461   -3.547131    1.239373
    106          1           0       -5.656499   -4.506778    0.371909
    107          1           0       -7.238122   -4.269053   -0.312639
    108          1           0       -7.917917   -2.299319   -1.326835
    109          1           0       -6.567776   -1.780168   -2.151997
    110          1           0       -7.056356    0.269135   -1.583897
    111          1           0       -6.420620   -0.042852    0.001039
    112          1           0       -8.148156    0.210524    1.133260
    113          1           0       -8.917233   -1.151985    0.268983
    114          1           0       -9.392961    0.735477   -1.624041
    115          1           0       -9.749742    2.882995    0.434361
    116          1           0       -8.873636    2.852385   -1.190499
    117          1           0       -8.159047    2.603656    0.258204
    118          1           0      -11.400238    1.483152    0.289353
    119          1           0      -11.020524   -0.200847    0.459550
    120          1           0      -12.422247   -0.679328   -1.251365
    121          1           0      -11.213140   -0.084043   -2.287078
    122          1           0      -12.534417    1.359843   -3.015984
    123          1           0      -12.525455    2.342536   -1.576094
    124          1           0      -14.319716   -0.276749   -1.736080
    125          1           0      -15.731024    2.012039   -2.846365
    126          1           0      -15.480921    0.288893   -3.332043
    127          1           0      -14.367194    1.664333   -3.832401
    128          1           0      -16.087090    1.385926   -0.562256
    129          1           0      -14.654293    2.349495   -0.316483
    130          1           0      -14.073910   -0.369995    0.546031
    131          1           0      -15.720988    0.021652    1.099965
    132          1           0      -13.743155    2.086417    1.669212
    133          1           0      -13.311082    0.456093    2.419933
    134          1           0      -16.192989    1.157636    2.664423
    135          1           0      -15.350826   -0.074891    4.376590
    136          1           0      -15.049946    1.532919    5.187602
    137          1           0      -13.718701    0.799094    4.342956
    138          1           0      -15.958719    3.332041    3.973281
    139          1           0      -15.708773    3.395418    2.336113
    140          1           0      -14.267938    3.384337    3.410059
 ---------------------------------------------------------------------

 SCF Done:  E(RB-LYP) =  -3007.33511047     A.U. after   21 cycles

 Excitation energies and oscillator strengths:

 Excited State   1:      Singlet-A      1.8021 eV  687.99 nm  f=0.2830  <S**2>=0.000
     244 -> 247       -0.14355
     245 -> 248        0.19848
     246 -> 247        0.67129
     246 <- 247       -0.14673
 This state for optimization and/or second-order correction.
 Total Energy, E(TD-HF/TD-DFT) =  -3007.26888349
 Copying the excited state density for this state as the 1-particle RhoCI density.

 Excited State   2:      Singlet-A      1.8516 eV  669.62 nm  f=0.0291  <S**2>=0.000
     244 -> 247        0.64352
     245 -> 247       -0.23977
     246 -> 247        0.15124

 Excited State   3:      Singlet-A      1.9956 eV  621.29 nm  f=0.0658  <S**2>=0.000
     244 -> 247        0.24975
     245 -> 247        0.60147
     246 -> 248       -0.24809

 Excited State   4:      Singlet-A      2.0887 eV  593.61 nm  f=0.0006  <S**2>=0.000
     243 -> 247        0.70480

 Excited State   5:      Singlet-A      2.2427 eV  552.83 nm  f=0.0001  <S**2>=0.000
     242 -> 247        0.70697

 The electronic state is 1-A.
 Alpha  occ. eigenvalues --  -46.26898 -18.83130 -18.81315 -18.76018 -18.75452
 Alpha  occ. eigenvalues --  -18.74911 -18.74836 -14.03627 -14.02680 -14.00785
 Alpha  occ. eigenvalues --  -14.00666 -10.03459 -10.03030  -9.99655  -9.99535
 Alpha  occ. eigenvalues --   -9.99319  -9.96901  -9.96780  -9.96766  -9.96158
 Alpha  occ. eigenvalues --   -9.95935  -9.95708  -9.95475  -9.95143  -9.94217
 Alpha  occ. eigenvalues --   -9.94169  -9.94106  -9.94072  -9.93802  -9.93624
 Alpha  occ. eigenvalues --   -9.93580  -9.93578  -9.93501  -9.93443  -9.93358
 Alpha  occ. eigenvalues --   -9.93210  -9.93087  -9.92854  -9.92843  -9.92727
 Alpha  occ. eigenvalues --   -9.92690  -9.92614  -9.92559  -9.92537  -9.92383
 Alpha  occ. eigenvalues --   -9.92258  -9.92102  -9.92082  -9.92046  -9.91870
 Alpha  occ. eigenvalues --   -9.91804  -9.91799  -9.91640  -9.91461  -9.91339
 Alpha  occ. eigenvalues --   -9.91280  -9.91208  -9.91087  -9.90978  -9.90902
 Alpha  occ. eigenvalues --   -9.90891  -9.90723  -9.90645  -9.90398  -9.90281
 Alpha  occ. eigenvalues --   -9.90258  -2.91552  -1.71994  -1.71435  -1.71256
 Alpha  occ. eigenvalues --   -0.99679  -0.97186  -0.90628  -0.89214  -0.88046
 Alpha  occ. eigenvalues --   -0.87532  -0.86940  -0.86571  -0.85639  -0.85061
 Alpha  occ. eigenvalues --   -0.76612  -0.74079  -0.73312  -0.72954  -0.72605
 Alpha  occ. eigenvalues --   -0.72164  -0.71891  -0.71092  -0.70937  -0.70661
 Alpha  occ. eigenvalues --   -0.69889  -0.69233  -0.68282  -0.67850  -0.67240
 Alpha  occ. eigenvalues --   -0.66527  -0.66284  -0.65767  -0.65390  -0.64565
 Alpha  occ. eigenvalues --   -0.64416  -0.62755  -0.62459  -0.61969  -0.61132
 Alpha  occ. eigenvalues --   -0.60829  -0.59919  -0.59847  -0.59402  -0.59050
 Alpha  occ. eigenvalues --   -0.58300  -0.57689  -0.57041  -0.55877  -0.55411
 Alpha  occ. eigenvalues --   -0.54116  -0.53705  -0.52691  -0.52189  -0.51673
 Alpha  occ. eigenvalues --   -0.51159  -0.51091  -0.50762  -0.50345  -0.50055
 Alpha  occ. eigenvalues --   -0.49838  -0.49797  -0.49216  -0.47542  -0.46636
 Alpha  occ. eigenvalues --   -0.46013  -0.45901  -0.45763  -0.45110  -0.44933
 Alpha  occ. eigenvalues --   -0.44300  -0.44060  -0.43148  -0.42601  -0.42410
 Alpha  occ. eigenvalues --   -0.42200  -0.41783  -0.41395  -0.41290  -0.40968
 Alpha  occ. eigenvalues --   -0.40723  -0.40691  -0.40466  -0.40415  -0.40088
 Alpha  occ. eigenvalues --   -0.40026  -0.39819  -0.39739  -0.39546  -0.39244
 Alpha  occ. eigenvalues --   -0.39089  -0.38759  -0.38537  -0.38375  -0.38079
 Alpha  occ. eigenvalues --   -0.38027  -0.37905  -0.37827  -0.37763  -0.37445
 Alpha  occ. eigenvalues --   -0.37247  -0.36866  -0.36718  -0.36587  -0.36491
 Alpha  occ. eigenvalues --   -0.36313  -0.36251  -0.36029  -0.35957  -0.35785
 Alpha  occ. eigenvalues --   -0.35720  -0.35434  -0.35334  -0.35112  -0.34953
 Alpha  occ. eigenvalues --   -0.34822  -0.34587  -0.34401  -0.34219  -0.34065
 Alpha  occ. eigenvalues --   -0.33860  -0.33819  -0.33639  -0.33513  -0.33395
 Alpha  occ. eigenvalues --   -0.33114  -0.32692  -0.32549  -0.32460  -0.32071
 Alpha  occ. eigenvalues --   -0.31934  -0.31916  -0.31804  -0.31721  -0.31470
 Alpha  occ. eigenvalues --   -0.31404  -0.31251  -0.31039  -0.30738  -0.30732
 Alpha  occ. eigenvalues --   -0.30600  -0.30172  -0.30069  -0.29471  -0.29408
 Alpha  occ. eigenvalues --   -0.29339  -0.29191  -0.29074  -0.29023  -0.28739
 Alpha  occ. eigenvalues --   -0.28584  -0.28464  -0.28205  -0.28092  -0.27649
 Alpha  occ. eigenvalues --   -0.27246  -0.27134  -0.26901  -0.26732  -0.26353
 Alpha  occ. eigenvalues --   -0.26193  -0.26132  -0.25562  -0.25483  -0.25041
 Alpha  occ. eigenvalues --   -0.24783  -0.24190  -0.23978  -0.23882  -0.23359
 Alpha  occ. eigenvalues --   -0.23175  -0.21915  -0.21022  -0.20587  -0.20204
 Alpha  occ. eigenvalues --   -0.20048  -0.19714  -0.19033  -0.18239  -0.17194
 Alpha  occ. eigenvalues --   -0.15720
 Alpha virt. eigenvalues --   -0.11473  -0.06959  -0.06408  -0.04542  -0.03263
 Alpha virt. eigenvalues --   -0.01982  -0.01583  -0.01476  -0.01193   0.00091
 Alpha virt. eigenvalues --    0.00966   0.01477   0.02208   0.02658   0.02708

 Mulliken charges:
               1
     1  Mg   0.680373
     2  C    0.037607
     3  C   -0.091526
     4  C   -0.048234
     5  C   -0.058917
     6  N   -0.158062
     7  C   -0.131038
     8  C    0.031689
     9  C    0.015273
    10  C    0.021336
    11  C    0.119965
    12  C    0.114247
    13  C    0.157858
    14  C    0.022568
    15  O   -0.242109
    16  O   -0.209275
    17  N   -0.310928
    18  C    0.156225
    19  C   -0.184343
    20  C    0.052285
    21  C    0.124391
    22  C    0.205024
    23  C   -0.113825
    24  O   -0.201648
    25  C    0.166244
    26  N   -0.238410
    27  C    0.011086
    28  C    0.003920
    29  C    0.036605
    30  C    0.011370
    31  C    0.141493
    32  C    0.070531
    33  C    0.093489
    34  N   -0.230260
    35  C    0.094898
    36  C   -0.173391
    37  C    0.093067
    38  C    0.065415
    39  C    0.181534
    40  C   -0.041195
    41  O   -0.132688
    42  C    0.084674
    43  C    0.078607
    44  O   -0.187430
    45  O   -0.279161
    46  C    0.196666
    47  C    0.307760
    48  C   -0.088669
    49  C   -0.203518
    50  C    0.158423
    51  C    0.112493
    52  C    0.102652
    53  C    0.129298
    54  C   -0.035369
    55  C    0.083078
    56  C    0.111230
    57  C    0.029059
    58  C    0.113145
    59  C   -0.098208
    60  C    0.126648
    61  C    0.126971
    62  C    0.037097
    63  C    0.092820
    64  C   -0.114146
    65  C    0.136814
    66  C    0.081477
    67  H   -0.074531
    68  H   -0.056211
    69  H   -0.061161
    70  H   -0.018836
    71  H   -0.027015
    72  H   -0.005543
    73  H   -0.021516
    74  H   -0.009150
    75  H   -0.035100
    76  H    0.011760
    77  H   -0.013680
    78  H    0.009809
    79  H    0.000900
    80  H   -0.008895
    81  H    0.013675
    82  H    0.003652
    83  H   -0.003129
    84  H    0.004661
    85  H   -0.026483
    86  H   -0.036881
    87  H    0.004263
    88  H    0.000820
    89  H   -0.001451
    90  H   -0.034114
    91  H   -0.031357
    92  H    0.013479
    93  H   -0.003122
    94  H    0.009087
    95  H    0.009119
    96  H    0.002206
    97  H   -0.007866
    98  H    0.006989
    99  H    0.033587
   100  H    0.019089
   101  H    0.018332
   102  H    0.011558
   103  H    0.024346
   104  H   -0.037056
   105  H    0.011285
   106  H   -0.010095
   107  H   -0.014136
   108  H   -0.046020
   109  H   -0.025840
   110  H   -0.027657
   111  H   -0.034136
   112  H   -0.027381
   113  H   -0.031859
   114  H   -0.033025
   115  H   -0.013173
   116  H   -0.016964
   117  H   -0.038485
   118  H   -0.023022
   119  H   -0.045546
   120  H   -0.032212
   121  H   -0.043065
   122  H   -0.038219
   123  H   -0.018590
   124  H   -0.029731
   125  H   -0.025435
   126  H   -0.015204
   127  H   -0.018400
   128  H   -0.034480
   129  H   -0.034042
   130  H   -0.035955
   131  H   -0.027920
   132  H   -0.020489
   133  H   -0.016054
   134  H   -0.032134
   135  H   -0.012922
   136  H   -0.024765
   137  H   -0.022818
   138  H   -0.022922
   139  H   -0.035202
   140  H   -0.012680
 Sum of Mulliken charges =  -0.00000

 Dipole moment (field-independent basis, Debye):
    X=             -3.7050    Y=              3.3591    Z=             -0.1003  Tot=              5.0020
 Quadrupole moment (field-independent basis, Debye-Ang):
   XX=           -378.9009   YY=           -434.7052   ZZ=           -406.6388
   XY=              0.5754   XZ=             25.4051   YZ=              3.6056

 Normal termination of Gaussian 16 at Thu May  5 06:38:29 2022.
