 Gaussian 16, Revision A.03,
 Gaussian 16:  ES64L-G16RevA.03 25-Dec-2016

 -----------------------------------
 #p cam-b3lyp/Def2SVP td=(nstates=5)
 -----------------------------------

 -------------------------------------------------------
 step_701_chromophore_16 TDDFT with cam-b3lyp functional
 -------------------------------------------------------
 Symbolic Z-matrix:
 Charge =  0 Multiplicity = 1

                         Standard orientation:
 ---------------------------------------------------------------------
 Center     Atomic      Atomic             Coordinates (Angstroms)
 Number     Number       Type             X           Y           Z
 ---------------------------------------------------------------------
      1         12           0        6.318269    0.599803   -0.133250
      2          6           0        4.022115   -2.192383   -0.099227
      3          6           0        3.668233    2.622830   -0.876834
      4          6           0        8.349737    3.041106    0.177432
      5          6           0        8.855568   -1.764250    0.615328
      6          7           0        4.137190    0.179178   -0.619520
      7          6           0        3.405823   -0.953978   -0.385653
      8          6           0        1.869522   -0.740856   -0.544229
      9          6           0        1.869571    0.782412   -0.884518
     10          6           0        3.335903    1.226930   -0.804062
     11          6           0        1.169076    1.220913   -2.232223
     12          6           0        1.162987   -1.204894    0.739415
     13          6           0       -0.249168   -0.766528    0.911193
     14          6           0       -1.304695   -1.932604    0.995612
     15          8           0       -1.225954   -2.910377    1.765507
     16          8           0       -2.346858   -1.772312    0.256541
     17          7           0        6.046044    2.593540   -0.461576
     18          6           0        4.894772    3.250396   -0.764595
     19          6           0        5.178725    4.649373   -0.853121
     20          6           0        6.608108    4.794672   -0.563132
     21          6           0        7.092972    3.450346   -0.306524
     22          6           0        4.145076    5.664916   -1.262573
     23          6           0        7.389100    6.080927   -0.594287
     24          8           0        8.622870    6.131859   -0.335029
     25          6           0        6.696013    7.342881   -0.904671
     26          7           0        8.322423    0.643207    0.332424
     27          6           0        8.933027    1.822716    0.457836
     28          6           0       10.266495    1.652783    1.037178
     29          6           0       10.377006    0.092745    1.445278
     30          6           0        9.088825   -0.385616    0.809471
     31          6           0       11.434564    2.271834    0.175361
     32          6           0       10.452266   -0.164110    2.990598
     33          6           0        9.316407    0.239685    3.851580
     34          7           0        6.481579   -1.533346    0.089644
     35          6           0        7.568263   -2.328266    0.331584
     36          6           0        7.177536   -3.761984    0.327847
     37          6           0        5.787995   -3.720996    0.212340
     38          6           0        5.404160   -2.392911    0.058667
     39          6           0        8.134914   -4.860143    0.519984
     40          6           0        4.647862   -4.589277    0.104182
     41          8           0        4.569380   -5.822737    0.162434
     42          6           0        3.489341   -3.563268   -0.097240
     43          6           0        2.909065   -3.887379   -1.409730
     44          8           0        3.436041   -3.870724   -2.510739
     45          8           0        1.626405   -4.349842   -1.319412
     46          6           0        1.078035   -4.856901   -2.631676
     47          6           0       -3.400175   -2.851979    0.189244
     48          6           0       -4.635395   -2.250388   -0.557167
     49          6           0       -5.979769   -2.596713   -0.447049
     50          6           0       -6.476574   -3.792961    0.305019
     51          6           0       -6.999717   -1.739104   -1.151662
     52          6           0       -7.213062   -0.334247   -0.688997
     53          6           0       -8.502858   -0.149020    0.167449
     54          6           0       -9.453790    0.851487   -0.542252
     55          6           0       -9.090202    2.347603   -0.248105
     56          6           0      -10.925801    0.645604   -0.220506
     57          6           0      -11.839396    0.220406   -1.447614
     58          6           0      -12.772490    1.350444   -1.952557
     59          6           0      -14.276868    0.810763   -1.793519
     60          6           0      -15.002873    1.230003   -3.061442
     61          6           0      -14.999955    1.333777   -0.513897
     62          6           0      -14.774320    0.438608    0.757152
     63          6           0      -14.080122    1.100781    1.994159
     64          6           0      -15.198828    1.444875    3.007776
     65          6           0      -14.806035    0.868143    4.358177
     66          6           0      -15.255435    2.960682    3.227937
     67          1           0        2.843314    3.298620   -1.112998
     68          1           0        9.029114    3.855563    0.437534
     69          1           0        9.677535   -2.399295    0.950467
     70          1           0        1.504605   -1.338831   -1.380002
     71          1           0        1.382163    1.346071   -0.089778
     72          1           0        1.053321    0.424000   -2.967119
     73          1           0        1.861974    1.938879   -2.672422
     74          1           0        0.241860    1.791185   -2.178211
     75          1           0        1.746288   -0.761754    1.545589
     76          1           0        1.186992   -2.295103    0.759433
     77          1           0       -0.611011   -0.321148   -0.015261
     78          1           0       -0.325116   -0.155906    1.810366
     79          1           0        4.147488    6.399055   -0.456891
     80          1           0        3.140578    5.260616   -1.385658
     81          1           0        4.554678    6.077626   -2.183949
     82          1           0        6.329104    7.327058   -1.930718
     83          1           0        7.475563    8.098512   -0.806067
     84          1           0        5.862799    7.380813   -0.204410
     85          1           0       10.189626    2.188746    1.982870
     86          1           0       11.227148   -0.322102    0.904373
     87          1           0       11.712046    3.199261    0.676378
     88          1           0       11.001670    2.591540   -0.772766
     89          1           0       12.242259    1.554951    0.029687
     90          1           0       11.347943    0.402661    3.246249
     91          1           0       10.884025   -1.147730    3.171977
     92          1           0        8.411824    0.671749    3.423585
     93          1           0        9.711449    1.022065    4.498945
     94          1           0        9.145923   -0.727940    4.322873
     95          1           0        7.695591   -5.835666    0.313858
     96          1           0        8.519800   -4.787453    1.537545
     97          1           0        9.003350   -4.765870   -0.132171
     98          1           0        2.746069   -3.713650    0.685509
     99          1           0        1.703642   -4.736348   -3.515703
    100          1           0        0.096986   -4.406342   -2.788162
    101          1           0        1.058403   -5.938818   -2.507831
    102          1           0       -3.742005   -3.100866    1.193864
    103          1           0       -3.068465   -3.804317   -0.225806
    104          1           0       -4.490905   -1.394619   -1.215953
    105          1           0       -6.980461   -3.547131    1.239373
    106          1           0       -5.656499   -4.506778    0.371909
    107          1           0       -7.238122   -4.269053   -0.312639
    108          1           0       -7.917917   -2.299319   -1.326835
    109          1           0       -6.567776   -1.780168   -2.151997
    110          1           0       -7.056356    0.269135   -1.583897
    111          1           0       -6.420620   -0.042852    0.001039
    112          1           0       -8.148156    0.210524    1.133260
    113          1           0       -8.917233   -1.151985    0.268983
    114          1           0       -9.392961    0.735477   -1.624041
    115          1           0       -9.749742    2.882995    0.434361
    116          1           0       -8.873636    2.852385   -1.190499
    117          1           0       -8.159047    2.603656    0.258204
    118          1           0      -11.400238    1.483152    0.289353
    119          1           0      -11.020524   -0.200847    0.459550
    120          1           0      -12.422247   -0.679328   -1.251365
    121          1           0      -11.213140   -0.084043   -2.287078
    122          1           0      -12.534417    1.359843   -3.015984
    123          1           0      -12.525455    2.342536   -1.576094
    124          1           0      -14.319716   -0.276749   -1.736080
    125          1           0      -15.731024    2.012039   -2.846365
    126          1           0      -15.480921    0.288893   -3.332043
    127          1           0      -14.367194    1.664333   -3.832401
    128          1           0      -16.087090    1.385926   -0.562256
    129          1           0      -14.654293    2.349495   -0.316483
    130          1           0      -14.073910   -0.369995    0.546031
    131          1           0      -15.720988    0.021652    1.099965
    132          1           0      -13.743155    2.086417    1.669212
    133          1           0      -13.311082    0.456093    2.419933
    134          1           0      -16.192989    1.157636    2.664423
    135          1           0      -15.350826   -0.074891    4.376590
    136          1           0      -15.049946    1.532919    5.187602
    137          1           0      -13.718701    0.799094    4.342956
    138          1           0      -15.958719    3.332041    3.973281
    139          1           0      -15.708773    3.395418    2.336113
    140          1           0      -14.267938    3.384337    3.410059
 ---------------------------------------------------------------------

 SCF Done:  E(RCAM-B3LYP) =  -3007.13275112     A.U. after   17 cycles

 Excitation energies and oscillator strengths:

 Excited State   1:      Singlet-A      1.7036 eV  727.78 nm  f=0.3892  <S**2>=0.000
     245 -> 248       -0.18954
     246 -> 247        0.68339
     245 <- 248       -0.10994
 This state for optimization and/or second-order correction.
 Total Energy, E(TD-HF/TD-DFT) =  -3007.07014555
 Copying the excited state density for this state as the 1-particle RhoCI density.

 Excited State   2:      Singlet-A      2.2213 eV  558.16 nm  f=0.0935  <S**2>=0.000
     245 -> 247        0.63180
     246 -> 248        0.30621

 Excited State   3:      Singlet-A      3.3861 eV  366.15 nm  f=0.0202  <S**2>=0.000
     242 -> 247       -0.14308
     243 -> 247        0.66371
     246 -> 248        0.13125

 Excited State   4:      Singlet-A      3.4304 eV  361.42 nm  f=0.3930  <S**2>=0.000
     242 -> 247       -0.33027
     243 -> 247       -0.19279
     245 -> 247       -0.22753
     246 -> 248        0.54036

 Excited State   5:      Singlet-A      3.5711 eV  347.19 nm  f=0.0003  <S**2>=0.000
     239 -> 247        0.53466
     239 -> 249        0.33613
     239 -> 250        0.19738
     240 -> 247        0.15201

 The electronic state is 1-A.
 Alpha  occ. eigenvalues --  -46.88417 -19.26038 -19.24304 -19.19282 -19.18616
 Alpha  occ. eigenvalues --  -19.18146 -19.17639 -14.42658 -14.41371 -14.39201
 Alpha  occ. eigenvalues --  -14.39101 -10.38602 -10.38507 -10.35091 -10.34613
 Alpha  occ. eigenvalues --  -10.33766 -10.31290 -10.31257 -10.30974 -10.30558
 Alpha  occ. eigenvalues --  -10.30425 -10.30092 -10.29767 -10.29422 -10.28863
 Alpha  occ. eigenvalues --  -10.28364 -10.28279 -10.28266 -10.27978 -10.27865
 Alpha  occ. eigenvalues --  -10.27748 -10.27748 -10.27715 -10.27642 -10.27586
 Alpha  occ. eigenvalues --  -10.27414 -10.27263 -10.27055 -10.26700 -10.26628
 Alpha  occ. eigenvalues --  -10.26587 -10.26478 -10.26413 -10.26230 -10.26100
 Alpha  occ. eigenvalues --  -10.25979 -10.25885 -10.25794 -10.25727 -10.25544
 Alpha  occ. eigenvalues --  -10.25512 -10.25486 -10.25481 -10.25100 -10.25029
 Alpha  occ. eigenvalues --  -10.24941 -10.24895 -10.24731 -10.24693 -10.24678
 Alpha  occ. eigenvalues --  -10.24596 -10.24570 -10.24391 -10.24001 -10.23837
 Alpha  occ. eigenvalues --  -10.23807  -3.16980  -1.91898  -1.91439  -1.91277
 Alpha  occ. eigenvalues --   -1.18127  -1.15826  -1.09061  -1.07578  -1.05989
 Alpha  occ. eigenvalues --   -1.05289  -1.04711  -1.04281  -1.03259  -1.02602
 Alpha  occ. eigenvalues --   -0.93890  -0.90987  -0.90174  -0.89759  -0.89319
 Alpha  occ. eigenvalues --   -0.88873  -0.88492  -0.87684  -0.87533  -0.87425
 Alpha  occ. eigenvalues --   -0.86413  -0.85571  -0.84550  -0.83978  -0.83424
 Alpha  occ. eigenvalues --   -0.82620  -0.82437  -0.81814  -0.81343  -0.80369
 Alpha  occ. eigenvalues --   -0.80261  -0.78554  -0.78165  -0.77456  -0.76540
 Alpha  occ. eigenvalues --   -0.76253  -0.75196  -0.75177  -0.74658  -0.74305
 Alpha  occ. eigenvalues --   -0.73341  -0.72704  -0.72014  -0.70694  -0.70009
 Alpha  occ. eigenvalues --   -0.68794  -0.68235  -0.67225  -0.66586  -0.65831
 Alpha  occ. eigenvalues --   -0.65351  -0.64945  -0.64870  -0.64367  -0.64096
 Alpha  occ. eigenvalues --   -0.63843  -0.63656  -0.63192  -0.61288  -0.60288
 Alpha  occ. eigenvalues --   -0.59703  -0.59450  -0.59216  -0.58687  -0.58403
 Alpha  occ. eigenvalues --   -0.57568  -0.57466  -0.56294  -0.55685  -0.55445
 Alpha  occ. eigenvalues --   -0.55364  -0.54912  -0.54482  -0.54056  -0.53639
 Alpha  occ. eigenvalues --   -0.53567  -0.53482  -0.53366  -0.53040  -0.52853
 Alpha  occ. eigenvalues --   -0.52736  -0.52584  -0.52358  -0.52208  -0.51981
 Alpha  occ. eigenvalues --   -0.51739  -0.51467  -0.51317  -0.50874  -0.50547
 Alpha  occ. eigenvalues --   -0.50417  -0.50249  -0.49969  -0.49922  -0.49657
 Alpha  occ. eigenvalues --   -0.49526  -0.49300  -0.49116  -0.48920  -0.48887
 Alpha  occ. eigenvalues --   -0.48813  -0.48679  -0.48316  -0.48295  -0.47969
 Alpha  occ. eigenvalues --   -0.47718  -0.47535  -0.47354  -0.46983  -0.46764
 Alpha  occ. eigenvalues --   -0.46616  -0.46499  -0.46329  -0.46171  -0.45931
 Alpha  occ. eigenvalues --   -0.45827  -0.45664  -0.45464  -0.45303  -0.45149
 Alpha  occ. eigenvalues --   -0.45099  -0.44459  -0.44236  -0.44051  -0.43739
 Alpha  occ. eigenvalues --   -0.43549  -0.43422  -0.43339  -0.43313  -0.43094
 Alpha  occ. eigenvalues --   -0.43042  -0.42845  -0.42562  -0.42299  -0.41970
 Alpha  occ. eigenvalues --   -0.41897  -0.41782  -0.41435  -0.41375  -0.40832
 Alpha  occ. eigenvalues --   -0.40512  -0.40483  -0.40305  -0.40143  -0.39943
 Alpha  occ. eigenvalues --   -0.39704  -0.39456  -0.39389  -0.39047  -0.38520
 Alpha  occ. eigenvalues --   -0.38052  -0.37965  -0.37830  -0.37640  -0.37570
 Alpha  occ. eigenvalues --   -0.36868  -0.36792  -0.36424  -0.36279  -0.36129
 Alpha  occ. eigenvalues --   -0.35759  -0.35698  -0.34428  -0.34326  -0.33834
 Alpha  occ. eigenvalues --   -0.33539  -0.33271  -0.32269  -0.31152  -0.30957
 Alpha  occ. eigenvalues --   -0.30673  -0.29878  -0.29493  -0.29302  -0.23987
 Alpha  occ. eigenvalues --   -0.20978
 Alpha virt. eigenvalues --   -0.08593  -0.01886   0.00027   0.02386   0.03501
 Alpha virt. eigenvalues --    0.04051   0.05220   0.05939   0.06207   0.06474
 Alpha virt. eigenvalues --    0.07935   0.08608   0.08905   0.08950   0.09076

 Mulliken charges:
               1
     1  Mg   0.815744
     2  C    0.010197
     3  C   -0.096185
     4  C   -0.072021
     5  C   -0.063722
     6  N   -0.225478
     7  C   -0.090199
     8  C   -0.010510
     9  C   -0.045458
    10  C    0.038504
    11  C    0.060582
    12  C    0.059717
    13  C    0.085017
    14  C    0.107236
    15  O   -0.286109
    16  O   -0.275330
    17  N   -0.404167
    18  C    0.161248
    19  C   -0.183929
    20  C   -0.022544
    21  C    0.154834
    22  C    0.144516
    23  C   -0.025215
    24  O   -0.243548
    25  C    0.078019
    26  N   -0.316217
    27  C    0.036738
    28  C   -0.055571
    29  C   -0.018675
    30  C    0.029333
    31  C    0.082440
    32  C    0.020420
    33  C    0.024361
    34  N   -0.316127
    35  C    0.099170
    36  C   -0.164566
    37  C    0.013051
    38  C    0.104067
    39  C    0.123769
    40  C    0.060504
    41  O   -0.171035
    42  C   -0.005499
    43  C    0.170584
    44  O   -0.226274
    45  O   -0.341959
    46  C    0.158932
    47  C    0.283175
    48  C   -0.115321
    49  C   -0.217899
    50  C    0.094954
    51  C    0.048464
    52  C    0.040883
    53  C    0.078208
    54  C   -0.093378
    55  C    0.024440
    56  C    0.061327
    57  C   -0.020985
    58  C    0.055398
    59  C   -0.152406
    60  C    0.065783
    61  C    0.075980
    62  C   -0.015686
    63  C    0.039616
    64  C   -0.172820
    65  C    0.074685
    66  C    0.022467
    67  H   -0.039876
    68  H   -0.015540
    69  H   -0.026134
    70  H    0.013829
    71  H    0.008510
    72  H    0.020512
    73  H    0.004384
    74  H    0.016044
    75  H   -0.001507
    76  H    0.040137
    77  H    0.019799
    78  H    0.042437
    79  H    0.026883
    80  H    0.019840
    81  H    0.038904
    82  H    0.032327
    83  H    0.034258
    84  H    0.030024
    85  H    0.009251
    86  H   -0.000172
    87  H    0.027533
    88  H    0.027056
    89  H    0.021863
    90  H   -0.004470
    91  H   -0.002042
    92  H    0.035174
    93  H    0.020183
    94  H    0.032259
    95  H    0.037322
    96  H    0.027806
    97  H    0.018411
    98  H    0.053597
    99  H    0.061438
   100  H    0.039485
   101  H    0.041211
   102  H    0.041196
   103  H    0.050512
   104  H   -0.002753
   105  H    0.035634
   106  H    0.013425
   107  H    0.010929
   108  H   -0.014451
   109  H    0.006688
   110  H    0.001294
   111  H   -0.002378
   112  H    0.001900
   113  H   -0.004676
   114  H   -0.001372
   115  H    0.011217
   116  H    0.007047
   117  H   -0.012947
   118  H    0.000818
   119  H   -0.016716
   120  H   -0.004889
   121  H   -0.014560
   122  H   -0.007179
   123  H    0.008405
   124  H    0.001828
   125  H   -0.000338
   126  H    0.008546
   127  H    0.006286
   128  H   -0.004465
   129  H   -0.008234
   130  H   -0.009956
   131  H    0.000255
   132  H    0.005336
   133  H    0.011917
   134  H   -0.001727
   135  H    0.011683
   136  H    0.001132
   137  H    0.000807
   138  H    0.003187
   139  H   -0.010667
   140  H    0.010993
 Sum of Mulliken charges =  -0.00000

 Dipole moment (field-independent basis, Debye):
    X=             -3.9998    Y=              3.8993    Z=             -0.2871  Tot=              5.5933
 Quadrupole moment (field-independent basis, Debye-Ang):
   XX=           -379.7297   YY=           -430.4176   ZZ=           -406.8036
   XY=              2.2357   XZ=             25.6373   YZ=              3.4373

 Normal termination of Gaussian 16 at Thu May  5 05:34:45 2022.
