 Gaussian 16, Revision A.03,
 Gaussian 16:  ES64L-G16RevA.03 25-Dec-2016

 ---------------------------------
 #p PBE1PBE/Def2SVP td=(nstates=5)
 ---------------------------------

 -----------------------------------------------------
 step_701_chromophore_16 TDDFT with PBE1PBE functional
 -----------------------------------------------------
 Symbolic Z-matrix:
 Charge =  0 Multiplicity = 1

                         Standard orientation:
 ---------------------------------------------------------------------
 Center     Atomic      Atomic             Coordinates (Angstroms)
 Number     Number       Type             X           Y           Z
 ---------------------------------------------------------------------
      1         12           0        6.318269    0.599803   -0.133250
      2          6           0        4.022115   -2.192383   -0.099227
      3          6           0        3.668233    2.622830   -0.876834
      4          6           0        8.349737    3.041106    0.177432
      5          6           0        8.855568   -1.764250    0.615328
      6          7           0        4.137190    0.179178   -0.619520
      7          6           0        3.405823   -0.953978   -0.385653
      8          6           0        1.869522   -0.740856   -0.544229
      9          6           0        1.869571    0.782412   -0.884518
     10          6           0        3.335903    1.226930   -0.804062
     11          6           0        1.169076    1.220913   -2.232223
     12          6           0        1.162987   -1.204894    0.739415
     13          6           0       -0.249168   -0.766528    0.911193
     14          6           0       -1.304695   -1.932604    0.995612
     15          8           0       -1.225954   -2.910377    1.765507
     16          8           0       -2.346858   -1.772312    0.256541
     17          7           0        6.046044    2.593540   -0.461576
     18          6           0        4.894772    3.250396   -0.764595
     19          6           0        5.178725    4.649373   -0.853121
     20          6           0        6.608108    4.794672   -0.563132
     21          6           0        7.092972    3.450346   -0.306524
     22          6           0        4.145076    5.664916   -1.262573
     23          6           0        7.389100    6.080927   -0.594287
     24          8           0        8.622870    6.131859   -0.335029
     25          6           0        6.696013    7.342881   -0.904671
     26          7           0        8.322423    0.643207    0.332424
     27          6           0        8.933027    1.822716    0.457836
     28          6           0       10.266495    1.652783    1.037178
     29          6           0       10.377006    0.092745    1.445278
     30          6           0        9.088825   -0.385616    0.809471
     31          6           0       11.434564    2.271834    0.175361
     32          6           0       10.452266   -0.164110    2.990598
     33          6           0        9.316407    0.239685    3.851580
     34          7           0        6.481579   -1.533346    0.089644
     35          6           0        7.568263   -2.328266    0.331584
     36          6           0        7.177536   -3.761984    0.327847
     37          6           0        5.787995   -3.720996    0.212340
     38          6           0        5.404160   -2.392911    0.058667
     39          6           0        8.134914   -4.860143    0.519984
     40          6           0        4.647862   -4.589277    0.104182
     41          8           0        4.569380   -5.822737    0.162434
     42          6           0        3.489341   -3.563268   -0.097240
     43          6           0        2.909065   -3.887379   -1.409730
     44          8           0        3.436041   -3.870724   -2.510739
     45          8           0        1.626405   -4.349842   -1.319412
     46          6           0        1.078035   -4.856901   -2.631676
     47          6           0       -3.400175   -2.851979    0.189244
     48          6           0       -4.635395   -2.250388   -0.557167
     49          6           0       -5.979769   -2.596713   -0.447049
     50          6           0       -6.476574   -3.792961    0.305019
     51          6           0       -6.999717   -1.739104   -1.151662
     52          6           0       -7.213062   -0.334247   -0.688997
     53          6           0       -8.502858   -0.149020    0.167449
     54          6           0       -9.453790    0.851487   -0.542252
     55          6           0       -9.090202    2.347603   -0.248105
     56          6           0      -10.925801    0.645604   -0.220506
     57          6           0      -11.839396    0.220406   -1.447614
     58          6           0      -12.772490    1.350444   -1.952557
     59          6           0      -14.276868    0.810763   -1.793519
     60          6           0      -15.002873    1.230003   -3.061442
     61          6           0      -14.999955    1.333777   -0.513897
     62          6           0      -14.774320    0.438608    0.757152
     63          6           0      -14.080122    1.100781    1.994159
     64          6           0      -15.198828    1.444875    3.007776
     65          6           0      -14.806035    0.868143    4.358177
     66          6           0      -15.255435    2.960682    3.227937
     67          1           0        2.843314    3.298620   -1.112998
     68          1           0        9.029114    3.855563    0.437534
     69          1           0        9.677535   -2.399295    0.950467
     70          1           0        1.504605   -1.338831   -1.380002
     71          1           0        1.382163    1.346071   -0.089778
     72          1           0        1.053321    0.424000   -2.967119
     73          1           0        1.861974    1.938879   -2.672422
     74          1           0        0.241860    1.791185   -2.178211
     75          1           0        1.746288   -0.761754    1.545589
     76          1           0        1.186992   -2.295103    0.759433
     77          1           0       -0.611011   -0.321148   -0.015261
     78          1           0       -0.325116   -0.155906    1.810366
     79          1           0        4.147488    6.399055   -0.456891
     80          1           0        3.140578    5.260616   -1.385658
     81          1           0        4.554678    6.077626   -2.183949
     82          1           0        6.329104    7.327058   -1.930718
     83          1           0        7.475563    8.098512   -0.806067
     84          1           0        5.862799    7.380813   -0.204410
     85          1           0       10.189626    2.188746    1.982870
     86          1           0       11.227148   -0.322102    0.904373
     87          1           0       11.712046    3.199261    0.676378
     88          1           0       11.001670    2.591540   -0.772766
     89          1           0       12.242259    1.554951    0.029687
     90          1           0       11.347943    0.402661    3.246249
     91          1           0       10.884025   -1.147730    3.171977
     92          1           0        8.411824    0.671749    3.423585
     93          1           0        9.711449    1.022065    4.498945
     94          1           0        9.145923   -0.727940    4.322873
     95          1           0        7.695591   -5.835666    0.313858
     96          1           0        8.519800   -4.787453    1.537545
     97          1           0        9.003350   -4.765870   -0.132171
     98          1           0        2.746069   -3.713650    0.685509
     99          1           0        1.703642   -4.736348   -3.515703
    100          1           0        0.096986   -4.406342   -2.788162
    101          1           0        1.058403   -5.938818   -2.507831
    102          1           0       -3.742005   -3.100866    1.193864
    103          1           0       -3.068465   -3.804317   -0.225806
    104          1           0       -4.490905   -1.394619   -1.215953
    105          1           0       -6.980461   -3.547131    1.239373
    106          1           0       -5.656499   -4.506778    0.371909
    107          1           0       -7.238122   -4.269053   -0.312639
    108          1           0       -7.917917   -2.299319   -1.326835
    109          1           0       -6.567776   -1.780168   -2.151997
    110          1           0       -7.056356    0.269135   -1.583897
    111          1           0       -6.420620   -0.042852    0.001039
    112          1           0       -8.148156    0.210524    1.133260
    113          1           0       -8.917233   -1.151985    0.268983
    114          1           0       -9.392961    0.735477   -1.624041
    115          1           0       -9.749742    2.882995    0.434361
    116          1           0       -8.873636    2.852385   -1.190499
    117          1           0       -8.159047    2.603656    0.258204
    118          1           0      -11.400238    1.483152    0.289353
    119          1           0      -11.020524   -0.200847    0.459550
    120          1           0      -12.422247   -0.679328   -1.251365
    121          1           0      -11.213140   -0.084043   -2.287078
    122          1           0      -12.534417    1.359843   -3.015984
    123          1           0      -12.525455    2.342536   -1.576094
    124          1           0      -14.319716   -0.276749   -1.736080
    125          1           0      -15.731024    2.012039   -2.846365
    126          1           0      -15.480921    0.288893   -3.332043
    127          1           0      -14.367194    1.664333   -3.832401
    128          1           0      -16.087090    1.385926   -0.562256
    129          1           0      -14.654293    2.349495   -0.316483
    130          1           0      -14.073910   -0.369995    0.546031
    131          1           0      -15.720988    0.021652    1.099965
    132          1           0      -13.743155    2.086417    1.669212
    133          1           0      -13.311082    0.456093    2.419933
    134          1           0      -16.192989    1.157636    2.664423
    135          1           0      -15.350826   -0.074891    4.376590
    136          1           0      -15.049946    1.532919    5.187602
    137          1           0      -13.718701    0.799094    4.342956
    138          1           0      -15.958719    3.332041    3.973281
    139          1           0      -15.708773    3.395418    2.336113
    140          1           0      -14.267938    3.384337    3.410059
 ---------------------------------------------------------------------

 SCF Done:  E(RPBE1PBE) =  -3005.32337024     A.U. after   15 cycles

 Excitation energies and oscillator strengths:

 Excited State   1:      Singlet-A      1.8567 eV  667.78 nm  f=0.3739  <S**2>=0.000
     245 -> 248        0.18363
     246 -> 247        0.69098
     246 <- 247       -0.10820
 This state for optimization and/or second-order correction.
 Total Energy, E(TD-HF/TD-DFT) =  -3005.25513944
 Copying the excited state density for this state as the 1-particle RhoCI density.

 Excited State   2:      Singlet-A      2.2153 eV  559.68 nm  f=0.0943  <S**2>=0.000
     245 -> 247        0.64652
     246 -> 248       -0.27520

 Excited State   3:      Singlet-A      3.0261 eV  409.72 nm  f=0.0008  <S**2>=0.000
     242 -> 247        0.56683
     242 -> 249        0.14642
     242 -> 250       -0.10910
     243 -> 247       -0.35810

 Excited State   4:      Singlet-A      3.0636 eV  404.70 nm  f=0.0005  <S**2>=0.000
     242 -> 247        0.34607
     243 -> 247        0.60227

 Excited State   5:      Singlet-A      3.1121 eV  398.40 nm  f=0.0007  <S**2>=0.000
     240 -> 247        0.65715
     240 -> 249       -0.19846
     241 -> 247        0.10309

 The electronic state is 1-A.
 Alpha  occ. eigenvalues --  -46.91810 -19.26703 -19.24921 -19.19506 -19.18814
 Alpha  occ. eigenvalues --  -19.18374 -19.17999 -14.42065 -14.40963 -14.38862
 Alpha  occ. eigenvalues --  -14.38781 -10.35687 -10.35479 -10.32227 -10.31711
 Alpha  occ. eigenvalues --  -10.31183 -10.29104 -10.28979 -10.28327 -10.28199
 Alpha  occ. eigenvalues --  -10.28033 -10.27737 -10.27530 -10.27057 -10.26452
 Alpha  occ. eigenvalues --  -10.26108 -10.26065 -10.26054 -10.25600 -10.25599
 Alpha  occ. eigenvalues --  -10.25550 -10.25466 -10.25401 -10.25074 -10.25033
 Alpha  occ. eigenvalues --  -10.24984 -10.24956 -10.24909 -10.24434 -10.24228
 Alpha  occ. eigenvalues --  -10.24178 -10.24143 -10.23881 -10.23800 -10.23588
 Alpha  occ. eigenvalues --  -10.23525 -10.23410 -10.23262 -10.23234 -10.23186
 Alpha  occ. eigenvalues --  -10.23047 -10.23038 -10.22971 -10.22658 -10.22611
 Alpha  occ. eigenvalues --  -10.22595 -10.22497 -10.22440 -10.22257 -10.22169
 Alpha  occ. eigenvalues --  -10.22154 -10.22106 -10.21957 -10.21402 -10.21224
 Alpha  occ. eigenvalues --  -10.21206  -3.13955  -1.86815  -1.86334  -1.86176
 Alpha  occ. eigenvalues --   -1.13005  -1.10543  -1.03778  -1.02258  -1.00767
 Alpha  occ. eigenvalues --   -1.00171  -0.99319  -0.98903  -0.97930  -0.97304
 Alpha  occ. eigenvalues --   -0.88255  -0.85113  -0.84385  -0.83846  -0.83623
 Alpha  occ. eigenvalues --   -0.82988  -0.82790  -0.81872  -0.81804  -0.81640
 Alpha  occ. eigenvalues --   -0.80761  -0.79821  -0.78762  -0.78292  -0.77691
 Alpha  occ. eigenvalues --   -0.76875  -0.76611  -0.76012  -0.75602  -0.74720
 Alpha  occ. eigenvalues --   -0.74399  -0.72849  -0.72419  -0.71776  -0.70720
 Alpha  occ. eigenvalues --   -0.70537  -0.69550  -0.69276  -0.68807  -0.68468
 Alpha  occ. eigenvalues --   -0.67666  -0.67137  -0.66448  -0.65011  -0.64404
 Alpha  occ. eigenvalues --   -0.63285  -0.62495  -0.61644  -0.60814  -0.60277
 Alpha  occ. eigenvalues --   -0.59608  -0.59503  -0.59377  -0.58912  -0.58229
 Alpha  occ. eigenvalues --   -0.58148  -0.57990  -0.57338  -0.55851  -0.54832
 Alpha  occ. eigenvalues --   -0.54197  -0.54025  -0.53647  -0.53059  -0.53017
 Alpha  occ. eigenvalues --   -0.52116  -0.51917  -0.50885  -0.50127  -0.49968
 Alpha  occ. eigenvalues --   -0.49878  -0.49400  -0.49032  -0.48580  -0.48090
 Alpha  occ. eigenvalues --   -0.48046  -0.47895  -0.47825  -0.47613  -0.47430
 Alpha  occ. eigenvalues --   -0.47321  -0.47064  -0.46930  -0.46683  -0.46567
 Alpha  occ. eigenvalues --   -0.46261  -0.46035  -0.45900  -0.45425  -0.45127
 Alpha  occ. eigenvalues --   -0.45001  -0.44773  -0.44652  -0.44483  -0.44276
 Alpha  occ. eigenvalues --   -0.44116  -0.43917  -0.43671  -0.43516  -0.43457
 Alpha  occ. eigenvalues --   -0.43415  -0.43270  -0.42948  -0.42865  -0.42624
 Alpha  occ. eigenvalues --   -0.42310  -0.42261  -0.42029  -0.41592  -0.41354
 Alpha  occ. eigenvalues --   -0.41276  -0.41164  -0.41060  -0.40870  -0.40649
 Alpha  occ. eigenvalues --   -0.40538  -0.40406  -0.40164  -0.40043  -0.39851
 Alpha  occ. eigenvalues --   -0.39775  -0.39257  -0.39045  -0.38725  -0.38487
 Alpha  occ. eigenvalues --   -0.38367  -0.38237  -0.38146  -0.38045  -0.37893
 Alpha  occ. eigenvalues --   -0.37814  -0.37669  -0.37313  -0.37154  -0.36801
 Alpha  occ. eigenvalues --   -0.36706  -0.36531  -0.36305  -0.36226  -0.35630
 Alpha  occ. eigenvalues --   -0.35334  -0.35293  -0.35193  -0.35049  -0.34830
 Alpha  occ. eigenvalues --   -0.34453  -0.34375  -0.34126  -0.33772  -0.33298
 Alpha  occ. eigenvalues --   -0.32875  -0.32810  -0.32781  -0.32581  -0.32480
 Alpha  occ. eigenvalues --   -0.31871  -0.31725  -0.31485  -0.31131  -0.31084
 Alpha  occ. eigenvalues --   -0.30649  -0.30517  -0.29529  -0.29368  -0.29119
 Alpha  occ. eigenvalues --   -0.28502  -0.28313  -0.27062  -0.26614  -0.25983
 Alpha  occ. eigenvalues --   -0.25536  -0.25399  -0.25141  -0.24608  -0.20916
 Alpha  occ. eigenvalues --   -0.18639
 Alpha virt. eigenvalues --   -0.11071  -0.05363  -0.04184  -0.02007  -0.00348
 Alpha virt. eigenvalues --    0.00718   0.01129   0.01596   0.01682   0.02735
 Alpha virt. eigenvalues --    0.03791   0.04613   0.05169   0.05606   0.05636

 Mulliken charges:
               1
     1  Mg   0.968533
     2  C   -0.006491
     3  C   -0.085562
     4  C   -0.061644
     5  C   -0.046498
     6  N   -0.336196
     7  C   -0.018507
     8  C   -0.078029
     9  C   -0.120063
    10  C    0.078089
    11  C    0.002806
    12  C    0.006998
    13  C    0.004707
    14  C    0.180341
    15  O   -0.317208
    16  O   -0.309334
    17  N   -0.526454
    18  C    0.190105
    19  C   -0.211116
    20  C   -0.073668
    21  C    0.190852
    22  C    0.077507
    23  C    0.030008
    24  O   -0.280664
    25  C    0.000109
    26  N   -0.426112
    27  C    0.066489
    28  C   -0.125377
    29  C   -0.099645
    30  C    0.068009
    31  C    0.021285
    32  C   -0.038750
    33  C   -0.049749
    34  N   -0.437704
    35  C    0.118022
    36  C   -0.180034
    37  C   -0.035010
    38  C    0.162065
    39  C    0.068418
    40  C    0.156711
    41  O   -0.219514
    42  C   -0.125114
    43  C    0.269313
    44  O   -0.262438
    45  O   -0.374011
    46  C    0.102717
    47  C    0.244470
    48  C   -0.128948
    49  C   -0.256590
    50  C    0.029891
    51  C   -0.016439
    52  C   -0.019658
    53  C    0.021336
    54  C   -0.183122
    55  C   -0.028031
    56  C    0.007972
    57  C   -0.081053
    58  C    0.001465
    59  C   -0.240754
    60  C    0.006622
    61  C    0.027486
    62  C   -0.080480
    63  C   -0.011939
    64  C   -0.266109
    65  C    0.013902
    66  C   -0.041663
    67  H   -0.007501
    68  H    0.018060
    69  H    0.004671
    70  H    0.052729
    71  H    0.047081
    72  H    0.047818
    73  H    0.032869
    74  H    0.042607
    75  H    0.032356
    76  H    0.076607
    77  H    0.054436
    78  H    0.073730
    79  H    0.055645
    80  H    0.047151
    81  H    0.067484
    82  H    0.059984
    83  H    0.061523
    84  H    0.057849
    85  H    0.048633
    86  H    0.036256
    87  H    0.054248
    88  H    0.055654
    89  H    0.048845
    90  H    0.030111
    91  H    0.029513
    92  H    0.064379
    93  H    0.047175
    94  H    0.059350
    95  H    0.065177
    96  H    0.055875
    97  H    0.046195
    98  H    0.089880
    99  H    0.082368
   100  H    0.060725
   101  H    0.063493
   102  H    0.067195
   103  H    0.075038
   104  H    0.027196
   105  H    0.062830
   106  H    0.040942
   107  H    0.039090
   108  H    0.017207
   109  H    0.040285
   110  H    0.031575
   111  H    0.031077
   112  H    0.034287
   113  H    0.027817
   114  H    0.036946
   115  H    0.036662
   116  H    0.033876
   117  H    0.013981
   118  H    0.035233
   119  H    0.016885
   120  H    0.025205
   121  H    0.017591
   122  H    0.026910
   123  H    0.037817
   124  H    0.038368
   125  H    0.027345
   126  H    0.036105
   127  H    0.032694
   128  H    0.027603
   129  H    0.023634
   130  H    0.024450
   131  H    0.032865
   132  H    0.038243
   133  H    0.041923
   134  H    0.033813
   135  H    0.040386
   136  H    0.029026
   137  H    0.028237
   138  H    0.031688
   139  H    0.019741
   140  H    0.038714
 Sum of Mulliken charges =  -0.00000

 Dipole moment (field-independent basis, Debye):
    X=             -3.8448    Y=              3.8266    Z=             -0.1966  Tot=              5.4281
 Quadrupole moment (field-independent basis, Debye-Ang):
   XX=           -372.2267   YY=           -428.0572   ZZ=           -404.3414
   XY=              1.0862   XZ=             27.0989   YZ=              3.3072

 Normal termination of Gaussian 16 at Thu May  5 05:53:43 2022.
