 Gaussian 16, Revision A.03,
 Gaussian 16:  ES64L-G16RevA.03 25-Dec-2016

 --------------------------------
 #p wB97XD/Def2SVP td=(nstates=5)
 --------------------------------

 ----------------------------------------------------
 step_701_chromophore_16 TDDFT with wB97XD functional
 ----------------------------------------------------
 Symbolic Z-matrix:
 Charge =  0 Multiplicity = 1

                         Standard orientation:
 ---------------------------------------------------------------------
 Center     Atomic      Atomic             Coordinates (Angstroms)
 Number     Number       Type             X           Y           Z
 ---------------------------------------------------------------------
      1         12           0        6.318269    0.599803   -0.133250
      2          6           0        4.022115   -2.192383   -0.099227
      3          6           0        3.668233    2.622830   -0.876834
      4          6           0        8.349737    3.041106    0.177432
      5          6           0        8.855568   -1.764250    0.615328
      6          7           0        4.137190    0.179178   -0.619520
      7          6           0        3.405823   -0.953978   -0.385653
      8          6           0        1.869522   -0.740856   -0.544229
      9          6           0        1.869571    0.782412   -0.884518
     10          6           0        3.335903    1.226930   -0.804062
     11          6           0        1.169076    1.220913   -2.232223
     12          6           0        1.162987   -1.204894    0.739415
     13          6           0       -0.249168   -0.766528    0.911193
     14          6           0       -1.304695   -1.932604    0.995612
     15          8           0       -1.225954   -2.910377    1.765507
     16          8           0       -2.346858   -1.772312    0.256541
     17          7           0        6.046044    2.593540   -0.461576
     18          6           0        4.894772    3.250396   -0.764595
     19          6           0        5.178725    4.649373   -0.853121
     20          6           0        6.608108    4.794672   -0.563132
     21          6           0        7.092972    3.450346   -0.306524
     22          6           0        4.145076    5.664916   -1.262573
     23          6           0        7.389100    6.080927   -0.594287
     24          8           0        8.622870    6.131859   -0.335029
     25          6           0        6.696013    7.342881   -0.904671
     26          7           0        8.322423    0.643207    0.332424
     27          6           0        8.933027    1.822716    0.457836
     28          6           0       10.266495    1.652783    1.037178
     29          6           0       10.377006    0.092745    1.445278
     30          6           0        9.088825   -0.385616    0.809471
     31          6           0       11.434564    2.271834    0.175361
     32          6           0       10.452266   -0.164110    2.990598
     33          6           0        9.316407    0.239685    3.851580
     34          7           0        6.481579   -1.533346    0.089644
     35          6           0        7.568263   -2.328266    0.331584
     36          6           0        7.177536   -3.761984    0.327847
     37          6           0        5.787995   -3.720996    0.212340
     38          6           0        5.404160   -2.392911    0.058667
     39          6           0        8.134914   -4.860143    0.519984
     40          6           0        4.647862   -4.589277    0.104182
     41          8           0        4.569380   -5.822737    0.162434
     42          6           0        3.489341   -3.563268   -0.097240
     43          6           0        2.909065   -3.887379   -1.409730
     44          8           0        3.436041   -3.870724   -2.510739
     45          8           0        1.626405   -4.349842   -1.319412
     46          6           0        1.078035   -4.856901   -2.631676
     47          6           0       -3.400175   -2.851979    0.189244
     48          6           0       -4.635395   -2.250388   -0.557167
     49          6           0       -5.979769   -2.596713   -0.447049
     50          6           0       -6.476574   -3.792961    0.305019
     51          6           0       -6.999717   -1.739104   -1.151662
     52          6           0       -7.213062   -0.334247   -0.688997
     53          6           0       -8.502858   -0.149020    0.167449
     54          6           0       -9.453790    0.851487   -0.542252
     55          6           0       -9.090202    2.347603   -0.248105
     56          6           0      -10.925801    0.645604   -0.220506
     57          6           0      -11.839396    0.220406   -1.447614
     58          6           0      -12.772490    1.350444   -1.952557
     59          6           0      -14.276868    0.810763   -1.793519
     60          6           0      -15.002873    1.230003   -3.061442
     61          6           0      -14.999955    1.333777   -0.513897
     62          6           0      -14.774320    0.438608    0.757152
     63          6           0      -14.080122    1.100781    1.994159
     64          6           0      -15.198828    1.444875    3.007776
     65          6           0      -14.806035    0.868143    4.358177
     66          6           0      -15.255435    2.960682    3.227937
     67          1           0        2.843314    3.298620   -1.112998
     68          1           0        9.029114    3.855563    0.437534
     69          1           0        9.677535   -2.399295    0.950467
     70          1           0        1.504605   -1.338831   -1.380002
     71          1           0        1.382163    1.346071   -0.089778
     72          1           0        1.053321    0.424000   -2.967119
     73          1           0        1.861974    1.938879   -2.672422
     74          1           0        0.241860    1.791185   -2.178211
     75          1           0        1.746288   -0.761754    1.545589
     76          1           0        1.186992   -2.295103    0.759433
     77          1           0       -0.611011   -0.321148   -0.015261
     78          1           0       -0.325116   -0.155906    1.810366
     79          1           0        4.147488    6.399055   -0.456891
     80          1           0        3.140578    5.260616   -1.385658
     81          1           0        4.554678    6.077626   -2.183949
     82          1           0        6.329104    7.327058   -1.930718
     83          1           0        7.475563    8.098512   -0.806067
     84          1           0        5.862799    7.380813   -0.204410
     85          1           0       10.189626    2.188746    1.982870
     86          1           0       11.227148   -0.322102    0.904373
     87          1           0       11.712046    3.199261    0.676378
     88          1           0       11.001670    2.591540   -0.772766
     89          1           0       12.242259    1.554951    0.029687
     90          1           0       11.347943    0.402661    3.246249
     91          1           0       10.884025   -1.147730    3.171977
     92          1           0        8.411824    0.671749    3.423585
     93          1           0        9.711449    1.022065    4.498945
     94          1           0        9.145923   -0.727940    4.322873
     95          1           0        7.695591   -5.835666    0.313858
     96          1           0        8.519800   -4.787453    1.537545
     97          1           0        9.003350   -4.765870   -0.132171
     98          1           0        2.746069   -3.713650    0.685509
     99          1           0        1.703642   -4.736348   -3.515703
    100          1           0        0.096986   -4.406342   -2.788162
    101          1           0        1.058403   -5.938818   -2.507831
    102          1           0       -3.742005   -3.100866    1.193864
    103          1           0       -3.068465   -3.804317   -0.225806
    104          1           0       -4.490905   -1.394619   -1.215953
    105          1           0       -6.980461   -3.547131    1.239373
    106          1           0       -5.656499   -4.506778    0.371909
    107          1           0       -7.238122   -4.269053   -0.312639
    108          1           0       -7.917917   -2.299319   -1.326835
    109          1           0       -6.567776   -1.780168   -2.151997
    110          1           0       -7.056356    0.269135   -1.583897
    111          1           0       -6.420620   -0.042852    0.001039
    112          1           0       -8.148156    0.210524    1.133260
    113          1           0       -8.917233   -1.151985    0.268983
    114          1           0       -9.392961    0.735477   -1.624041
    115          1           0       -9.749742    2.882995    0.434361
    116          1           0       -8.873636    2.852385   -1.190499
    117          1           0       -8.159047    2.603656    0.258204
    118          1           0      -11.400238    1.483152    0.289353
    119          1           0      -11.020524   -0.200847    0.459550
    120          1           0      -12.422247   -0.679328   -1.251365
    121          1           0      -11.213140   -0.084043   -2.287078
    122          1           0      -12.534417    1.359843   -3.015984
    123          1           0      -12.525455    2.342536   -1.576094
    124          1           0      -14.319716   -0.276749   -1.736080
    125          1           0      -15.731024    2.012039   -2.846365
    126          1           0      -15.480921    0.288893   -3.332043
    127          1           0      -14.367194    1.664333   -3.832401
    128          1           0      -16.087090    1.385926   -0.562256
    129          1           0      -14.654293    2.349495   -0.316483
    130          1           0      -14.073910   -0.369995    0.546031
    131          1           0      -15.720988    0.021652    1.099965
    132          1           0      -13.743155    2.086417    1.669212
    133          1           0      -13.311082    0.456093    2.419933
    134          1           0      -16.192989    1.157636    2.664423
    135          1           0      -15.350826   -0.074891    4.376590
    136          1           0      -15.049946    1.532919    5.187602
    137          1           0      -13.718701    0.799094    4.342956
    138          1           0      -15.958719    3.332041    3.973281
    139          1           0      -15.708773    3.395418    2.336113
    140          1           0      -14.267938    3.384337    3.410059
 ---------------------------------------------------------------------

 SCF Done:  E(RwB97XD) =  -3007.83066461     A.U. after   17 cycles

 Excitation energies and oscillator strengths:

 Excited State   1:      Singlet-A      1.6432 eV  754.51 nm  f=0.3872  <S**2>=0.000
     245 -> 248        0.19511
     246 -> 247        0.68109
     245 <- 248        0.11945
 This state for optimization and/or second-order correction.
 Total Energy, E(TD-HF/TD-DFT) =  -3007.77027679
 Copying the excited state density for this state as the 1-particle RhoCI density.

 Excited State   2:      Singlet-A      2.1641 eV  572.92 nm  f=0.0907  <S**2>=0.000
     245 -> 247        0.63005
     246 -> 248       -0.30810

 Excited State   3:      Singlet-A      3.4080 eV  363.80 nm  f=0.0387  <S**2>=0.000
     242 -> 247       -0.16192
     243 -> 247        0.64316
     246 -> 248       -0.17438

 Excited State   4:      Singlet-A      3.4412 eV  360.29 nm  f=0.4063  <S**2>=0.000
     242 -> 247        0.30473
     243 -> 247        0.23822
     245 -> 247        0.22675
     246 -> 248        0.53653

 Excited State   5:      Singlet-A      3.5941 eV  344.96 nm  f=0.0002  <S**2>=0.000
     239 -> 247        0.29592
     239 -> 249        0.20706
     239 -> 250        0.11906
     240 -> 247        0.45239
     240 -> 249        0.30165
     240 -> 250        0.17600

 The electronic state is 1-A.
 Alpha  occ. eigenvalues --  -46.94750 -19.31261 -19.29531 -19.24362 -19.23563
 Alpha  occ. eigenvalues --  -19.23195 -19.22629 -14.47257 -14.45932 -14.43800
 Alpha  occ. eigenvalues --  -14.43716 -10.42421 -10.42348 -10.39137 -10.38579
 Alpha  occ. eigenvalues --  -10.37702 -10.35329 -10.35270 -10.34729 -10.34562
 Alpha  occ. eigenvalues --  -10.34466 -10.34076 -10.33804 -10.33436 -10.33029
 Alpha  occ. eigenvalues --  -10.32370 -10.32331 -10.32326 -10.32022 -10.31992
 Alpha  occ. eigenvalues --  -10.31877 -10.31761 -10.31758 -10.31597 -10.31507
 Alpha  occ. eigenvalues --  -10.31504 -10.31378 -10.31077 -10.30724 -10.30614
 Alpha  occ. eigenvalues --  -10.30559 -10.30395 -10.30290 -10.30100 -10.30048
 Alpha  occ. eigenvalues --  -10.29851 -10.29783 -10.29744 -10.29598 -10.29545
 Alpha  occ. eigenvalues --  -10.29426 -10.29418 -10.29336 -10.29036 -10.28959
 Alpha  occ. eigenvalues --  -10.28873 -10.28837 -10.28774 -10.28611 -10.28534
 Alpha  occ. eigenvalues --  -10.28522 -10.28492 -10.28326 -10.27829 -10.27644
 Alpha  occ. eigenvalues --  -10.27622  -3.20745  -1.94355  -1.93877  -1.93714
 Alpha  occ. eigenvalues --   -1.20351  -1.17985  -1.11312  -1.09785  -1.08187
 Alpha  occ. eigenvalues --   -1.07493  -1.06705  -1.06273  -1.05307  -1.04651
 Alpha  occ. eigenvalues --   -0.95893  -0.92793  -0.92028  -0.91509  -0.91218
 Alpha  occ. eigenvalues --   -0.90651  -0.90363  -0.89468  -0.89457  -0.89363
 Alpha  occ. eigenvalues --   -0.88365  -0.87464  -0.86419  -0.85863  -0.85336
 Alpha  occ. eigenvalues --   -0.84537  -0.84303  -0.83701  -0.83251  -0.82332
 Alpha  occ. eigenvalues --   -0.82074  -0.80523  -0.80084  -0.79371  -0.78391
 Alpha  occ. eigenvalues --   -0.78176  -0.77116  -0.76975  -0.76482  -0.76130
 Alpha  occ. eigenvalues --   -0.75272  -0.74682  -0.73987  -0.72619  -0.71920
 Alpha  occ. eigenvalues --   -0.70814  -0.70121  -0.69223  -0.68450  -0.67790
 Alpha  occ. eigenvalues --   -0.67216  -0.66908  -0.66851  -0.66355  -0.65907
 Alpha  occ. eigenvalues --   -0.65657  -0.65615  -0.64998  -0.63293  -0.62293
 Alpha  occ. eigenvalues --   -0.61660  -0.61449  -0.61149  -0.60634  -0.60377
 Alpha  occ. eigenvalues --   -0.59508  -0.59417  -0.58269  -0.57601  -0.57411
 Alpha  occ. eigenvalues --   -0.57280  -0.56830  -0.56423  -0.55966  -0.55532
 Alpha  occ. eigenvalues --   -0.55479  -0.55417  -0.55283  -0.54948  -0.54788
 Alpha  occ. eigenvalues --   -0.54627  -0.54453  -0.54286  -0.54079  -0.53900
 Alpha  occ. eigenvalues --   -0.53630  -0.53401  -0.53245  -0.52756  -0.52452
 Alpha  occ. eigenvalues --   -0.52352  -0.52222  -0.51891  -0.51807  -0.51566
 Alpha  occ. eigenvalues --   -0.51431  -0.51251  -0.51036  -0.50832  -0.50812
 Alpha  occ. eigenvalues --   -0.50719  -0.50636  -0.50256  -0.50173  -0.49873
 Alpha  occ. eigenvalues --   -0.49584  -0.49470  -0.49281  -0.48859  -0.48609
 Alpha  occ. eigenvalues --   -0.48452  -0.48419  -0.48257  -0.48137  -0.47864
 Alpha  occ. eigenvalues --   -0.47742  -0.47583  -0.47375  -0.47219  -0.47087
 Alpha  occ. eigenvalues --   -0.46975  -0.46397  -0.46155  -0.45907  -0.45639
 Alpha  occ. eigenvalues --   -0.45468  -0.45311  -0.45243  -0.45183  -0.45032
 Alpha  occ. eigenvalues --   -0.44970  -0.44762  -0.44440  -0.44259  -0.43867
 Alpha  occ. eigenvalues --   -0.43769  -0.43696  -0.43340  -0.43297  -0.42861
 Alpha  occ. eigenvalues --   -0.42408  -0.42371  -0.42211  -0.42067  -0.41847
 Alpha  occ. eigenvalues --   -0.41567  -0.41352  -0.41212  -0.40882  -0.40365
 Alpha  occ. eigenvalues --   -0.39907  -0.39822  -0.39732  -0.39501  -0.39492
 Alpha  occ. eigenvalues --   -0.38939  -0.38726  -0.38344  -0.38190  -0.38114
 Alpha  occ. eigenvalues --   -0.37792  -0.37535  -0.36309  -0.36258  -0.35895
 Alpha  occ. eigenvalues --   -0.35392  -0.35376  -0.34181  -0.33208  -0.33093
 Alpha  occ. eigenvalues --   -0.32622  -0.32068  -0.31684  -0.31355  -0.25907
 Alpha  occ. eigenvalues --   -0.22777
 Alpha virt. eigenvalues --   -0.06956   0.00022   0.02072   0.04477   0.06315
 Alpha virt. eigenvalues --    0.06546   0.07862   0.08344   0.08482   0.09004
 Alpha virt. eigenvalues --    0.10474   0.11500   0.11963   0.12344   0.12358

 Mulliken charges:
               1
     1  Mg   0.956515
     2  C   -0.004640
     3  C   -0.102490
     4  C   -0.083316
     5  C   -0.068462
     6  N   -0.297012
     7  C   -0.049275
     8  C   -0.055049
     9  C   -0.098773
    10  C    0.065280
    11  C    0.014304
    12  C    0.023435
    13  C    0.022008
    14  C    0.168820
    15  O   -0.315198
    16  O   -0.308038
    17  N   -0.491983
    18  C    0.178979
    19  C   -0.199578
    20  C   -0.068274
    21  C    0.182029
    22  C    0.093703
    23  C    0.024602
    24  O   -0.274467
    25  C    0.014679
    26  N   -0.392920
    27  C    0.059371
    28  C   -0.104978
    29  C   -0.070999
    30  C    0.053658
    31  C    0.033817
    32  C   -0.023912
    33  C   -0.035541
    34  N   -0.401365
    35  C    0.110610
    36  C   -0.175331
    37  C   -0.031260
    38  C    0.140994
    39  C    0.076896
    40  C    0.138488
    41  O   -0.208134
    42  C   -0.084785
    43  C    0.241883
    44  O   -0.256904
    45  O   -0.371980
    46  C    0.119321
    47  C    0.257211
    48  C   -0.139323
    49  C   -0.243135
    50  C    0.043249
    51  C    0.003475
    52  C   -0.007354
    53  C    0.037333
    54  C   -0.149570
    55  C   -0.020302
    56  C    0.026611
    57  C   -0.061486
    58  C    0.012068
    59  C   -0.205980
    60  C    0.017967
    61  C    0.036490
    62  C   -0.058237
    63  C    0.003784
    64  C   -0.236700
    65  C    0.025820
    66  C   -0.026093
    67  H   -0.016922
    68  H    0.011700
    69  H    0.000289
    70  H    0.041205
    71  H    0.035470
    72  H    0.043213
    73  H    0.024306
    74  H    0.038100
    75  H    0.024969
    76  H    0.060852
    77  H    0.045047
    78  H    0.069951
    79  H    0.049150
    80  H    0.044675
    81  H    0.060614
    82  H    0.054309
    83  H    0.060758
    84  H    0.050051
    85  H    0.035866
    86  H    0.027627
    87  H    0.049056
    88  H    0.048704
    89  H    0.043769
    90  H    0.020406
    91  H    0.022745
    92  H    0.056222
    93  H    0.042391
    94  H    0.054369
    95  H    0.062370
    96  H    0.050505
    97  H    0.040939
    98  H    0.085423
    99  H    0.078652
   100  H    0.057209
   101  H    0.059511
   102  H    0.061884
   103  H    0.071658
   104  H    0.023957
   105  H    0.058174
   106  H    0.035578
   107  H    0.033031
   108  H    0.008871
   109  H    0.031789
   110  H    0.025111
   111  H    0.022014
   112  H    0.027528
   113  H    0.016764
   114  H    0.021409
   115  H    0.031681
   116  H    0.028709
   117  H    0.007937
   118  H    0.019004
   119  H    0.007256
   120  H    0.015754
   121  H    0.008930
   122  H    0.017107
   123  H    0.030826
   124  H    0.024977
   125  H    0.021247
   126  H    0.030982
   127  H    0.026915
   128  H    0.020544
   129  H    0.012451
   130  H    0.011514
   131  H    0.023695
   132  H    0.022713
   133  H    0.034529
   134  H    0.023357
   135  H    0.034932
   136  H    0.023180
   137  H    0.020804
   138  H    0.025720
   139  H    0.011495
   140  H    0.031917
 Sum of Mulliken charges =  -0.00000

 Dipole moment (field-independent basis, Debye):
    X=             -4.0394    Y=              3.9859    Z=             -0.2933  Tot=              5.6824
 Quadrupole moment (field-independent basis, Debye-Ang):
   XX=           -374.6149   YY=           -425.9990   ZZ=           -403.9344
   XY=              2.1174   XZ=             26.2825   YZ=              3.2142

 Normal termination of Gaussian 16 at Thu May  5 06:26:02 2022.
