 Gaussian 16, Revision A.03,
 Gaussian 16:  ES64L-G16RevA.03 25-Dec-2016

 --------------------
 #p ZINDO=(nstates=5)
 --------------------

 -----------------------------
 step_701_chromophore_16 ZINDO
 -----------------------------
 Symbolic Z-matrix:
 Charge =  0 Multiplicity = 1

                         Standard orientation:
 ---------------------------------------------------------------------
 Center     Atomic      Atomic             Coordinates (Angstroms)
 Number     Number       Type             X           Y           Z
 ---------------------------------------------------------------------
      1         12           0        6.318269    0.599803   -0.133250
      2          6           0        4.022115   -2.192383   -0.099227
      3          6           0        3.668233    2.622830   -0.876834
      4          6           0        8.349737    3.041106    0.177432
      5          6           0        8.855568   -1.764250    0.615328
      6          7           0        4.137190    0.179178   -0.619520
      7          6           0        3.405823   -0.953978   -0.385653
      8          6           0        1.869522   -0.740856   -0.544229
      9          6           0        1.869571    0.782412   -0.884518
     10          6           0        3.335903    1.226930   -0.804062
     11          6           0        1.169076    1.220913   -2.232223
     12          6           0        1.162987   -1.204894    0.739415
     13          6           0       -0.249168   -0.766528    0.911193
     14          6           0       -1.304695   -1.932604    0.995612
     15          8           0       -1.225954   -2.910377    1.765507
     16          8           0       -2.346858   -1.772312    0.256541
     17          7           0        6.046044    2.593540   -0.461576
     18          6           0        4.894772    3.250396   -0.764595
     19          6           0        5.178725    4.649373   -0.853121
     20          6           0        6.608108    4.794672   -0.563132
     21          6           0        7.092972    3.450346   -0.306524
     22          6           0        4.145076    5.664916   -1.262573
     23          6           0        7.389100    6.080927   -0.594287
     24          8           0        8.622870    6.131859   -0.335029
     25          6           0        6.696013    7.342881   -0.904671
     26          7           0        8.322423    0.643207    0.332424
     27          6           0        8.933027    1.822716    0.457836
     28          6           0       10.266495    1.652783    1.037178
     29          6           0       10.377006    0.092745    1.445278
     30          6           0        9.088825   -0.385616    0.809471
     31          6           0       11.434564    2.271834    0.175361
     32          6           0       10.452266   -0.164110    2.990598
     33          6           0        9.316407    0.239685    3.851580
     34          7           0        6.481579   -1.533346    0.089644
     35          6           0        7.568263   -2.328266    0.331584
     36          6           0        7.177536   -3.761984    0.327847
     37          6           0        5.787995   -3.720996    0.212340
     38          6           0        5.404160   -2.392911    0.058667
     39          6           0        8.134914   -4.860143    0.519984
     40          6           0        4.647862   -4.589277    0.104182
     41          8           0        4.569380   -5.822737    0.162434
     42          6           0        3.489341   -3.563268   -0.097240
     43          6           0        2.909065   -3.887379   -1.409730
     44          8           0        3.436041   -3.870724   -2.510739
     45          8           0        1.626405   -4.349842   -1.319412
     46          6           0        1.078035   -4.856901   -2.631676
     47          6           0       -3.400175   -2.851979    0.189244
     48          6           0       -4.635395   -2.250388   -0.557167
     49          6           0       -5.979769   -2.596713   -0.447049
     50          6           0       -6.476574   -3.792961    0.305019
     51          6           0       -6.999717   -1.739104   -1.151662
     52          6           0       -7.213062   -0.334247   -0.688997
     53          6           0       -8.502858   -0.149020    0.167449
     54          6           0       -9.453790    0.851487   -0.542252
     55          6           0       -9.090202    2.347603   -0.248105
     56          6           0      -10.925801    0.645604   -0.220506
     57          6           0      -11.839396    0.220406   -1.447614
     58          6           0      -12.772490    1.350444   -1.952557
     59          6           0      -14.276868    0.810763   -1.793519
     60          6           0      -15.002873    1.230003   -3.061442
     61          6           0      -14.999955    1.333777   -0.513897
     62          6           0      -14.774320    0.438608    0.757152
     63          6           0      -14.080122    1.100781    1.994159
     64          6           0      -15.198828    1.444875    3.007776
     65          6           0      -14.806035    0.868143    4.358177
     66          6           0      -15.255435    2.960682    3.227937
     67          1           0        2.843314    3.298620   -1.112998
     68          1           0        9.029114    3.855563    0.437534
     69          1           0        9.677535   -2.399295    0.950467
     70          1           0        1.504605   -1.338831   -1.380002
     71          1           0        1.382163    1.346071   -0.089778
     72          1           0        1.053321    0.424000   -2.967119
     73          1           0        1.861974    1.938879   -2.672422
     74          1           0        0.241860    1.791185   -2.178211
     75          1           0        1.746288   -0.761754    1.545589
     76          1           0        1.186992   -2.295103    0.759433
     77          1           0       -0.611011   -0.321148   -0.015261
     78          1           0       -0.325116   -0.155906    1.810366
     79          1           0        4.147488    6.399055   -0.456891
     80          1           0        3.140578    5.260616   -1.385658
     81          1           0        4.554678    6.077626   -2.183949
     82          1           0        6.329104    7.327058   -1.930718
     83          1           0        7.475563    8.098512   -0.806067
     84          1           0        5.862799    7.380813   -0.204410
     85          1           0       10.189626    2.188746    1.982870
     86          1           0       11.227148   -0.322102    0.904373
     87          1           0       11.712046    3.199261    0.676378
     88          1           0       11.001670    2.591540   -0.772766
     89          1           0       12.242259    1.554951    0.029687
     90          1           0       11.347943    0.402661    3.246249
     91          1           0       10.884025   -1.147730    3.171977
     92          1           0        8.411824    0.671749    3.423585
     93          1           0        9.711449    1.022065    4.498945
     94          1           0        9.145923   -0.727940    4.322873
     95          1           0        7.695591   -5.835666    0.313858
     96          1           0        8.519800   -4.787453    1.537545
     97          1           0        9.003350   -4.765870   -0.132171
     98          1           0        2.746069   -3.713650    0.685509
     99          1           0        1.703642   -4.736348   -3.515703
    100          1           0        0.096986   -4.406342   -2.788162
    101          1           0        1.058403   -5.938818   -2.507831
    102          1           0       -3.742005   -3.100866    1.193864
    103          1           0       -3.068465   -3.804317   -0.225806
    104          1           0       -4.490905   -1.394619   -1.215953
    105          1           0       -6.980461   -3.547131    1.239373
    106          1           0       -5.656499   -4.506778    0.371909
    107          1           0       -7.238122   -4.269053   -0.312639
    108          1           0       -7.917917   -2.299319   -1.326835
    109          1           0       -6.567776   -1.780168   -2.151997
    110          1           0       -7.056356    0.269135   -1.583897
    111          1           0       -6.420620   -0.042852    0.001039
    112          1           0       -8.148156    0.210524    1.133260
    113          1           0       -8.917233   -1.151985    0.268983
    114          1           0       -9.392961    0.735477   -1.624041
    115          1           0       -9.749742    2.882995    0.434361
    116          1           0       -8.873636    2.852385   -1.190499
    117          1           0       -8.159047    2.603656    0.258204
    118          1           0      -11.400238    1.483152    0.289353
    119          1           0      -11.020524   -0.200847    0.459550
    120          1           0      -12.422247   -0.679328   -1.251365
    121          1           0      -11.213140   -0.084043   -2.287078
    122          1           0      -12.534417    1.359843   -3.015984
    123          1           0      -12.525455    2.342536   -1.576094
    124          1           0      -14.319716   -0.276749   -1.736080
    125          1           0      -15.731024    2.012039   -2.846365
    126          1           0      -15.480921    0.288893   -3.332043
    127          1           0      -14.367194    1.664333   -3.832401
    128          1           0      -16.087090    1.385926   -0.562256
    129          1           0      -14.654293    2.349495   -0.316483
    130          1           0      -14.073910   -0.369995    0.546031
    131          1           0      -15.720988    0.021652    1.099965
    132          1           0      -13.743155    2.086417    1.669212
    133          1           0      -13.311082    0.456093    2.419933
    134          1           0      -16.192989    1.157636    2.664423
    135          1           0      -15.350826   -0.074891    4.376590
    136          1           0      -15.049946    1.532919    5.187602
    137          1           0      -13.718701    0.799094    4.342956
    138          1           0      -15.958719    3.332041    3.973281
    139          1           0      -15.708773    3.395418    2.336113
    140          1           0      -14.267938    3.384337    3.410059
 ---------------------------------------------------------------------

 SCF Done:  E(RZINDO/S) =  -474.476628415     A.U. after   20 cycles

 Excitation energies and oscillator strengths:

 Excited State   1:      Singlet-A      1.2391 eV 1000.64 nm  f=0.6059  <S**2>=0.000
     175 ->178        -0.19950
     176 ->177         0.65897
 This state for optimization and/or second-order correction.
 Total Energy, E(CIS/TDA) =  -474.431094139
 Copying the excited state density for this state as the 1-particle RhoCI density.

 Excited State   2:      Singlet-A      1.8939 eV  654.64 nm  f=0.0259  <S**2>=0.000
     175 ->177         0.52819
     176 ->178         0.44261

 Excited State   3:      Singlet-A      2.8832 eV  430.02 nm  f=0.5237  <S**2>=0.000
     175 ->177        -0.28944
     176 ->178         0.41795
     176 ->179         0.41108

 Excited State   4:      Singlet-A      2.9827 eV  415.67 nm  f=0.0734  <S**2>=0.000
     168 ->177         0.22837
     168 ->178        -0.14930
     168 ->179        -0.22411
     168 ->180         0.19777
     168 ->186        -0.11972
     169 ->177         0.24443
     169 ->178        -0.16670
     169 ->179        -0.27177
     169 ->180         0.19895
     169 ->186        -0.15241
     176 ->178         0.13238

 Excited State   5:      Singlet-A      2.9871 eV  415.07 nm  f=0.0093  <S**2>=0.000
     168 ->179         0.14579
     168 ->180         0.10776
     169 ->180        -0.10088
     170 ->177         0.26831
     170 ->179         0.33392
     170 ->180         0.34127
     170 ->186         0.17861
     170 ->188        -0.13582
     176 ->179        -0.11408

 The electronic state is 1-A.
 Alpha  occ. eigenvalues --   -1.84611  -1.83083  -1.81141  -1.74498  -1.73304
 Alpha  occ. eigenvalues --   -1.71614  -1.65413  -1.61889  -1.59018  -1.57381
 Alpha  occ. eigenvalues --   -1.57025  -1.51537  -1.49849  -1.48198  -1.47316
 Alpha  occ. eigenvalues --   -1.42247  -1.41923  -1.40939  -1.39550  -1.37590
 Alpha  occ. eigenvalues --   -1.36687  -1.34242  -1.33609  -1.32207  -1.29408
 Alpha  occ. eigenvalues --   -1.28390  -1.25210  -1.22923  -1.20831  -1.19135
 Alpha  occ. eigenvalues --   -1.17485  -1.16137  -1.15243  -1.14885  -1.13653
 Alpha  occ. eigenvalues --   -1.12758  -1.11017  -1.10198  -1.04377  -1.04206
 Alpha  occ. eigenvalues --   -1.02069  -1.01523  -0.98543  -0.98122  -0.97030
 Alpha  occ. eigenvalues --   -0.95869  -0.94870  -0.93897  -0.93174  -0.92510
 Alpha  occ. eigenvalues --   -0.91714  -0.90285  -0.90106  -0.88768  -0.87971
 Alpha  occ. eigenvalues --   -0.85739  -0.84023  -0.82948  -0.81750  -0.80310
 Alpha  occ. eigenvalues --   -0.78882  -0.78596  -0.77175  -0.76405  -0.76066
 Alpha  occ. eigenvalues --   -0.75666  -0.75428  -0.75265  -0.74781  -0.73846
 Alpha  occ. eigenvalues --   -0.73214  -0.73073  -0.72423  -0.71715  -0.70969
 Alpha  occ. eigenvalues --   -0.70554  -0.69313  -0.68987  -0.68377  -0.68148
 Alpha  occ. eigenvalues --   -0.67692  -0.67016  -0.66571  -0.66084  -0.65481
 Alpha  occ. eigenvalues --   -0.65271  -0.65049  -0.64252  -0.64085  -0.63672
 Alpha  occ. eigenvalues --   -0.63195  -0.62875  -0.62571  -0.62528  -0.62491
 Alpha  occ. eigenvalues --   -0.61875  -0.61049  -0.60983  -0.60762  -0.60271
 Alpha  occ. eigenvalues --   -0.59960  -0.59637  -0.59287  -0.58930  -0.58880
 Alpha  occ. eigenvalues --   -0.58102  -0.58044  -0.57717  -0.56964  -0.56891
 Alpha  occ. eigenvalues --   -0.56478  -0.55647  -0.55371  -0.55055  -0.54643
 Alpha  occ. eigenvalues --   -0.54548  -0.54221  -0.54059  -0.53218  -0.52555
 Alpha  occ. eigenvalues --   -0.52283  -0.52140  -0.51821  -0.51788  -0.51617
 Alpha  occ. eigenvalues --   -0.50911  -0.50812  -0.50519  -0.50374  -0.50013
 Alpha  occ. eigenvalues --   -0.49612  -0.49085  -0.48834  -0.48603  -0.48477
 Alpha  occ. eigenvalues --   -0.48213  -0.48131  -0.47900  -0.47700  -0.47601
 Alpha  occ. eigenvalues --   -0.47546  -0.47424  -0.47202  -0.46803  -0.46424
 Alpha  occ. eigenvalues --   -0.46369  -0.46001  -0.45394  -0.45238  -0.45073
 Alpha  occ. eigenvalues --   -0.44855  -0.44340  -0.44171  -0.43927  -0.43557
 Alpha  occ. eigenvalues --   -0.43164  -0.43113  -0.42468  -0.42081  -0.41829
 Alpha  occ. eigenvalues --   -0.41283  -0.41211  -0.41198  -0.38708  -0.38000
 Alpha  occ. eigenvalues --   -0.37283  -0.36838  -0.35235  -0.34994  -0.34763
 Alpha  occ. eigenvalues --   -0.32907  -0.32352  -0.31937  -0.31323  -0.26451
 Alpha  occ. eigenvalues --   -0.21521
 Alpha virt. eigenvalues --   -0.08370  -0.02318  -0.00610   0.01328   0.02308
 Alpha virt. eigenvalues --    0.02967   0.03276   0.03519   0.04024   0.04998
 Alpha virt. eigenvalues --    0.06358   0.06561   0.07605   0.07759   0.08137

 Mulliken charges:
               1
     1  Mg   0.425136
     2  C   -0.032702
     3  C   -0.074906
     4  C   -0.076821
     5  C   -0.088165
     6  N   -0.257782
     7  C    0.106214
     8  C    0.002302
     9  C    0.004838
    10  C    0.126101
    11  C   -0.058511
    12  C   -0.016571
    13  C    0.006143
    14  C    0.461188
    15  O   -0.556073
    16  O   -0.245355
    17  N   -0.328684
    18  C    0.101282
    19  C    0.004515
    20  C   -0.065420
    21  C    0.151478
    22  C   -0.043218
    23  C    0.323509
    24  O   -0.554534
    25  C   -0.031943
    26  N   -0.275133
    27  C    0.162628
    28  C   -0.003277
    29  C   -0.006261
    30  C    0.134418
    31  C   -0.052058
    32  C   -0.019878
    33  C   -0.049892
    34  N   -0.333163
    35  C    0.108029
    36  C    0.038886
    37  C   -0.038681
    38  C    0.102377
    39  C   -0.030000
    40  C    0.337728
    41  O   -0.517679
    42  C    0.074428
    43  C    0.492517
    44  O   -0.537389
    45  O   -0.277352
    46  C    0.070238
    47  C    0.111374
    48  C   -0.119005
    49  C    0.001092
    50  C   -0.041760
    51  C   -0.018175
    52  C   -0.030363
    53  C   -0.028705
    54  C    0.000719
    55  C   -0.068757
    56  C   -0.038889
    57  C   -0.047830
    58  C   -0.040860
    59  C   -0.010093
    60  C   -0.064019
    61  C   -0.034145
    62  C   -0.051328
    63  C   -0.042534
    64  C   -0.017427
    65  C   -0.060410
    66  C   -0.059222
    67  H    0.023595
    68  H    0.033103
    69  H    0.027604
    70  H    0.039335
    71  H    0.022509
    72  H    0.027885
    73  H    0.016552
    74  H    0.023577
    75  H    0.023607
    76  H    0.039447
    77  H    0.032370
    78  H    0.052772
    79  H    0.031741
    80  H    0.030204
    81  H    0.037378
    82  H    0.039547
    83  H    0.042992
    84  H    0.043141
    85  H    0.028496
    86  H    0.031905
    87  H    0.028040
    88  H    0.027832
    89  H    0.029343
    90  H    0.003959
    91  H    0.021073
    92  H    0.032890
    93  H    0.020774
    94  H    0.026714
    95  H    0.035693
    96  H    0.032901
    97  H    0.027135
    98  H    0.053976
    99  H    0.058379
   100  H    0.034908
   101  H    0.038077
   102  H    0.050433
   103  H    0.060695
   104  H    0.030106
   105  H    0.038478
   106  H    0.025975
   107  H    0.019956
   108  H    0.017158
   109  H    0.014138
   110  H    0.025189
   111  H    0.014010
   112  H    0.025332
   113  H    0.024157
   114  H    0.025266
   115  H    0.025760
   116  H    0.017220
   117  H    0.009229
   118  H    0.024113
   119  H    0.007564
   120  H    0.021755
   121  H    0.011234
   122  H    0.012356
   123  H    0.035657
   124  H    0.028360
   125  H    0.015342
   126  H    0.020019
   127  H    0.023471
   128  H    0.019541
   129  H    0.019504
   130  H    0.011568
   131  H    0.022685
   132  H    0.024413
   133  H    0.032058
   134  H    0.029215
   135  H    0.020426
   136  H    0.017938
   137  H    0.022841
   138  H    0.012681
   139  H    0.000576
   140  H    0.021963
 Sum of Mulliken charges =  -0.00000

 Dipole moment (field-independent basis, Debye):
    X=             -5.1096    Y=              6.0544    Z=              0.8421  Tot=              7.9670
 N-N= 4.218912580910D+03 E-N= 0.000000000000D+00  KE=-9.112293947183D+03
 Leave Link  601 at Thu May  5 06:38:35 2022, MaxMem=  6710886400 cpu:               0.8 elap:               0.0
 (Enter /sw/apps/gaussian-16.0/g16/l9999.exe)
 1\1\GINC-BP1-COMPUTE069\SP\RZINDO CIS\STO-3G\C55H74Mg1N4O6\OF15641\05-
 May-2022\0\\#p ZINDO=(nstates=5)\\step_701_chromophore_16 ZINDO\\0,1\M
 g,0,41.172,41.731,27.218\C,0,39.852,43.946,29.752\C,0,42.027,39.566,29
 .718\C,0,42.013,39.702,24.903\C,0,40.185,44.196,24.865\N,0,41.103,41.8
 79,29.486\C,0,40.398,42.751,30.271\C,0,40.338,42.323,31.769\C,0,41.134
 ,40.984,31.671\C,0,41.461,40.802,30.183\C,0,42.403,40.829,32.601\C,0,3
 8.869,42.271,32.218\C,0,38.594,41.559,33.496\C,0,37.96,42.447,34.632\O

 Normal termination of Gaussian 16 at Thu May  5 06:38:35 2022.
