 Gaussian 16, Revision A.03,
 Gaussian 16:  ES64L-G16RevA.03 25-Dec-2016

 ------------------------------
 #p blyp/Def2SVP td=(nstates=5)
 ------------------------------

 ---------------------------------------------------
 step_1101_chromophore_18 TDDFT with blyp functional
 ---------------------------------------------------
 Symbolic Z-matrix:
 Charge =  0 Multiplicity = 1

                         Standard orientation:
 ---------------------------------------------------------------------
 Center     Atomic      Atomic             Coordinates (Angstroms)
 Number     Number       Type             X           Y           Z
 ---------------------------------------------------------------------
      1         12           0        5.519686    1.008670    0.021735
      2          6           0        4.871028   -2.435821    0.179568
      3          6           0        2.087412    1.526249   -0.441651
      4          6           0        6.139931    4.353187   -0.134074
      5          6           0        8.984340    0.282510    0.258114
      6          7           0        3.721186   -0.297692   -0.164121
      7          6           0        3.687492   -1.692000   -0.007830
      8          6           0        2.241346   -2.172991    0.029293
      9          6           0        1.373394   -0.920454   -0.401005
     10          6           0        2.463626    0.178194   -0.327083
     11          6           0        0.672257   -1.034808   -1.745841
     12          6           0        1.787204   -2.767573    1.401320
     13          6           0        0.277067   -2.866338    1.571445
     14          6           0       -0.553079   -3.380292    0.393210
     15          8           0       -0.104959   -3.988877   -0.522920
     16          8           0       -1.851400   -2.975491    0.487896
     17          7           0        4.298642    2.722374   -0.258775
     18          6           0        2.888508    2.677037   -0.259266
     19          6           0        2.420841    4.075972   -0.415747
     20          6           0        3.563774    4.903614   -0.438651
     21          6           0        4.735681    4.009793   -0.225279
     22          6           0        1.008554    4.403055   -0.571550
     23          6           0        3.547254    6.400961   -0.656552
     24          8           0        4.561322    7.027221   -0.519414
     25          6           0        2.326458    7.173242   -0.950372
     26          7           0        7.323047    2.168166   -0.008594
     27          6           0        7.278809    3.551372   -0.032510
     28          6           0        8.773283    4.121731    0.042795
     29          6           0        9.631418    2.794970    0.317255
     30          6           0        8.643760    1.680655    0.122328
     31          6           0        9.303311    5.018243   -1.197291
     32          6           0       10.458121    2.782078    1.637623
     33          6           0        9.688037    2.520456    2.973754
     34          7           0        6.743638   -0.689847    0.187551
     35          6           0        8.163626   -0.799408    0.234201
     36          6           0        8.504408   -2.142787    0.306666
     37          6           0        7.235409   -2.854700    0.275678
     38          6           0        6.196571   -1.914673    0.213130
     39          6           0        9.820329   -2.766066    0.313389
     40          6           0        6.647768   -4.168333    0.170705
     41          8           0        7.184223   -5.288994    0.134659
     42          6           0        5.111788   -3.904119    0.259225
     43          6           0        4.361371   -4.589852   -0.760336
     44          8           0        4.028168   -4.160778   -1.890637
     45          8           0        4.225655   -5.929006   -0.464536
     46          6           0        3.466546   -6.840707   -1.376238
     47          6           0       -2.703663   -3.200335   -0.699752
     48          6           0       -3.987932   -2.457360   -0.596882
     49          6           0       -4.920726   -2.426868   -1.487250
     50          6           0       -4.991277   -3.070238   -2.876501
     51          6           0       -6.205429   -1.694544   -1.137899
     52          6           0       -7.101226   -2.172887    0.054390
     53          6           0       -6.956677   -1.377227    1.344012
     54          6           0       -8.317300   -1.009226    1.955487
     55          6           0       -8.315084   -1.248856    3.434753
     56          6           0       -8.570294    0.518870    1.637419
     57          6           0       -9.822359    0.937772    0.793150
     58          6           0      -10.985123   -0.067292    0.707913
     59          6           0      -12.420743    0.637583    0.798257
     60          6           0      -13.051402    0.464263    2.190864
     61          6           0      -13.243087    0.007196   -0.287277
     62          6           0      -14.010870    0.986954   -1.156612
     63          6           0      -15.470409    1.134831   -0.586645
     64          6           0      -15.829192    2.625288   -0.663370
     65          6           0      -16.902389    2.970303    0.357083
     66          6           0      -16.240830    3.217560   -2.037350
     67          1           0        1.016174    1.699001   -0.559805
     68          1           0        6.424017    5.406021   -0.189540
     69          1           0       10.048270    0.072680    0.385899
     70          1           0        2.286011   -3.017878   -0.658605
     71          1           0        0.562682   -0.707966    0.296118
     72          1           0        0.776314   -2.001637   -2.237759
     73          1           0        0.946760   -0.221889   -2.418252
     74          1           0       -0.404917   -0.924452   -1.620199
     75          1           0        2.232816   -2.279412    2.269089
     76          1           0        2.181592   -3.783598    1.380715
     77          1           0       -0.155623   -1.941361    1.950488
     78          1           0        0.201264   -3.596903    2.376595
     79          1           0        0.666878    5.075171    0.215981
     80          1           0        0.304179    3.571317   -0.552524
     81          1           0        0.846635    4.787500   -1.579358
     82          1           0        1.630666    7.150334   -0.111993
     83          1           0        1.729335    6.777727   -1.772023
     84          1           0        2.622350    8.221409   -0.985152
     85          1           0        8.871853    4.856621    0.842310
     86          1           0       10.325937    2.662520   -0.512179
     87          1           0        8.481354    4.854144   -1.894258
     88          1           0       10.258660    4.679095   -1.595961
     89          1           0        9.312121    6.054487   -0.860337
     90          1           0       10.934399    3.736654    1.858139
     91          1           0       11.295286    2.092008    1.528703
     92          1           0       10.103977    1.610984    3.407239
     93          1           0        8.656070    2.433963    2.633341
     94          1           0        9.672835    3.304926    3.729877
     95          1           0        9.846659   -3.722709    0.833998
     96          1           0       10.585964   -2.135504    0.767026
     97          1           0       10.122667   -2.932737   -0.720642
     98          1           0        4.921052   -4.418195    1.201579
     99          1           0        4.123945   -7.542444   -1.887930
    100          1           0        3.091851   -6.384472   -2.292346
    101          1           0        2.708655   -7.328419   -0.761840
    102          1           0       -2.925353   -4.267312   -0.691790
    103          1           0       -2.137623   -2.987624   -1.607531
    104          1           0       -4.135043   -1.888486    0.320907
    105          1           0       -4.065226   -3.476040   -3.283641
    106          1           0       -5.313552   -2.419774   -3.689316
    107          1           0       -5.721863   -3.877649   -2.922115
    108          1           0       -6.799492   -1.551700   -2.040418
    109          1           0       -5.781782   -0.742952   -0.814923
    110          1           0       -6.804816   -3.154001    0.424868
    111          1           0       -8.115716   -2.170161   -0.344807
    112          1           0       -6.273581   -0.544318    1.176505
    113          1           0       -6.347997   -1.998729    2.000105
    114          1           0       -9.169984   -1.550083    1.543292
    115          1           0       -7.835076   -0.440113    3.986689
    116          1           0       -7.699388   -2.129399    3.614088
    117          1           0       -9.319930   -1.401837    3.827993
    118          1           0       -7.756506    0.852931    0.993971
    119          1           0       -8.548971    1.105157    2.555977
    120          1           0       -9.362780    1.108114   -0.180133
    121          1           0      -10.034102    1.892092    1.276069
    122          1           0      -10.885133   -0.607779    1.648710
    123          1           0      -10.739040   -0.871912    0.014804
    124          1           0      -12.173603    1.692188    0.676724
    125          1           0      -12.285467    0.126717    2.888473
    126          1           0      -13.882191   -0.238814    2.251306
    127          1           0      -13.359301    1.384988    2.687769
    128          1           0      -13.889645   -0.716467    0.209237
    129          1           0      -12.632418   -0.593232   -0.960321
    130          1           0      -14.098890    0.876210   -2.237532
    131          1           0      -13.407400    1.895170   -1.166352
    132          1           0      -15.616500    0.716631    0.409825
    133          1           0      -16.175172    0.522969   -1.150426
    134          1           0      -14.993574    3.168015   -0.222449
    135          1           0      -16.750796    2.430874    1.292405
    136          1           0      -17.899078    2.817472   -0.055799
    137          1           0      -16.950043    4.044955    0.527239
    138          1           0      -17.086284    3.872721   -1.830826
    139          1           0      -16.523043    2.317947   -2.584210
    140          1           0      -15.488029    3.929495   -2.377659
 ---------------------------------------------------------------------

 SCF Done:  E(RB-LYP) =  -3007.35054824     A.U. after   21 cycles

 Excitation energies and oscillator strengths:

 Excited State   1:      Singlet-A      1.7599 eV  704.51 nm  f=0.2423  <S**2>=0.000
     244 -> 247        0.15512
     245 -> 247        0.10469
     245 -> 248        0.17416
     246 -> 247        0.66640
     246 <- 247       -0.14657
 This state for optimization and/or second-order correction.
 Total Energy, E(TD-HF/TD-DFT) =  -3007.28587473
 Copying the excited state density for this state as the 1-particle RhoCI density.

 Excited State   2:      Singlet-A      1.8552 eV  668.29 nm  f=0.0691  <S**2>=0.000
     244 -> 247        0.51184
     245 -> 247        0.43702
     246 -> 247       -0.17766
     246 -> 248       -0.10238

 Excited State   3:      Singlet-A      1.9462 eV  637.06 nm  f=0.0023  <S**2>=0.000
     243 -> 247        0.70347

 Excited State   4:      Singlet-A      2.0685 eV  599.38 nm  f=0.0563  <S**2>=0.000
     242 -> 247        0.12397
     244 -> 247       -0.44676
     245 -> 247        0.46587
     246 -> 248       -0.24650

 Excited State   5:      Singlet-A      2.3115 eV  536.37 nm  f=0.0135  <S**2>=0.000
     242 -> 247        0.68268

 The electronic state is 1-A.
 Alpha  occ. eigenvalues --  -46.26890 -18.82410 -18.80687 -18.77485 -18.75238
 Alpha  occ. eigenvalues --  -18.75149 -18.75128 -14.03379 -14.03127 -14.01406
 Alpha  occ. eigenvalues --  -13.99963 -10.04483 -10.02823  -9.99367  -9.99192
 Alpha  occ. eigenvalues --   -9.98414  -9.96815  -9.96724  -9.96712  -9.96636
 Alpha  occ. eigenvalues --   -9.96522  -9.96499  -9.95929  -9.94476  -9.94090
 Alpha  occ. eigenvalues --   -9.94031  -9.93906  -9.93818  -9.93745  -9.93729
 Alpha  occ. eigenvalues --   -9.93553  -9.93546  -9.93335  -9.93151  -9.93013
 Alpha  occ. eigenvalues --   -9.92980  -9.92940  -9.92923  -9.92905  -9.92789
 Alpha  occ. eigenvalues --   -9.92691  -9.92689  -9.92525  -9.92343  -9.92209
 Alpha  occ. eigenvalues --   -9.91995  -9.91857  -9.91819  -9.91816  -9.91814
 Alpha  occ. eigenvalues --   -9.91745  -9.91448  -9.91417  -9.91309  -9.91242
 Alpha  occ. eigenvalues --   -9.91200  -9.91154  -9.91145  -9.91086  -9.91028
 Alpha  occ. eigenvalues --   -9.90893  -9.90875  -9.90684  -9.90581  -9.90506
 Alpha  occ. eigenvalues --   -9.90096  -2.91351  -1.71803  -1.71218  -1.71062
 Alpha  occ. eigenvalues --   -0.99173  -0.95400  -0.92785  -0.91542  -0.89655
 Alpha  occ. eigenvalues --   -0.86928  -0.85422  -0.84665  -0.84343  -0.83297
 Alpha  occ. eigenvalues --   -0.75747  -0.74635  -0.73536  -0.72848  -0.72559
 Alpha  occ. eigenvalues --   -0.71947  -0.71293  -0.71150  -0.70599  -0.70251
 Alpha  occ. eigenvalues --   -0.69555  -0.69104  -0.68289  -0.67261  -0.66954
 Alpha  occ. eigenvalues --   -0.66389  -0.65759  -0.65572  -0.64946  -0.64663
 Alpha  occ. eigenvalues --   -0.64551  -0.62710  -0.62531  -0.61732  -0.61215
 Alpha  occ. eigenvalues --   -0.60411  -0.60210  -0.59794  -0.59525  -0.59181
 Alpha  occ. eigenvalues --   -0.58772  -0.57647  -0.56450  -0.55741  -0.54517
 Alpha  occ. eigenvalues --   -0.54118  -0.53463  -0.53017  -0.52306  -0.51818
 Alpha  occ. eigenvalues --   -0.50997  -0.50527  -0.50464  -0.50207  -0.49943
 Alpha  occ. eigenvalues --   -0.49684  -0.48754  -0.48254  -0.47458  -0.46705
 Alpha  occ. eigenvalues --   -0.46464  -0.46103  -0.45664  -0.44875  -0.44243
 Alpha  occ. eigenvalues --   -0.43971  -0.43449  -0.42853  -0.42638  -0.42478
 Alpha  occ. eigenvalues --   -0.42122  -0.41982  -0.41863  -0.41642  -0.41386
 Alpha  occ. eigenvalues --   -0.41153  -0.40572  -0.40464  -0.40231  -0.40170
 Alpha  occ. eigenvalues --   -0.39933  -0.39742  -0.39446  -0.39334  -0.38989
 Alpha  occ. eigenvalues --   -0.38946  -0.38574  -0.38499  -0.38397  -0.37999
 Alpha  occ. eigenvalues --   -0.37948  -0.37863  -0.37520  -0.37467  -0.37144
 Alpha  occ. eigenvalues --   -0.37106  -0.36940  -0.36823  -0.36651  -0.36601
 Alpha  occ. eigenvalues --   -0.36330  -0.36105  -0.36044  -0.35746  -0.35545
 Alpha  occ. eigenvalues --   -0.35408  -0.35149  -0.35053  -0.34906  -0.34724
 Alpha  occ. eigenvalues --   -0.34699  -0.34234  -0.33932  -0.33915  -0.33754
 Alpha  occ. eigenvalues --   -0.33660  -0.33507  -0.33345  -0.33168  -0.33141
 Alpha  occ. eigenvalues --   -0.33119  -0.32865  -0.32635  -0.32431  -0.32177
 Alpha  occ. eigenvalues --   -0.32159  -0.31892  -0.31740  -0.31342  -0.31297
 Alpha  occ. eigenvalues --   -0.31051  -0.30894  -0.30822  -0.30604  -0.30422
 Alpha  occ. eigenvalues --   -0.30267  -0.30229  -0.29938  -0.29895  -0.29575
 Alpha  occ. eigenvalues --   -0.29336  -0.29218  -0.28995  -0.28835  -0.28775
 Alpha  occ. eigenvalues --   -0.28608  -0.28259  -0.27995  -0.27714  -0.27488
 Alpha  occ. eigenvalues --   -0.27482  -0.27345  -0.27172  -0.26533  -0.26190
 Alpha  occ. eigenvalues --   -0.26058  -0.26005  -0.25469  -0.25330  -0.25204
 Alpha  occ. eigenvalues --   -0.25014  -0.24068  -0.23824  -0.23410  -0.22904
 Alpha  occ. eigenvalues --   -0.22636  -0.22625  -0.21692  -0.21010  -0.20656
 Alpha  occ. eigenvalues --   -0.20442  -0.19409  -0.18581  -0.18441  -0.17184
 Alpha  occ. eigenvalues --   -0.15657
 Alpha virt. eigenvalues --   -0.11521  -0.06735  -0.05761  -0.04327  -0.02729
 Alpha virt. eigenvalues --   -0.02581  -0.01834  -0.01774  -0.00721   0.00331
 Alpha virt. eigenvalues --    0.01390   0.01457   0.02102   0.02376   0.02700

 Mulliken charges:
               1
     1  Mg   0.670745
     2  C    0.091363
     3  C   -0.057454
     4  C   -0.016089
     5  C   -0.096097
     6  N   -0.216228
     7  C   -0.065051
     8  C    0.029850
     9  C   -0.029155
    10  C    0.041525
    11  C    0.133867
    12  C    0.125951
    13  C    0.107073
    14  C    0.063050
    15  O   -0.157166
    16  O   -0.282923
    17  N   -0.302047
    18  C    0.154547
    19  C   -0.156391
    20  C    0.054503
    21  C    0.111732
    22  C    0.178834
    23  C   -0.110123
    24  O   -0.144873
    25  C    0.164574
    26  N   -0.254392
    27  C    0.033838
    28  C   -0.033937
    29  C    0.088935
    30  C    0.000774
    31  C    0.098764
    32  C    0.069238
    33  C    0.050130
    34  N   -0.287649
    35  C    0.183747
    36  C   -0.146026
    37  C    0.070774
    38  C    0.049232
    39  C    0.176872
    40  C   -0.059894
    41  O   -0.145336
    42  C    0.060160
    43  C    0.100262
    44  O   -0.217859
    45  O   -0.278470
    46  C    0.213361
    47  C    0.309444
    48  C   -0.123367
    49  C   -0.089747
    50  C    0.123458
    51  C    0.111280
    52  C    0.082550
    53  C    0.096615
    54  C   -0.069438
    55  C    0.116284
    56  C    0.060735
    57  C    0.063216
    58  C    0.067897
    59  C   -0.037081
    60  C    0.109978
    61  C    0.148137
    62  C    0.084138
    63  C    0.097772
    64  C   -0.121726
    65  C    0.094630
    66  C    0.151484
    67  H   -0.066462
    68  H   -0.047806
    69  H   -0.069146
    70  H    0.003988
    71  H   -0.020851
    72  H    0.017047
    73  H   -0.014679
    74  H   -0.028234
    75  H   -0.023651
    76  H   -0.020895
    77  H    0.001673
    78  H    0.000171
    79  H    0.007133
    80  H   -0.026489
    81  H    0.002904
    82  H   -0.010203
    83  H   -0.002902
    84  H   -0.007884
    85  H   -0.018422
    86  H   -0.030511
    87  H    0.000739
    88  H    0.004314
    89  H    0.003932
    90  H   -0.023236
    91  H   -0.022689
    92  H   -0.000389
    93  H    0.004481
    94  H   -0.007541
    95  H    0.007818
    96  H   -0.019742
    97  H    0.008410
    98  H    0.008191
    99  H    0.011163
   100  H    0.017490
   101  H    0.026612
   102  H   -0.000093
   103  H    0.016691
   104  H   -0.033705
   105  H   -0.020410
   106  H   -0.006600
   107  H   -0.000173
   108  H   -0.043493
   109  H   -0.021454
   110  H   -0.022489
   111  H   -0.019921
   112  H   -0.034284
   113  H   -0.045453
   114  H   -0.024599
   115  H   -0.020865
   116  H   -0.027783
   117  H   -0.015933
   118  H   -0.041186
   119  H   -0.033296
   120  H   -0.033693
   121  H   -0.030217
   122  H   -0.029208
   123  H   -0.021713
   124  H   -0.026638
   125  H   -0.030668
   126  H   -0.009561
   127  H   -0.020506
   128  H   -0.040526
   129  H   -0.045620
   130  H   -0.042576
   131  H   -0.040144
   132  H   -0.036297
   133  H   -0.038548
   134  H   -0.036964
   135  H   -0.018123
   136  H   -0.033444
   137  H   -0.030570
   138  H   -0.032000
   139  H   -0.003332
   140  H   -0.011737
 Sum of Mulliken charges =  -0.00000

 Dipole moment (field-independent basis, Debye):
    X=             -5.1328    Y=              2.0607    Z=              1.5384  Tot=              5.7409
 Quadrupole moment (field-independent basis, Debye-Ang):
   XX=           -393.3243   YY=           -430.6563   ZZ=           -403.8339
   XY=             25.3994   XZ=             14.1953   YZ=              0.2499

 Normal termination of Gaussian 16 at Wed Apr 27 06:52:52 2022.
