 Gaussian 16, Revision A.03,
 Gaussian 16:  ES64L-G16RevA.03 25-Dec-2016

 -----------------------------------
 #p cam-b3lyp/Def2SVP td=(nstates=5)
 -----------------------------------

 --------------------------------------------------------
 step_1101_chromophore_18 TDDFT with cam-b3lyp functional
 --------------------------------------------------------
 Symbolic Z-matrix:
 Charge =  0 Multiplicity = 1

                         Standard orientation:
 ---------------------------------------------------------------------
 Center     Atomic      Atomic             Coordinates (Angstroms)
 Number     Number       Type             X           Y           Z
 ---------------------------------------------------------------------
      1         12           0        5.519686    1.008670    0.021735
      2          6           0        4.871028   -2.435821    0.179568
      3          6           0        2.087412    1.526249   -0.441651
      4          6           0        6.139931    4.353187   -0.134074
      5          6           0        8.984340    0.282510    0.258114
      6          7           0        3.721186   -0.297692   -0.164121
      7          6           0        3.687492   -1.692000   -0.007830
      8          6           0        2.241346   -2.172991    0.029293
      9          6           0        1.373394   -0.920454   -0.401005
     10          6           0        2.463626    0.178194   -0.327083
     11          6           0        0.672257   -1.034808   -1.745841
     12          6           0        1.787204   -2.767573    1.401320
     13          6           0        0.277067   -2.866338    1.571445
     14          6           0       -0.553079   -3.380292    0.393210
     15          8           0       -0.104959   -3.988877   -0.522920
     16          8           0       -1.851400   -2.975491    0.487896
     17          7           0        4.298642    2.722374   -0.258775
     18          6           0        2.888508    2.677037   -0.259266
     19          6           0        2.420841    4.075972   -0.415747
     20          6           0        3.563774    4.903614   -0.438651
     21          6           0        4.735681    4.009793   -0.225279
     22          6           0        1.008554    4.403055   -0.571550
     23          6           0        3.547254    6.400961   -0.656552
     24          8           0        4.561322    7.027221   -0.519414
     25          6           0        2.326458    7.173242   -0.950372
     26          7           0        7.323047    2.168166   -0.008594
     27          6           0        7.278809    3.551372   -0.032510
     28          6           0        8.773283    4.121731    0.042795
     29          6           0        9.631418    2.794970    0.317255
     30          6           0        8.643760    1.680655    0.122328
     31          6           0        9.303311    5.018243   -1.197291
     32          6           0       10.458121    2.782078    1.637623
     33          6           0        9.688037    2.520456    2.973754
     34          7           0        6.743638   -0.689847    0.187551
     35          6           0        8.163626   -0.799408    0.234201
     36          6           0        8.504408   -2.142787    0.306666
     37          6           0        7.235409   -2.854700    0.275678
     38          6           0        6.196571   -1.914673    0.213130
     39          6           0        9.820329   -2.766066    0.313389
     40          6           0        6.647768   -4.168333    0.170705
     41          8           0        7.184223   -5.288994    0.134659
     42          6           0        5.111788   -3.904119    0.259225
     43          6           0        4.361371   -4.589852   -0.760336
     44          8           0        4.028168   -4.160778   -1.890637
     45          8           0        4.225655   -5.929006   -0.464536
     46          6           0        3.466546   -6.840707   -1.376238
     47          6           0       -2.703663   -3.200335   -0.699752
     48          6           0       -3.987932   -2.457360   -0.596882
     49          6           0       -4.920726   -2.426868   -1.487250
     50          6           0       -4.991277   -3.070238   -2.876501
     51          6           0       -6.205429   -1.694544   -1.137899
     52          6           0       -7.101226   -2.172887    0.054390
     53          6           0       -6.956677   -1.377227    1.344012
     54          6           0       -8.317300   -1.009226    1.955487
     55          6           0       -8.315084   -1.248856    3.434753
     56          6           0       -8.570294    0.518870    1.637419
     57          6           0       -9.822359    0.937772    0.793150
     58          6           0      -10.985123   -0.067292    0.707913
     59          6           0      -12.420743    0.637583    0.798257
     60          6           0      -13.051402    0.464263    2.190864
     61          6           0      -13.243087    0.007196   -0.287277
     62          6           0      -14.010870    0.986954   -1.156612
     63          6           0      -15.470409    1.134831   -0.586645
     64          6           0      -15.829192    2.625288   -0.663370
     65          6           0      -16.902389    2.970303    0.357083
     66          6           0      -16.240830    3.217560   -2.037350
     67          1           0        1.016174    1.699001   -0.559805
     68          1           0        6.424017    5.406021   -0.189540
     69          1           0       10.048270    0.072680    0.385899
     70          1           0        2.286011   -3.017878   -0.658605
     71          1           0        0.562682   -0.707966    0.296118
     72          1           0        0.776314   -2.001637   -2.237759
     73          1           0        0.946760   -0.221889   -2.418252
     74          1           0       -0.404917   -0.924452   -1.620199
     75          1           0        2.232816   -2.279412    2.269089
     76          1           0        2.181592   -3.783598    1.380715
     77          1           0       -0.155623   -1.941361    1.950488
     78          1           0        0.201264   -3.596903    2.376595
     79          1           0        0.666878    5.075171    0.215981
     80          1           0        0.304179    3.571317   -0.552524
     81          1           0        0.846635    4.787500   -1.579358
     82          1           0        1.630666    7.150334   -0.111993
     83          1           0        1.729335    6.777727   -1.772023
     84          1           0        2.622350    8.221409   -0.985152
     85          1           0        8.871853    4.856621    0.842310
     86          1           0       10.325937    2.662520   -0.512179
     87          1           0        8.481354    4.854144   -1.894258
     88          1           0       10.258660    4.679095   -1.595961
     89          1           0        9.312121    6.054487   -0.860337
     90          1           0       10.934399    3.736654    1.858139
     91          1           0       11.295286    2.092008    1.528703
     92          1           0       10.103977    1.610984    3.407239
     93          1           0        8.656070    2.433963    2.633341
     94          1           0        9.672835    3.304926    3.729877
     95          1           0        9.846659   -3.722709    0.833998
     96          1           0       10.585964   -2.135504    0.767026
     97          1           0       10.122667   -2.932737   -0.720642
     98          1           0        4.921052   -4.418195    1.201579
     99          1           0        4.123945   -7.542444   -1.887930
    100          1           0        3.091851   -6.384472   -2.292346
    101          1           0        2.708655   -7.328419   -0.761840
    102          1           0       -2.925353   -4.267312   -0.691790
    103          1           0       -2.137623   -2.987624   -1.607531
    104          1           0       -4.135043   -1.888486    0.320907
    105          1           0       -4.065226   -3.476040   -3.283641
    106          1           0       -5.313552   -2.419774   -3.689316
    107          1           0       -5.721863   -3.877649   -2.922115
    108          1           0       -6.799492   -1.551700   -2.040418
    109          1           0       -5.781782   -0.742952   -0.814923
    110          1           0       -6.804816   -3.154001    0.424868
    111          1           0       -8.115716   -2.170161   -0.344807
    112          1           0       -6.273581   -0.544318    1.176505
    113          1           0       -6.347997   -1.998729    2.000105
    114          1           0       -9.169984   -1.550083    1.543292
    115          1           0       -7.835076   -0.440113    3.986689
    116          1           0       -7.699388   -2.129399    3.614088
    117          1           0       -9.319930   -1.401837    3.827993
    118          1           0       -7.756506    0.852931    0.993971
    119          1           0       -8.548971    1.105157    2.555977
    120          1           0       -9.362780    1.108114   -0.180133
    121          1           0      -10.034102    1.892092    1.276069
    122          1           0      -10.885133   -0.607779    1.648710
    123          1           0      -10.739040   -0.871912    0.014804
    124          1           0      -12.173603    1.692188    0.676724
    125          1           0      -12.285467    0.126717    2.888473
    126          1           0      -13.882191   -0.238814    2.251306
    127          1           0      -13.359301    1.384988    2.687769
    128          1           0      -13.889645   -0.716467    0.209237
    129          1           0      -12.632418   -0.593232   -0.960321
    130          1           0      -14.098890    0.876210   -2.237532
    131          1           0      -13.407400    1.895170   -1.166352
    132          1           0      -15.616500    0.716631    0.409825
    133          1           0      -16.175172    0.522969   -1.150426
    134          1           0      -14.993574    3.168015   -0.222449
    135          1           0      -16.750796    2.430874    1.292405
    136          1           0      -17.899078    2.817472   -0.055799
    137          1           0      -16.950043    4.044955    0.527239
    138          1           0      -17.086284    3.872721   -1.830826
    139          1           0      -16.523043    2.317947   -2.584210
    140          1           0      -15.488029    3.929495   -2.377659
 ---------------------------------------------------------------------

 SCF Done:  E(RCAM-B3LYP) =  -3007.14372077     A.U. after   19 cycles

 Excitation energies and oscillator strengths:

 Excited State   1:      Singlet-A      1.6733 eV  740.95 nm  f=0.3670  <S**2>=0.000
     245 -> 248       -0.17405
     246 -> 247        0.68758
     245 <- 248       -0.10834
 This state for optimization and/or second-order correction.
 Total Energy, E(TD-HF/TD-DFT) =  -3007.08222772
 Copying the excited state density for this state as the 1-particle RhoCI density.

 Excited State   2:      Singlet-A      2.2241 eV  557.45 nm  f=0.1133  <S**2>=0.000
     245 -> 247        0.63530
     246 -> 248        0.29476

 Excited State   3:      Singlet-A      3.1421 eV  394.59 nm  f=0.0067  <S**2>=0.000
     243 -> 247        0.12682
     244 -> 247        0.67482

 Excited State   4:      Singlet-A      3.4267 eV  361.82 nm  f=0.0659  <S**2>=0.000
     240 -> 247       -0.11906
     242 -> 249       -0.15121
     243 -> 247        0.56562
     243 -> 249       -0.19606
     243 -> 250       -0.11528
     244 -> 247       -0.11831
     246 -> 248       -0.15014

 Excited State   5:      Singlet-A      3.4612 eV  358.22 nm  f=0.1504  <S**2>=0.000
     240 -> 247        0.16405
     242 -> 247        0.50166
     243 -> 247       -0.18232
     245 -> 247        0.11985
     246 -> 248       -0.38179

 The electronic state is 1-A.
 Alpha  occ. eigenvalues --  -46.88430 -19.25298 -19.23544 -19.20525 -19.18646
 Alpha  occ. eigenvalues --  -19.18270 -19.17840 -14.42358 -14.42012 -14.40108
 Alpha  occ. eigenvalues --  -14.38114 -10.39743 -10.38329 -10.34737 -10.34276
 Alpha  occ. eigenvalues --  -10.32498 -10.31374 -10.31348 -10.31335 -10.31181
 Alpha  occ. eigenvalues --  -10.30894 -10.30833 -10.30754 -10.28868 -10.28195
 Alpha  occ. eigenvalues --  -10.28159 -10.28070 -10.27871 -10.27853 -10.27670
 Alpha  occ. eigenvalues --  -10.27652 -10.27541 -10.27493 -10.27342 -10.27333
 Alpha  occ. eigenvalues --  -10.27220 -10.27053 -10.27010 -10.26946 -10.26787
 Alpha  occ. eigenvalues --  -10.26692 -10.26625 -10.26310 -10.26073 -10.26057
 Alpha  occ. eigenvalues --  -10.25936 -10.25751 -10.25716 -10.25601 -10.25505
 Alpha  occ. eigenvalues --  -10.25235 -10.25200 -10.25017 -10.24928 -10.24908
 Alpha  occ. eigenvalues --  -10.24874 -10.24801 -10.24747 -10.24746 -10.24709
 Alpha  occ. eigenvalues --  -10.24615 -10.24544 -10.24305 -10.24181 -10.24111
 Alpha  occ. eigenvalues --  -10.23705  -3.16792  -1.91724  -1.91234  -1.91092
 Alpha  occ. eigenvalues --   -1.17733  -1.13829  -1.11555  -1.09447  -1.07593
 Alpha  occ. eigenvalues --   -1.04729  -1.03160  -1.02215  -1.01986  -1.00757
 Alpha  occ. eigenvalues --   -0.92746  -0.91609  -0.90376  -0.89647  -0.89335
 Alpha  occ. eigenvalues --   -0.88922  -0.87908  -0.87768  -0.87326  -0.86625
 Alpha  occ. eigenvalues --   -0.86005  -0.85432  -0.84618  -0.83404  -0.83071
 Alpha  occ. eigenvalues --   -0.82635  -0.81986  -0.81499  -0.80848  -0.80491
 Alpha  occ. eigenvalues --   -0.80368  -0.78733  -0.78121  -0.77154  -0.76620
 Alpha  occ. eigenvalues --   -0.75725  -0.75554  -0.75120  -0.74757  -0.74449
 Alpha  occ. eigenvalues --   -0.73916  -0.72596  -0.71374  -0.70561  -0.69069
 Alpha  occ. eigenvalues --   -0.68746  -0.68066  -0.67457  -0.66885  -0.66128
 Alpha  occ. eigenvalues --   -0.65123  -0.64637  -0.64564  -0.64108  -0.63808
 Alpha  occ. eigenvalues --   -0.63570  -0.62687  -0.62104  -0.60980  -0.60281
 Alpha  occ. eigenvalues --   -0.60266  -0.59612  -0.59179  -0.58123  -0.57725
 Alpha  occ. eigenvalues --   -0.57378  -0.56902  -0.56195  -0.55665  -0.55553
 Alpha  occ. eigenvalues --   -0.55387  -0.55126  -0.54659  -0.54421  -0.54290
 Alpha  occ. eigenvalues --   -0.54033  -0.53450  -0.53361  -0.53095  -0.52955
 Alpha  occ. eigenvalues --   -0.52696  -0.52497  -0.52164  -0.51903  -0.51544
 Alpha  occ. eigenvalues --   -0.51450  -0.51072  -0.50869  -0.50811  -0.50591
 Alpha  occ. eigenvalues --   -0.50565  -0.50193  -0.49941  -0.49797  -0.49706
 Alpha  occ. eigenvalues --   -0.49361  -0.49343  -0.49067  -0.48753  -0.48696
 Alpha  occ. eigenvalues --   -0.48614  -0.48395  -0.48291  -0.48124  -0.47868
 Alpha  occ. eigenvalues --   -0.47629  -0.47498  -0.47243  -0.47115  -0.46893
 Alpha  occ. eigenvalues --   -0.46495  -0.46114  -0.45765  -0.45657  -0.45513
 Alpha  occ. eigenvalues --   -0.45399  -0.45171  -0.44992  -0.44889  -0.44872
 Alpha  occ. eigenvalues --   -0.44710  -0.44584  -0.44260  -0.44159  -0.43827
 Alpha  occ. eigenvalues --   -0.43704  -0.43644  -0.43376  -0.43220  -0.42746
 Alpha  occ. eigenvalues --   -0.42525  -0.42331  -0.42232  -0.42168  -0.42068
 Alpha  occ. eigenvalues --   -0.41667  -0.41487  -0.41272  -0.41118  -0.40960
 Alpha  occ. eigenvalues --   -0.40656  -0.40299  -0.40162  -0.40032  -0.39962
 Alpha  occ. eigenvalues --   -0.39897  -0.39615  -0.39267  -0.38666  -0.38479
 Alpha  occ. eigenvalues --   -0.38368  -0.38172  -0.38083  -0.37569  -0.37249
 Alpha  occ. eigenvalues --   -0.36995  -0.36772  -0.36671  -0.36057  -0.35963
 Alpha  occ. eigenvalues --   -0.35625  -0.34969  -0.34581  -0.34544  -0.33871
 Alpha  occ. eigenvalues --   -0.33127  -0.32978  -0.32855  -0.31351  -0.31062
 Alpha  occ. eigenvalues --   -0.30827  -0.30225  -0.29696  -0.28264  -0.24059
 Alpha  occ. eigenvalues --   -0.20936
 Alpha virt. eigenvalues --   -0.08713  -0.01620   0.00739   0.02670   0.03749
 Alpha virt. eigenvalues --    0.04811   0.05126   0.05606   0.05809   0.06516
 Alpha virt. eigenvalues --    0.08113   0.08226   0.08533   0.08863   0.08973

 Mulliken charges:
               1
     1  Mg   0.801740
     2  C    0.055460
     3  C   -0.075995
     4  C   -0.039136
     5  C   -0.097620
     6  N   -0.287131
     7  C   -0.014559
     8  C   -0.026140
     9  C   -0.083065
    10  C    0.065818
    11  C    0.074133
    12  C    0.086568
    13  C    0.025249
    14  C    0.143672
    15  O   -0.196352
    16  O   -0.347469
    17  N   -0.386767
    18  C    0.172242
    19  C   -0.161894
    20  C   -0.010454
    21  C    0.140668
    22  C    0.110650
    23  C   -0.028648
    24  O   -0.184254
    25  C    0.077513
    26  N   -0.324787
    27  C    0.050407
    28  C   -0.077515
    29  C    0.027767
    30  C    0.017379
    31  C    0.044379
    32  C    0.015538
    33  C   -0.007744
    34  N   -0.376877
    35  C    0.179397
    36  C   -0.144016
    37  C   -0.011677
    38  C    0.088017
    39  C    0.123117
    40  C    0.042996
    41  O   -0.188268
    42  C   -0.019754
    43  C    0.188751
    44  O   -0.256384
    45  O   -0.342794
    46  C    0.178518
    47  C    0.280338
    48  C   -0.147630
    49  C   -0.112768
    50  C    0.063544
    51  C    0.050495
    52  C    0.031715
    53  C    0.041784
    54  C   -0.135313
    55  C    0.062719
    56  C    0.016449
    57  C    0.012690
    58  C    0.013755
    59  C   -0.093593
    60  C    0.052858
    61  C    0.086773
    62  C    0.030947
    63  C    0.043739
    64  C   -0.178767
    65  C    0.036408
    66  C    0.085055
    67  H   -0.031856
    68  H   -0.007603
    69  H   -0.033128
    70  H    0.040478
    71  H    0.013287
    72  H    0.043957
    73  H    0.013034
    74  H   -0.005242
    75  H    0.009001
    76  H    0.006674
    77  H    0.033957
    78  H    0.035014
    79  H    0.035109
    80  H    0.005943
    81  H    0.031253
    82  H    0.019474
    83  H    0.025689
    84  H    0.029946
    85  H    0.015024
    86  H    0.005298
    87  H    0.024723
    88  H    0.028101
    89  H    0.026245
    90  H    0.004877
    91  H    0.004750
    92  H    0.022424
    93  H    0.023559
    94  H    0.016121
    95  H    0.034703
    96  H    0.003312
    97  H    0.034462
    98  H    0.050740
    99  H    0.032709
   100  H    0.043791
   101  H    0.047238
   102  H    0.028724
   103  H    0.040913
   104  H    0.001449
   105  H    0.005074
   106  H    0.018664
   107  H    0.024824
   108  H   -0.011573
   109  H    0.007186
   110  H    0.007205
   111  H    0.006170
   112  H   -0.007492
   113  H   -0.015196
   114  H    0.006110
   115  H    0.002700
   116  H   -0.002582
   117  H    0.007892
   118  H   -0.012230
   119  H   -0.005898
   120  H   -0.006273
   121  H   -0.001784
   122  H   -0.005221
   123  H    0.005144
   124  H    0.005020
   125  H   -0.006085
   126  H    0.013105
   127  H    0.004232
   128  H   -0.011867
   129  H   -0.013135
   130  H   -0.011755
   131  H   -0.011956
   132  H   -0.009259
   133  H   -0.009674
   134  H   -0.006718
   135  H    0.005745
   136  H   -0.008807
   137  H   -0.004630
   138  H   -0.005395
   139  H    0.019331
   140  H    0.013103
 Sum of Mulliken charges =  -0.00000

 Dipole moment (field-independent basis, Debye):
    X=             -6.0217    Y=              3.0389    Z=              1.5245  Tot=              6.9152
 Quadrupole moment (field-independent basis, Debye-Ang):
   XX=           -399.4686   YY=           -426.3445   ZZ=           -403.4752
   XY=             28.9625   XZ=             14.0554   YZ=             -0.1273

 Normal termination of Gaussian 16 at Wed Apr 27 05:55:43 2022.
