 Gaussian 16, Revision A.03,
 Gaussian 16:  ES64L-G16RevA.03 25-Dec-2016

 ---------------------------------
 #p PBE1PBE/Def2SVP td=(nstates=5)
 ---------------------------------

 ------------------------------------------------------
 step_1101_chromophore_18 TDDFT with PBE1PBE functional
 ------------------------------------------------------
 Symbolic Z-matrix:
 Charge =  0 Multiplicity = 1

                         Standard orientation:
 ---------------------------------------------------------------------
 Center     Atomic      Atomic             Coordinates (Angstroms)
 Number     Number       Type             X           Y           Z
 ---------------------------------------------------------------------
      1         12           0        5.519686    1.008670    0.021735
      2          6           0        4.871028   -2.435821    0.179568
      3          6           0        2.087412    1.526249   -0.441651
      4          6           0        6.139931    4.353187   -0.134074
      5          6           0        8.984340    0.282510    0.258114
      6          7           0        3.721186   -0.297692   -0.164121
      7          6           0        3.687492   -1.692000   -0.007830
      8          6           0        2.241346   -2.172991    0.029293
      9          6           0        1.373394   -0.920454   -0.401005
     10          6           0        2.463626    0.178194   -0.327083
     11          6           0        0.672257   -1.034808   -1.745841
     12          6           0        1.787204   -2.767573    1.401320
     13          6           0        0.277067   -2.866338    1.571445
     14          6           0       -0.553079   -3.380292    0.393210
     15          8           0       -0.104959   -3.988877   -0.522920
     16          8           0       -1.851400   -2.975491    0.487896
     17          7           0        4.298642    2.722374   -0.258775
     18          6           0        2.888508    2.677037   -0.259266
     19          6           0        2.420841    4.075972   -0.415747
     20          6           0        3.563774    4.903614   -0.438651
     21          6           0        4.735681    4.009793   -0.225279
     22          6           0        1.008554    4.403055   -0.571550
     23          6           0        3.547254    6.400961   -0.656552
     24          8           0        4.561322    7.027221   -0.519414
     25          6           0        2.326458    7.173242   -0.950372
     26          7           0        7.323047    2.168166   -0.008594
     27          6           0        7.278809    3.551372   -0.032510
     28          6           0        8.773283    4.121731    0.042795
     29          6           0        9.631418    2.794970    0.317255
     30          6           0        8.643760    1.680655    0.122328
     31          6           0        9.303311    5.018243   -1.197291
     32          6           0       10.458121    2.782078    1.637623
     33          6           0        9.688037    2.520456    2.973754
     34          7           0        6.743638   -0.689847    0.187551
     35          6           0        8.163626   -0.799408    0.234201
     36          6           0        8.504408   -2.142787    0.306666
     37          6           0        7.235409   -2.854700    0.275678
     38          6           0        6.196571   -1.914673    0.213130
     39          6           0        9.820329   -2.766066    0.313389
     40          6           0        6.647768   -4.168333    0.170705
     41          8           0        7.184223   -5.288994    0.134659
     42          6           0        5.111788   -3.904119    0.259225
     43          6           0        4.361371   -4.589852   -0.760336
     44          8           0        4.028168   -4.160778   -1.890637
     45          8           0        4.225655   -5.929006   -0.464536
     46          6           0        3.466546   -6.840707   -1.376238
     47          6           0       -2.703663   -3.200335   -0.699752
     48          6           0       -3.987932   -2.457360   -0.596882
     49          6           0       -4.920726   -2.426868   -1.487250
     50          6           0       -4.991277   -3.070238   -2.876501
     51          6           0       -6.205429   -1.694544   -1.137899
     52          6           0       -7.101226   -2.172887    0.054390
     53          6           0       -6.956677   -1.377227    1.344012
     54          6           0       -8.317300   -1.009226    1.955487
     55          6           0       -8.315084   -1.248856    3.434753
     56          6           0       -8.570294    0.518870    1.637419
     57          6           0       -9.822359    0.937772    0.793150
     58          6           0      -10.985123   -0.067292    0.707913
     59          6           0      -12.420743    0.637583    0.798257
     60          6           0      -13.051402    0.464263    2.190864
     61          6           0      -13.243087    0.007196   -0.287277
     62          6           0      -14.010870    0.986954   -1.156612
     63          6           0      -15.470409    1.134831   -0.586645
     64          6           0      -15.829192    2.625288   -0.663370
     65          6           0      -16.902389    2.970303    0.357083
     66          6           0      -16.240830    3.217560   -2.037350
     67          1           0        1.016174    1.699001   -0.559805
     68          1           0        6.424017    5.406021   -0.189540
     69          1           0       10.048270    0.072680    0.385899
     70          1           0        2.286011   -3.017878   -0.658605
     71          1           0        0.562682   -0.707966    0.296118
     72          1           0        0.776314   -2.001637   -2.237759
     73          1           0        0.946760   -0.221889   -2.418252
     74          1           0       -0.404917   -0.924452   -1.620199
     75          1           0        2.232816   -2.279412    2.269089
     76          1           0        2.181592   -3.783598    1.380715
     77          1           0       -0.155623   -1.941361    1.950488
     78          1           0        0.201264   -3.596903    2.376595
     79          1           0        0.666878    5.075171    0.215981
     80          1           0        0.304179    3.571317   -0.552524
     81          1           0        0.846635    4.787500   -1.579358
     82          1           0        1.630666    7.150334   -0.111993
     83          1           0        1.729335    6.777727   -1.772023
     84          1           0        2.622350    8.221409   -0.985152
     85          1           0        8.871853    4.856621    0.842310
     86          1           0       10.325937    2.662520   -0.512179
     87          1           0        8.481354    4.854144   -1.894258
     88          1           0       10.258660    4.679095   -1.595961
     89          1           0        9.312121    6.054487   -0.860337
     90          1           0       10.934399    3.736654    1.858139
     91          1           0       11.295286    2.092008    1.528703
     92          1           0       10.103977    1.610984    3.407239
     93          1           0        8.656070    2.433963    2.633341
     94          1           0        9.672835    3.304926    3.729877
     95          1           0        9.846659   -3.722709    0.833998
     96          1           0       10.585964   -2.135504    0.767026
     97          1           0       10.122667   -2.932737   -0.720642
     98          1           0        4.921052   -4.418195    1.201579
     99          1           0        4.123945   -7.542444   -1.887930
    100          1           0        3.091851   -6.384472   -2.292346
    101          1           0        2.708655   -7.328419   -0.761840
    102          1           0       -2.925353   -4.267312   -0.691790
    103          1           0       -2.137623   -2.987624   -1.607531
    104          1           0       -4.135043   -1.888486    0.320907
    105          1           0       -4.065226   -3.476040   -3.283641
    106          1           0       -5.313552   -2.419774   -3.689316
    107          1           0       -5.721863   -3.877649   -2.922115
    108          1           0       -6.799492   -1.551700   -2.040418
    109          1           0       -5.781782   -0.742952   -0.814923
    110          1           0       -6.804816   -3.154001    0.424868
    111          1           0       -8.115716   -2.170161   -0.344807
    112          1           0       -6.273581   -0.544318    1.176505
    113          1           0       -6.347997   -1.998729    2.000105
    114          1           0       -9.169984   -1.550083    1.543292
    115          1           0       -7.835076   -0.440113    3.986689
    116          1           0       -7.699388   -2.129399    3.614088
    117          1           0       -9.319930   -1.401837    3.827993
    118          1           0       -7.756506    0.852931    0.993971
    119          1           0       -8.548971    1.105157    2.555977
    120          1           0       -9.362780    1.108114   -0.180133
    121          1           0      -10.034102    1.892092    1.276069
    122          1           0      -10.885133   -0.607779    1.648710
    123          1           0      -10.739040   -0.871912    0.014804
    124          1           0      -12.173603    1.692188    0.676724
    125          1           0      -12.285467    0.126717    2.888473
    126          1           0      -13.882191   -0.238814    2.251306
    127          1           0      -13.359301    1.384988    2.687769
    128          1           0      -13.889645   -0.716467    0.209237
    129          1           0      -12.632418   -0.593232   -0.960321
    130          1           0      -14.098890    0.876210   -2.237532
    131          1           0      -13.407400    1.895170   -1.166352
    132          1           0      -15.616500    0.716631    0.409825
    133          1           0      -16.175172    0.522969   -1.150426
    134          1           0      -14.993574    3.168015   -0.222449
    135          1           0      -16.750796    2.430874    1.292405
    136          1           0      -17.899078    2.817472   -0.055799
    137          1           0      -16.950043    4.044955    0.527239
    138          1           0      -17.086284    3.872721   -1.830826
    139          1           0      -16.523043    2.317947   -2.584210
    140          1           0      -15.488029    3.929495   -2.377659
 ---------------------------------------------------------------------

 SCF Done:  E(RPBE1PBE) =  -3005.33252242     A.U. after   16 cycles

 Excitation energies and oscillator strengths:

 Excited State   1:      Singlet-A      1.8168 eV  682.42 nm  f=0.3488  <S**2>=0.000
     245 -> 248       -0.16882
     246 -> 247        0.69435
     246 <- 247       -0.11157
 This state for optimization and/or second-order correction.
 Total Energy, E(TD-HF/TD-DFT) =  -3005.26575493
 Copying the excited state density for this state as the 1-particle RhoCI density.

 Excited State   2:      Singlet-A      2.2230 eV  557.74 nm  f=0.1132  <S**2>=0.000
     245 -> 247        0.64555
     246 -> 248        0.26783

 Excited State   3:      Singlet-A      2.7915 eV  444.14 nm  f=0.0098  <S**2>=0.000
     243 -> 247        0.14709
     244 -> 247        0.67724

 Excited State   4:      Singlet-A      2.9013 eV  427.34 nm  f=0.0060  <S**2>=0.000
     243 -> 247        0.65175
     243 -> 249        0.13440
     244 -> 247       -0.14913

 Excited State   5:      Singlet-A      3.1042 eV  399.40 nm  f=0.0021  <S**2>=0.000
     241 -> 247        0.19959
     242 -> 247        0.65101

 The electronic state is 1-A.
 Alpha  occ. eigenvalues --  -46.91821 -19.25968 -19.24246 -19.20734 -19.18638
 Alpha  occ. eigenvalues --  -19.18582 -19.18348 -14.41829 -14.41595 -14.39654
 Alpha  occ. eigenvalues --  -14.37934 -10.36737 -10.35354 -10.31655 -10.31610
 Alpha  occ. eigenvalues --  -10.29871 -10.29031 -10.28958 -10.28902 -10.28823
 Alpha  occ. eigenvalues --  -10.28822 -10.28225 -10.28028 -10.26225 -10.26163
 Alpha  occ. eigenvalues --  -10.26018 -10.25920 -10.25592 -10.25551 -10.25468
 Alpha  occ. eigenvalues --  -10.25380 -10.25370 -10.24931 -10.24875 -10.24861
 Alpha  occ. eigenvalues --  -10.24857 -10.24840 -10.24671 -10.24571 -10.24489
 Alpha  occ. eigenvalues --  -10.24310 -10.24025 -10.23998 -10.23774 -10.23427
 Alpha  occ. eigenvalues --  -10.23325 -10.23321 -10.23207 -10.23201 -10.23058
 Alpha  occ. eigenvalues --  -10.22797 -10.22647 -10.22608 -10.22517 -10.22469
 Alpha  occ. eigenvalues --  -10.22397 -10.22371 -10.22257 -10.22206 -10.22166
 Alpha  occ. eigenvalues --  -10.22147 -10.22115 -10.22076 -10.21728 -10.21688
 Alpha  occ. eigenvalues --  -10.21073  -3.13771  -1.86644  -1.86131  -1.85992
 Alpha  occ. eigenvalues --   -1.12511  -1.08613  -1.06111  -1.04299  -1.02546
 Alpha  occ. eigenvalues --   -0.99565  -0.97720  -0.96857  -0.96593  -0.95383
 Alpha  occ. eigenvalues --   -0.87229  -0.85756  -0.84474  -0.83816  -0.83469
 Alpha  occ. eigenvalues --   -0.83050  -0.82056  -0.82017  -0.81550  -0.81053
 Alpha  occ. eigenvalues --   -0.80350  -0.79654  -0.78795  -0.77684  -0.77342
 Alpha  occ. eigenvalues --   -0.76791  -0.76100  -0.75688  -0.75141  -0.74738
 Alpha  occ. eigenvalues --   -0.74640  -0.72884  -0.72431  -0.71523  -0.70816
 Alpha  occ. eigenvalues --   -0.70079  -0.69664  -0.69209  -0.69111  -0.68629
 Alpha  occ. eigenvalues --   -0.68190  -0.67109  -0.65749  -0.64900  -0.63424
 Alpha  occ. eigenvalues --   -0.62976  -0.62532  -0.61675  -0.61258  -0.60352
 Alpha  occ. eigenvalues --   -0.59541  -0.59145  -0.58736  -0.58710  -0.58318
 Alpha  occ. eigenvalues --   -0.57996  -0.56875  -0.56332  -0.55634  -0.54713
 Alpha  occ. eigenvalues --   -0.54684  -0.54211  -0.53659  -0.52806  -0.52079
 Alpha  occ. eigenvalues --   -0.51890  -0.51464  -0.50676  -0.50294  -0.50099
 Alpha  occ. eigenvalues --   -0.49875  -0.49629  -0.49110  -0.48829  -0.48708
 Alpha  occ. eigenvalues --   -0.48557  -0.47862  -0.47776  -0.47533  -0.47479
 Alpha  occ. eigenvalues --   -0.47220  -0.47016  -0.46754  -0.46491  -0.46077
 Alpha  occ. eigenvalues --   -0.46040  -0.45663  -0.45385  -0.45302  -0.45263
 Alpha  occ. eigenvalues --   -0.44955  -0.44747  -0.44567  -0.44347  -0.44252
 Alpha  occ. eigenvalues --   -0.43989  -0.43952  -0.43624  -0.43367  -0.43289
 Alpha  occ. eigenvalues --   -0.43218  -0.43080  -0.42887  -0.42681  -0.42503
 Alpha  occ. eigenvalues --   -0.42254  -0.42128  -0.41763  -0.41683  -0.41494
 Alpha  occ. eigenvalues --   -0.41183  -0.40954  -0.40526  -0.40294  -0.40267
 Alpha  occ. eigenvalues --   -0.40026  -0.39807  -0.39763  -0.39720  -0.39621
 Alpha  occ. eigenvalues --   -0.39433  -0.39388  -0.39005  -0.38897  -0.38655
 Alpha  occ. eigenvalues --   -0.38478  -0.38340  -0.38148  -0.37865  -0.37617
 Alpha  occ. eigenvalues --   -0.37376  -0.37230  -0.37100  -0.36882  -0.36803
 Alpha  occ. eigenvalues --   -0.36466  -0.36216  -0.36175  -0.35880  -0.35840
 Alpha  occ. eigenvalues --   -0.35550  -0.35108  -0.34971  -0.34846  -0.34827
 Alpha  occ. eigenvalues --   -0.34731  -0.34342  -0.34065  -0.33558  -0.33434
 Alpha  occ. eigenvalues --   -0.33156  -0.33107  -0.32991  -0.32488  -0.32119
 Alpha  occ. eigenvalues --   -0.32033  -0.31722  -0.31515  -0.31116  -0.30809
 Alpha  occ. eigenvalues --   -0.30464  -0.29888  -0.29500  -0.29455  -0.29184
 Alpha  occ. eigenvalues --   -0.28628  -0.27935  -0.27638  -0.26681  -0.26043
 Alpha  occ. eigenvalues --   -0.25931  -0.25531  -0.24950  -0.24152  -0.20959
 Alpha  occ. eigenvalues --   -0.18583
 Alpha virt. eigenvalues --   -0.11154  -0.05113  -0.03474  -0.01729   0.00184
 Alpha virt. eigenvalues --    0.00616   0.00768   0.01285   0.01677   0.03072
 Alpha virt. eigenvalues --    0.04220   0.04522   0.05007   0.05264   0.05637

 Mulliken charges:
               1
     1  Mg   0.949982
     2  C    0.033641
     3  C   -0.069603
     4  C   -0.034791
     5  C   -0.087243
     6  N   -0.392727
     7  C    0.062357
     8  C   -0.094415
     9  C   -0.159806
    10  C    0.099616
    11  C    0.019265
    12  C    0.041557
    13  C   -0.062972
    14  C    0.218971
    15  O   -0.231258
    16  O   -0.382323
    17  N   -0.493709
    18  C    0.199267
    19  C   -0.194641
    20  C   -0.064091
    21  C    0.171360
    22  C    0.049112
    23  C    0.026657
    24  O   -0.222631
    25  C    0.003983
    26  N   -0.425543
    27  C    0.075895
    28  C   -0.137301
    29  C   -0.052970
    30  C    0.060029
    31  C   -0.017088
    32  C   -0.044864
    33  C   -0.081799
    34  N   -0.505080
    35  C    0.194671
    36  C   -0.167197
    37  C   -0.058364
    38  C    0.145910
    39  C    0.071728
    40  C    0.136907
    41  O   -0.231902
    42  C   -0.117124
    43  C    0.273542
    44  O   -0.289830
    45  O   -0.376111
    46  C    0.125928
    47  C    0.246536
    48  C   -0.166775
    49  C   -0.154892
    50  C    0.003399
    51  C   -0.016024
    52  C   -0.027058
    53  C   -0.011798
    54  C   -0.232432
    55  C    0.005975
    56  C   -0.026839
    57  C   -0.047759
    58  C   -0.049099
    59  C   -0.175900
    60  C   -0.002940
    61  C    0.027266
    62  C   -0.029227
    63  C   -0.007272
    64  C   -0.271639
    65  C   -0.027737
    66  C    0.021494
    67  H   -0.000215
    68  H    0.024728
    69  H   -0.000780
    70  H    0.080871
    71  H    0.050953
    72  H    0.069470
    73  H    0.041037
    74  H    0.023641
    75  H    0.041198
    76  H    0.042068
    77  H    0.065021
    78  H    0.069177
    79  H    0.061727
    80  H    0.032464
    81  H    0.058340
    82  H    0.046983
    83  H    0.052117
    84  H    0.056447
    85  H    0.051951
    86  H    0.044358
    87  H    0.053971
    88  H    0.054071
    89  H    0.052813
    90  H    0.038966
    91  H    0.036218
    92  H    0.049525
    93  H    0.056123
    94  H    0.043881
    95  H    0.062253
    96  H    0.031060
    97  H    0.063806
    98  H    0.086849
    99  H    0.054065
   100  H    0.063865
   101  H    0.068670
   102  H    0.056048
   103  H    0.065311
   104  H    0.033194
   105  H    0.032049
   106  H    0.045442
   107  H    0.052705
   108  H    0.019844
   109  H    0.041494
   110  H    0.040431
   111  H    0.038967
   112  H    0.022153
   113  H    0.016386
   114  H    0.042751
   115  H    0.030012
   116  H    0.025937
   117  H    0.035556
   118  H    0.020855
   119  H    0.025031
   120  H    0.027696
   121  H    0.029920
   122  H    0.031712
   123  H    0.036243
   124  H    0.041084
   125  H    0.021307
   126  H    0.037989
   127  H    0.032074
   128  H    0.021083
   129  H    0.020700
   130  H    0.020212
   131  H    0.020006
   132  H    0.022322
   133  H    0.022798
   134  H    0.033079
   135  H    0.033225
   136  H    0.020380
   137  H    0.024440
   138  H    0.022709
   139  H    0.046496
   140  H    0.040392
 Sum of Mulliken charges =  -0.00000

 Dipole moment (field-independent basis, Debye):
    X=             -5.5984    Y=              2.6728    Z=              1.6136  Tot=              6.4101
 Quadrupole moment (field-independent basis, Debye-Ang):
   XX=           -389.6323   YY=           -424.1526   ZZ=           -400.9163
   XY=             27.7176   XZ=             14.5185   YZ=              0.1794

 Normal termination of Gaussian 16 at Wed Apr 27 06:13:45 2022.
