 Gaussian 16, Revision A.03,
 Gaussian 16:  ES64L-G16RevA.03 25-Dec-2016

 --------------------------------
 #p wB97XD/Def2SVP td=(nstates=5)
 --------------------------------

 -----------------------------------------------------
 step_1101_chromophore_18 TDDFT with wB97XD functional
 -----------------------------------------------------
 Symbolic Z-matrix:
 Charge =  0 Multiplicity = 1

                         Standard orientation:
 ---------------------------------------------------------------------
 Center     Atomic      Atomic             Coordinates (Angstroms)
 Number     Number       Type             X           Y           Z
 ---------------------------------------------------------------------
      1         12           0        5.519686    1.008670    0.021735
      2          6           0        4.871028   -2.435821    0.179568
      3          6           0        2.087412    1.526249   -0.441651
      4          6           0        6.139931    4.353187   -0.134074
      5          6           0        8.984340    0.282510    0.258114
      6          7           0        3.721186   -0.297692   -0.164121
      7          6           0        3.687492   -1.692000   -0.007830
      8          6           0        2.241346   -2.172991    0.029293
      9          6           0        1.373394   -0.920454   -0.401005
     10          6           0        2.463626    0.178194   -0.327083
     11          6           0        0.672257   -1.034808   -1.745841
     12          6           0        1.787204   -2.767573    1.401320
     13          6           0        0.277067   -2.866338    1.571445
     14          6           0       -0.553079   -3.380292    0.393210
     15          8           0       -0.104959   -3.988877   -0.522920
     16          8           0       -1.851400   -2.975491    0.487896
     17          7           0        4.298642    2.722374   -0.258775
     18          6           0        2.888508    2.677037   -0.259266
     19          6           0        2.420841    4.075972   -0.415747
     20          6           0        3.563774    4.903614   -0.438651
     21          6           0        4.735681    4.009793   -0.225279
     22          6           0        1.008554    4.403055   -0.571550
     23          6           0        3.547254    6.400961   -0.656552
     24          8           0        4.561322    7.027221   -0.519414
     25          6           0        2.326458    7.173242   -0.950372
     26          7           0        7.323047    2.168166   -0.008594
     27          6           0        7.278809    3.551372   -0.032510
     28          6           0        8.773283    4.121731    0.042795
     29          6           0        9.631418    2.794970    0.317255
     30          6           0        8.643760    1.680655    0.122328
     31          6           0        9.303311    5.018243   -1.197291
     32          6           0       10.458121    2.782078    1.637623
     33          6           0        9.688037    2.520456    2.973754
     34          7           0        6.743638   -0.689847    0.187551
     35          6           0        8.163626   -0.799408    0.234201
     36          6           0        8.504408   -2.142787    0.306666
     37          6           0        7.235409   -2.854700    0.275678
     38          6           0        6.196571   -1.914673    0.213130
     39          6           0        9.820329   -2.766066    0.313389
     40          6           0        6.647768   -4.168333    0.170705
     41          8           0        7.184223   -5.288994    0.134659
     42          6           0        5.111788   -3.904119    0.259225
     43          6           0        4.361371   -4.589852   -0.760336
     44          8           0        4.028168   -4.160778   -1.890637
     45          8           0        4.225655   -5.929006   -0.464536
     46          6           0        3.466546   -6.840707   -1.376238
     47          6           0       -2.703663   -3.200335   -0.699752
     48          6           0       -3.987932   -2.457360   -0.596882
     49          6           0       -4.920726   -2.426868   -1.487250
     50          6           0       -4.991277   -3.070238   -2.876501
     51          6           0       -6.205429   -1.694544   -1.137899
     52          6           0       -7.101226   -2.172887    0.054390
     53          6           0       -6.956677   -1.377227    1.344012
     54          6           0       -8.317300   -1.009226    1.955487
     55          6           0       -8.315084   -1.248856    3.434753
     56          6           0       -8.570294    0.518870    1.637419
     57          6           0       -9.822359    0.937772    0.793150
     58          6           0      -10.985123   -0.067292    0.707913
     59          6           0      -12.420743    0.637583    0.798257
     60          6           0      -13.051402    0.464263    2.190864
     61          6           0      -13.243087    0.007196   -0.287277
     62          6           0      -14.010870    0.986954   -1.156612
     63          6           0      -15.470409    1.134831   -0.586645
     64          6           0      -15.829192    2.625288   -0.663370
     65          6           0      -16.902389    2.970303    0.357083
     66          6           0      -16.240830    3.217560   -2.037350
     67          1           0        1.016174    1.699001   -0.559805
     68          1           0        6.424017    5.406021   -0.189540
     69          1           0       10.048270    0.072680    0.385899
     70          1           0        2.286011   -3.017878   -0.658605
     71          1           0        0.562682   -0.707966    0.296118
     72          1           0        0.776314   -2.001637   -2.237759
     73          1           0        0.946760   -0.221889   -2.418252
     74          1           0       -0.404917   -0.924452   -1.620199
     75          1           0        2.232816   -2.279412    2.269089
     76          1           0        2.181592   -3.783598    1.380715
     77          1           0       -0.155623   -1.941361    1.950488
     78          1           0        0.201264   -3.596903    2.376595
     79          1           0        0.666878    5.075171    0.215981
     80          1           0        0.304179    3.571317   -0.552524
     81          1           0        0.846635    4.787500   -1.579358
     82          1           0        1.630666    7.150334   -0.111993
     83          1           0        1.729335    6.777727   -1.772023
     84          1           0        2.622350    8.221409   -0.985152
     85          1           0        8.871853    4.856621    0.842310
     86          1           0       10.325937    2.662520   -0.512179
     87          1           0        8.481354    4.854144   -1.894258
     88          1           0       10.258660    4.679095   -1.595961
     89          1           0        9.312121    6.054487   -0.860337
     90          1           0       10.934399    3.736654    1.858139
     91          1           0       11.295286    2.092008    1.528703
     92          1           0       10.103977    1.610984    3.407239
     93          1           0        8.656070    2.433963    2.633341
     94          1           0        9.672835    3.304926    3.729877
     95          1           0        9.846659   -3.722709    0.833998
     96          1           0       10.585964   -2.135504    0.767026
     97          1           0       10.122667   -2.932737   -0.720642
     98          1           0        4.921052   -4.418195    1.201579
     99          1           0        4.123945   -7.542444   -1.887930
    100          1           0        3.091851   -6.384472   -2.292346
    101          1           0        2.708655   -7.328419   -0.761840
    102          1           0       -2.925353   -4.267312   -0.691790
    103          1           0       -2.137623   -2.987624   -1.607531
    104          1           0       -4.135043   -1.888486    0.320907
    105          1           0       -4.065226   -3.476040   -3.283641
    106          1           0       -5.313552   -2.419774   -3.689316
    107          1           0       -5.721863   -3.877649   -2.922115
    108          1           0       -6.799492   -1.551700   -2.040418
    109          1           0       -5.781782   -0.742952   -0.814923
    110          1           0       -6.804816   -3.154001    0.424868
    111          1           0       -8.115716   -2.170161   -0.344807
    112          1           0       -6.273581   -0.544318    1.176505
    113          1           0       -6.347997   -1.998729    2.000105
    114          1           0       -9.169984   -1.550083    1.543292
    115          1           0       -7.835076   -0.440113    3.986689
    116          1           0       -7.699388   -2.129399    3.614088
    117          1           0       -9.319930   -1.401837    3.827993
    118          1           0       -7.756506    0.852931    0.993971
    119          1           0       -8.548971    1.105157    2.555977
    120          1           0       -9.362780    1.108114   -0.180133
    121          1           0      -10.034102    1.892092    1.276069
    122          1           0      -10.885133   -0.607779    1.648710
    123          1           0      -10.739040   -0.871912    0.014804
    124          1           0      -12.173603    1.692188    0.676724
    125          1           0      -12.285467    0.126717    2.888473
    126          1           0      -13.882191   -0.238814    2.251306
    127          1           0      -13.359301    1.384988    2.687769
    128          1           0      -13.889645   -0.716467    0.209237
    129          1           0      -12.632418   -0.593232   -0.960321
    130          1           0      -14.098890    0.876210   -2.237532
    131          1           0      -13.407400    1.895170   -1.166352
    132          1           0      -15.616500    0.716631    0.409825
    133          1           0      -16.175172    0.522969   -1.150426
    134          1           0      -14.993574    3.168015   -0.222449
    135          1           0      -16.750796    2.430874    1.292405
    136          1           0      -17.899078    2.817472   -0.055799
    137          1           0      -16.950043    4.044955    0.527239
    138          1           0      -17.086284    3.872721   -1.830826
    139          1           0      -16.523043    2.317947   -2.584210
    140          1           0      -15.488029    3.929495   -2.377659
 ---------------------------------------------------------------------

 SCF Done:  E(RwB97XD) =  -3007.84153479     A.U. after   19 cycles

 Excitation energies and oscillator strengths:

 Excited State   1:      Singlet-A      1.6219 eV  764.45 nm  f=0.3658  <S**2>=0.000
     245 -> 248       -0.17849
     246 -> 247        0.68567
     245 <- 248       -0.11706
 This state for optimization and/or second-order correction.
 Total Energy, E(TD-HF/TD-DFT) =  -3007.78193202
 Copying the excited state density for this state as the 1-particle RhoCI density.

 Excited State   2:      Singlet-A      2.1696 eV  571.47 nm  f=0.1102  <S**2>=0.000
     245 -> 247        0.63288
     246 -> 248        0.29701

 Excited State   3:      Singlet-A      3.1793 eV  389.97 nm  f=0.0057  <S**2>=0.000
     242 -> 247       -0.14768
     243 -> 247        0.11136
     244 -> 247        0.66160

 Excited State   4:      Singlet-A      3.4681 eV  357.50 nm  f=0.0810  <S**2>=0.000
     239 -> 247       -0.18602
     240 -> 247        0.11791
     242 -> 247        0.45669
     243 -> 247       -0.31413
     244 -> 247        0.12897
     246 -> 248       -0.31202

 Excited State   5:      Singlet-A      3.4796 eV  356.32 nm  f=0.2016  <S**2>=0.000
     242 -> 247        0.17800
     243 -> 247        0.46359
     243 -> 249       -0.24207
     243 -> 250        0.14564
     245 -> 247        0.15750
     246 -> 248       -0.31717

 The electronic state is 1-A.
 Alpha  occ. eigenvalues --  -46.94766 -19.30544 -19.28749 -19.25426 -19.23691
 Alpha  occ. eigenvalues --  -19.23196 -19.22854 -14.46979 -14.46629 -14.44751
 Alpha  occ. eigenvalues --  -14.42697 -10.43537 -10.42134 -10.38718 -10.38256
 Alpha  occ. eigenvalues --  -10.36396 -10.35509 -10.35437 -10.35433 -10.35210
 Alpha  occ. eigenvalues --  -10.34995 -10.34864 -10.34474 -10.33078 -10.32229
 Alpha  occ. eigenvalues --  -10.32113 -10.32013 -10.31945 -10.31778 -10.31777
 Alpha  occ. eigenvalues --  -10.31666 -10.31653 -10.31561 -10.31426 -10.31327
 Alpha  occ. eigenvalues --  -10.31182 -10.31094 -10.31041 -10.30976 -10.30783
 Alpha  occ. eigenvalues --  -10.30773 -10.30469 -10.30223 -10.30061 -10.29979
 Alpha  occ. eigenvalues --  -10.29801 -10.29705 -10.29631 -10.29611 -10.29441
 Alpha  occ. eigenvalues --  -10.29110 -10.29014 -10.28985 -10.28844 -10.28807
 Alpha  occ. eigenvalues --  -10.28764 -10.28693 -10.28634 -10.28585 -10.28558
 Alpha  occ. eigenvalues --  -10.28556 -10.28455 -10.28146 -10.28105 -10.28101
 Alpha  occ. eigenvalues --  -10.27523  -3.20583  -1.94201  -1.93689  -1.93551
 Alpha  occ. eigenvalues --   -1.19888  -1.15961  -1.13804  -1.11642  -1.09779
 Alpha  occ. eigenvalues --   -1.06882  -1.05176  -1.04283  -1.03982  -1.02761
 Alpha  occ. eigenvalues --   -0.94704  -0.93439  -0.92146  -0.91472  -0.91135
 Alpha  occ. eigenvalues --   -0.90895  -0.89682  -0.89665  -0.89282  -0.88514
 Alpha  occ. eigenvalues --   -0.87920  -0.87309  -0.86470  -0.85302  -0.84972
 Alpha  occ. eigenvalues --   -0.84543  -0.83888  -0.83357  -0.82755  -0.82343
 Alpha  occ. eigenvalues --   -0.82308  -0.80744  -0.80017  -0.79059  -0.78482
 Alpha  occ. eigenvalues --   -0.77648  -0.77362  -0.76916  -0.76690  -0.76299
 Alpha  occ. eigenvalues --   -0.75828  -0.74570  -0.73336  -0.72507  -0.70947
 Alpha  occ. eigenvalues --   -0.70626  -0.70065  -0.69317  -0.68922  -0.68007
 Alpha  occ. eigenvalues --   -0.67074  -0.66649  -0.66388  -0.66114  -0.65747
 Alpha  occ. eigenvalues --   -0.65506  -0.64518  -0.63965  -0.62952  -0.62327
 Alpha  occ. eigenvalues --   -0.62212  -0.61576  -0.61142  -0.60120  -0.59619
 Alpha  occ. eigenvalues --   -0.59326  -0.58895  -0.58127  -0.57622  -0.57507
 Alpha  occ. eigenvalues --   -0.57327  -0.57025  -0.56539  -0.56277  -0.56166
 Alpha  occ. eigenvalues --   -0.55922  -0.55416  -0.55269  -0.55019  -0.54851
 Alpha  occ. eigenvalues --   -0.54639  -0.54382  -0.54046  -0.53840  -0.53444
 Alpha  occ. eigenvalues --   -0.53318  -0.53005  -0.52740  -0.52681  -0.52572
 Alpha  occ. eigenvalues --   -0.52510  -0.52082  -0.51858  -0.51724  -0.51603
 Alpha  occ. eigenvalues --   -0.51289  -0.51258  -0.50980  -0.50653  -0.50581
 Alpha  occ. eigenvalues --   -0.50540  -0.50319  -0.50198  -0.50034  -0.49790
 Alpha  occ. eigenvalues --   -0.49523  -0.49396  -0.49262  -0.49053  -0.48754
 Alpha  occ. eigenvalues --   -0.48370  -0.48021  -0.47699  -0.47530  -0.47452
 Alpha  occ. eigenvalues --   -0.47266  -0.47027  -0.46860  -0.46795  -0.46765
 Alpha  occ. eigenvalues --   -0.46589  -0.46517  -0.46140  -0.46056  -0.45732
 Alpha  occ. eigenvalues --   -0.45613  -0.45520  -0.45298  -0.45173  -0.44653
 Alpha  occ. eigenvalues --   -0.44448  -0.44259  -0.44162  -0.44098  -0.44024
 Alpha  occ. eigenvalues --   -0.43615  -0.43348  -0.43231  -0.42995  -0.42906
 Alpha  occ. eigenvalues --   -0.42559  -0.42172  -0.42067  -0.41904  -0.41879
 Alpha  occ. eigenvalues --   -0.41806  -0.41465  -0.41154  -0.40562  -0.40387
 Alpha  occ. eigenvalues --   -0.40194  -0.40040  -0.40006  -0.39537  -0.39116
 Alpha  occ. eigenvalues --   -0.39031  -0.38642  -0.38594  -0.38041  -0.37817
 Alpha  occ. eigenvalues --   -0.37471  -0.36930  -0.36510  -0.36412  -0.35915
 Alpha  occ. eigenvalues --   -0.35315  -0.34823  -0.34739  -0.33419  -0.33187
 Alpha  occ. eigenvalues --   -0.32856  -0.32387  -0.31711  -0.30386  -0.25982
 Alpha  occ. eigenvalues --   -0.22737
 Alpha virt. eigenvalues --   -0.07069   0.00283   0.02793   0.04770   0.06695
 Alpha virt. eigenvalues --    0.07069   0.07400   0.08043   0.08093   0.09288
 Alpha virt. eigenvalues --    0.10788   0.11398   0.11730   0.11987   0.12435

 Mulliken charges:
               1
     1  Mg   0.939573
     2  C    0.037423
     3  C   -0.086792
     4  C   -0.052585
     5  C   -0.102105
     6  N   -0.359045
     7  C    0.028898
     8  C   -0.065868
     9  C   -0.132089
    10  C    0.090548
    11  C    0.026357
    12  C    0.048857
    13  C   -0.040217
    14  C    0.199879
    15  O   -0.226241
    16  O   -0.378682
    17  N   -0.465768
    18  C    0.192868
    19  C   -0.179640
    20  C   -0.054682
    21  C    0.165789
    22  C    0.059559
    23  C    0.022278
    24  O   -0.216285
    25  C    0.014854
    26  N   -0.395282
    27  C    0.067732
    28  C   -0.121893
    29  C   -0.021921
    30  C    0.040654
    31  C   -0.003002
    32  C   -0.033407
    33  C   -0.060964
    34  N   -0.466103
    35  C    0.187571
    36  C   -0.160255
    37  C   -0.056818
    38  C    0.124837
    39  C    0.080212
    40  C    0.117277
    41  O   -0.224069
    42  C   -0.088444
    43  C    0.255651
    44  O   -0.285497
    45  O   -0.374739
    46  C    0.141737
    47  C    0.257040
    48  C   -0.171174
    49  C   -0.144229
    50  C    0.016033
    51  C    0.008263
    52  C   -0.014594
    53  C    0.006547
    54  C   -0.197791
    55  C    0.018438
    56  C   -0.015210
    57  C   -0.035359
    58  C   -0.020221
    59  C   -0.151650
    60  C    0.009005
    61  C    0.047149
    62  C   -0.012014
    63  C    0.003674
    64  C   -0.238809
    65  C   -0.011966
    66  C    0.032845
    67  H   -0.007749
    68  H    0.020822
    69  H   -0.007691
    70  H    0.064619
    71  H    0.037403
    72  H    0.066251
    73  H    0.035528
    74  H    0.017004
    75  H    0.035683
    76  H    0.031829
    77  H    0.058815
    78  H    0.063822
    79  H    0.057671
    80  H    0.030481
    81  H    0.053599
    82  H    0.041375
    83  H    0.046939
    84  H    0.056588
    85  H    0.041781
    86  H    0.032926
    87  H    0.045636
    88  H    0.049678
    89  H    0.047781
    90  H    0.030073
    91  H    0.029254
    92  H    0.044285
    93  H    0.042190
    94  H    0.038823
    95  H    0.058266
    96  H    0.024321
    97  H    0.057923
    98  H    0.080698
    99  H    0.049739
   100  H    0.060011
   101  H    0.065096
   102  H    0.051456
   103  H    0.058698
   104  H    0.028787
   105  H    0.027232
   106  H    0.040109
   107  H    0.047061
   108  H    0.013991
   109  H    0.028804
   110  H    0.032125
   111  H    0.030196
   112  H    0.010250
   113  H    0.007720
   114  H    0.027123
   115  H    0.023232
   116  H    0.018892
   117  H    0.030486
   118  H    0.010364
   119  H    0.016991
   120  H    0.019591
   121  H    0.022400
   122  H    0.010488
   123  H    0.026987
   124  H    0.027935
   125  H    0.014281
   126  H    0.032219
   127  H    0.026779
   128  H    0.009966
   129  H    0.012319
   130  H    0.013926
   131  H    0.008570
   132  H    0.010417
   133  H    0.015002
   134  H    0.018450
   135  H    0.027271
   136  H    0.012259
   137  H    0.017975
   138  H    0.016280
   139  H    0.039958
   140  H    0.035800
 Sum of Mulliken charges =  -0.00000

 Dipole moment (field-independent basis, Debye):
    X=             -6.1956    Y=              3.2292    Z=              1.5417  Tot=              7.1547
 Quadrupole moment (field-independent basis, Debye-Ang):
   XX=           -395.3713   YY=           -421.9071   ZZ=           -400.4484
   XY=             29.4068   XZ=             14.2651   YZ=             -0.2221

 Normal termination of Gaussian 16 at Wed Apr 27 06:39:41 2022.
