 Gaussian 16, Revision A.03,
 Gaussian 16:  ES64L-G16RevA.03 25-Dec-2016

 --------------------
 #p ZINDO=(nstates=5)
 --------------------

 ------------------------------
 step_1101_chromophore_18 ZINDO
 ------------------------------
 Symbolic Z-matrix:
 Charge =  0 Multiplicity = 1

                         Standard orientation:
 ---------------------------------------------------------------------
 Center     Atomic      Atomic             Coordinates (Angstroms)
 Number     Number       Type             X           Y           Z
 ---------------------------------------------------------------------
      1         12           0        5.519686    1.008670    0.021735
      2          6           0        4.871028   -2.435821    0.179568
      3          6           0        2.087412    1.526249   -0.441651
      4          6           0        6.139931    4.353187   -0.134074
      5          6           0        8.984340    0.282510    0.258114
      6          7           0        3.721186   -0.297692   -0.164121
      7          6           0        3.687492   -1.692000   -0.007830
      8          6           0        2.241346   -2.172991    0.029293
      9          6           0        1.373394   -0.920454   -0.401005
     10          6           0        2.463626    0.178194   -0.327083
     11          6           0        0.672257   -1.034808   -1.745841
     12          6           0        1.787204   -2.767573    1.401320
     13          6           0        0.277067   -2.866338    1.571445
     14          6           0       -0.553079   -3.380292    0.393210
     15          8           0       -0.104959   -3.988877   -0.522920
     16          8           0       -1.851400   -2.975491    0.487896
     17          7           0        4.298642    2.722374   -0.258775
     18          6           0        2.888508    2.677037   -0.259266
     19          6           0        2.420841    4.075972   -0.415747
     20          6           0        3.563774    4.903614   -0.438651
     21          6           0        4.735681    4.009793   -0.225279
     22          6           0        1.008554    4.403055   -0.571550
     23          6           0        3.547254    6.400961   -0.656552
     24          8           0        4.561322    7.027221   -0.519414
     25          6           0        2.326458    7.173242   -0.950372
     26          7           0        7.323047    2.168166   -0.008594
     27          6           0        7.278809    3.551372   -0.032510
     28          6           0        8.773283    4.121731    0.042795
     29          6           0        9.631418    2.794970    0.317255
     30          6           0        8.643760    1.680655    0.122328
     31          6           0        9.303311    5.018243   -1.197291
     32          6           0       10.458121    2.782078    1.637623
     33          6           0        9.688037    2.520456    2.973754
     34          7           0        6.743638   -0.689847    0.187551
     35          6           0        8.163626   -0.799408    0.234201
     36          6           0        8.504408   -2.142787    0.306666
     37          6           0        7.235409   -2.854700    0.275678
     38          6           0        6.196571   -1.914673    0.213130
     39          6           0        9.820329   -2.766066    0.313389
     40          6           0        6.647768   -4.168333    0.170705
     41          8           0        7.184223   -5.288994    0.134659
     42          6           0        5.111788   -3.904119    0.259225
     43          6           0        4.361371   -4.589852   -0.760336
     44          8           0        4.028168   -4.160778   -1.890637
     45          8           0        4.225655   -5.929006   -0.464536
     46          6           0        3.466546   -6.840707   -1.376238
     47          6           0       -2.703663   -3.200335   -0.699752
     48          6           0       -3.987932   -2.457360   -0.596882
     49          6           0       -4.920726   -2.426868   -1.487250
     50          6           0       -4.991277   -3.070238   -2.876501
     51          6           0       -6.205429   -1.694544   -1.137899
     52          6           0       -7.101226   -2.172887    0.054390
     53          6           0       -6.956677   -1.377227    1.344012
     54          6           0       -8.317300   -1.009226    1.955487
     55          6           0       -8.315084   -1.248856    3.434753
     56          6           0       -8.570294    0.518870    1.637419
     57          6           0       -9.822359    0.937772    0.793150
     58          6           0      -10.985123   -0.067292    0.707913
     59          6           0      -12.420743    0.637583    0.798257
     60          6           0      -13.051402    0.464263    2.190864
     61          6           0      -13.243087    0.007196   -0.287277
     62          6           0      -14.010870    0.986954   -1.156612
     63          6           0      -15.470409    1.134831   -0.586645
     64          6           0      -15.829192    2.625288   -0.663370
     65          6           0      -16.902389    2.970303    0.357083
     66          6           0      -16.240830    3.217560   -2.037350
     67          1           0        1.016174    1.699001   -0.559805
     68          1           0        6.424017    5.406021   -0.189540
     69          1           0       10.048270    0.072680    0.385899
     70          1           0        2.286011   -3.017878   -0.658605
     71          1           0        0.562682   -0.707966    0.296118
     72          1           0        0.776314   -2.001637   -2.237759
     73          1           0        0.946760   -0.221889   -2.418252
     74          1           0       -0.404917   -0.924452   -1.620199
     75          1           0        2.232816   -2.279412    2.269089
     76          1           0        2.181592   -3.783598    1.380715
     77          1           0       -0.155623   -1.941361    1.950488
     78          1           0        0.201264   -3.596903    2.376595
     79          1           0        0.666878    5.075171    0.215981
     80          1           0        0.304179    3.571317   -0.552524
     81          1           0        0.846635    4.787500   -1.579358
     82          1           0        1.630666    7.150334   -0.111993
     83          1           0        1.729335    6.777727   -1.772023
     84          1           0        2.622350    8.221409   -0.985152
     85          1           0        8.871853    4.856621    0.842310
     86          1           0       10.325937    2.662520   -0.512179
     87          1           0        8.481354    4.854144   -1.894258
     88          1           0       10.258660    4.679095   -1.595961
     89          1           0        9.312121    6.054487   -0.860337
     90          1           0       10.934399    3.736654    1.858139
     91          1           0       11.295286    2.092008    1.528703
     92          1           0       10.103977    1.610984    3.407239
     93          1           0        8.656070    2.433963    2.633341
     94          1           0        9.672835    3.304926    3.729877
     95          1           0        9.846659   -3.722709    0.833998
     96          1           0       10.585964   -2.135504    0.767026
     97          1           0       10.122667   -2.932737   -0.720642
     98          1           0        4.921052   -4.418195    1.201579
     99          1           0        4.123945   -7.542444   -1.887930
    100          1           0        3.091851   -6.384472   -2.292346
    101          1           0        2.708655   -7.328419   -0.761840
    102          1           0       -2.925353   -4.267312   -0.691790
    103          1           0       -2.137623   -2.987624   -1.607531
    104          1           0       -4.135043   -1.888486    0.320907
    105          1           0       -4.065226   -3.476040   -3.283641
    106          1           0       -5.313552   -2.419774   -3.689316
    107          1           0       -5.721863   -3.877649   -2.922115
    108          1           0       -6.799492   -1.551700   -2.040418
    109          1           0       -5.781782   -0.742952   -0.814923
    110          1           0       -6.804816   -3.154001    0.424868
    111          1           0       -8.115716   -2.170161   -0.344807
    112          1           0       -6.273581   -0.544318    1.176505
    113          1           0       -6.347997   -1.998729    2.000105
    114          1           0       -9.169984   -1.550083    1.543292
    115          1           0       -7.835076   -0.440113    3.986689
    116          1           0       -7.699388   -2.129399    3.614088
    117          1           0       -9.319930   -1.401837    3.827993
    118          1           0       -7.756506    0.852931    0.993971
    119          1           0       -8.548971    1.105157    2.555977
    120          1           0       -9.362780    1.108114   -0.180133
    121          1           0      -10.034102    1.892092    1.276069
    122          1           0      -10.885133   -0.607779    1.648710
    123          1           0      -10.739040   -0.871912    0.014804
    124          1           0      -12.173603    1.692188    0.676724
    125          1           0      -12.285467    0.126717    2.888473
    126          1           0      -13.882191   -0.238814    2.251306
    127          1           0      -13.359301    1.384988    2.687769
    128          1           0      -13.889645   -0.716467    0.209237
    129          1           0      -12.632418   -0.593232   -0.960321
    130          1           0      -14.098890    0.876210   -2.237532
    131          1           0      -13.407400    1.895170   -1.166352
    132          1           0      -15.616500    0.716631    0.409825
    133          1           0      -16.175172    0.522969   -1.150426
    134          1           0      -14.993574    3.168015   -0.222449
    135          1           0      -16.750796    2.430874    1.292405
    136          1           0      -17.899078    2.817472   -0.055799
    137          1           0      -16.950043    4.044955    0.527239
    138          1           0      -17.086284    3.872721   -1.830826
    139          1           0      -16.523043    2.317947   -2.584210
    140          1           0      -15.488029    3.929495   -2.377659
 ---------------------------------------------------------------------

 SCF Done:  E(RZINDO/S) =  -474.291588423     A.U. after   19 cycles

 Excitation energies and oscillator strengths:

 Excited State   1:      Singlet-A      1.2559 eV  987.24 nm  f=0.5821  <S**2>=0.000
     175 ->178        -0.17736
     176 ->177         0.66747
 This state for optimization and/or second-order correction.
 Total Energy, E(CIS/TDA) =  -474.245436095
 Copying the excited state density for this state as the 1-particle RhoCI density.

 Excited State   2:      Singlet-A      1.9466 eV  636.94 nm  f=0.0458  <S**2>=0.000
     175 ->177         0.54587
     176 ->178         0.42017

 Excited State   3:      Singlet-A      2.9594 eV  418.96 nm  f=0.0003  <S**2>=0.000
     167 ->179        -0.12310
     168 ->177         0.27396
     168 ->179        -0.39434
     168 ->180         0.28022
     168 ->185        -0.21608
     171 ->177         0.11258

 Excited State   4:      Singlet-A      3.0079 eV  412.20 nm  f=0.8956  <S**2>=0.000
     170 ->177        -0.14954
     170 ->179        -0.11794
     170 ->180        -0.13915
     175 ->177        -0.35170
     176 ->178         0.48040
     176 ->179        -0.11255
     176 ->180        -0.10637

 Excited State   5:      Singlet-A      3.0770 eV  402.94 nm  f=0.0684  <S**2>=0.000
     170 ->177         0.24420
     170 ->179         0.23924
     170 ->180         0.26566
     170 ->185         0.13913
     170 ->188         0.15457
     171 ->177        -0.10823
     171 ->180        -0.10408
     174 ->177         0.18249
     176 ->178         0.14762
     176 ->179        -0.27661
     176 ->180        -0.12375

 The electronic state is 1-A.
 Alpha  occ. eigenvalues --   -1.82634  -1.78889  -1.76719  -1.73972  -1.69996
 Alpha  occ. eigenvalues --   -1.68386  -1.67092  -1.63040  -1.62169  -1.56748
 Alpha  occ. eigenvalues --   -1.56320  -1.53497  -1.50573  -1.47718  -1.44940
 Alpha  occ. eigenvalues --   -1.43093  -1.40709  -1.40284  -1.39786  -1.37576
 Alpha  occ. eigenvalues --   -1.35724  -1.33709  -1.33234  -1.31769  -1.28934
 Alpha  occ. eigenvalues --   -1.27916  -1.24180  -1.23463  -1.22096  -1.18384
 Alpha  occ. eigenvalues --   -1.17139  -1.15689  -1.15474  -1.14134  -1.13961
 Alpha  occ. eigenvalues --   -1.12397  -1.11451  -1.11146  -1.04664  -1.03797
 Alpha  occ. eigenvalues --   -1.02922  -1.00593  -0.99649  -0.98605  -0.97452
 Alpha  occ. eigenvalues --   -0.96645  -0.96214  -0.94882  -0.93243  -0.92132
 Alpha  occ. eigenvalues --   -0.90288  -0.89760  -0.87473  -0.87180  -0.86082
 Alpha  occ. eigenvalues --   -0.85334  -0.84945  -0.83396  -0.82215  -0.80633
 Alpha  occ. eigenvalues --   -0.79551  -0.78148  -0.78043  -0.77036  -0.75710
 Alpha  occ. eigenvalues --   -0.75268  -0.74768  -0.74418  -0.73980  -0.73635
 Alpha  occ. eigenvalues --   -0.72811  -0.72736  -0.71877  -0.71546  -0.70783
 Alpha  occ. eigenvalues --   -0.70284  -0.69844  -0.68835  -0.68379  -0.68249
 Alpha  occ. eigenvalues --   -0.67885  -0.67578  -0.66237  -0.65663  -0.65478
 Alpha  occ. eigenvalues --   -0.64992  -0.64414  -0.63956  -0.63464  -0.63390
 Alpha  occ. eigenvalues --   -0.63170  -0.62968  -0.62440  -0.62151  -0.61797
 Alpha  occ. eigenvalues --   -0.61729  -0.61434  -0.61222  -0.60731  -0.60230
 Alpha  occ. eigenvalues --   -0.59695  -0.59407  -0.58761  -0.58306  -0.58066
 Alpha  occ. eigenvalues --   -0.57892  -0.57448  -0.57100  -0.56865  -0.56646
 Alpha  occ. eigenvalues --   -0.55877  -0.55748  -0.55378  -0.54989  -0.54395
 Alpha  occ. eigenvalues --   -0.54111  -0.53867  -0.53679  -0.52683  -0.52303
 Alpha  occ. eigenvalues --   -0.52285  -0.52180  -0.51762  -0.51644  -0.50973
 Alpha  occ. eigenvalues --   -0.50713  -0.50373  -0.50245  -0.50158  -0.49898
 Alpha  occ. eigenvalues --   -0.49807  -0.49596  -0.49134  -0.49017  -0.48382
 Alpha  occ. eigenvalues --   -0.48283  -0.48118  -0.47977  -0.47902  -0.47411
 Alpha  occ. eigenvalues --   -0.47261  -0.47002  -0.46783  -0.46587  -0.46355
 Alpha  occ. eigenvalues --   -0.46113  -0.45988  -0.45501  -0.45156  -0.44771
 Alpha  occ. eigenvalues --   -0.44718  -0.44682  -0.44204  -0.44054  -0.43654
 Alpha  occ. eigenvalues --   -0.43620  -0.42923  -0.42719  -0.42667  -0.41755
 Alpha  occ. eigenvalues --   -0.41633  -0.40207  -0.39875  -0.38989  -0.38553
 Alpha  occ. eigenvalues --   -0.37321  -0.36540  -0.35710  -0.34966  -0.33868
 Alpha  occ. eigenvalues --   -0.33724  -0.33261  -0.32050  -0.30981  -0.26672
 Alpha  occ. eigenvalues --   -0.21657
 Alpha virt. eigenvalues --   -0.08505  -0.01927  -0.00265   0.01415   0.02283
 Alpha virt. eigenvalues --    0.02589   0.02782   0.03503   0.05169   0.05197
 Alpha virt. eigenvalues --    0.06379   0.06538   0.06796   0.07827   0.08378

 Mulliken charges:
               1
     1  Mg   0.418266
     2  C   -0.034515
     3  C   -0.080619
     4  C   -0.067161
     5  C   -0.045754
     6  N   -0.279263
     7  C    0.110312
     8  C    0.003714
     9  C    0.007080
    10  C    0.167451
    11  C   -0.045672
    12  C   -0.019521
    13  C    0.005469
    14  C    0.473521
    15  O   -0.504146
    16  O   -0.285750
    17  N   -0.324668
    18  C    0.109879
    19  C    0.030661
    20  C   -0.041239
    21  C    0.159619
    22  C   -0.036603
    23  C    0.333645
    24  O   -0.512495
    25  C   -0.029688
    26  N   -0.277340
    27  C    0.149808
    28  C   -0.013284
    29  C    0.012465
    30  C    0.087640
    31  C   -0.059530
    32  C   -0.027894
    33  C   -0.062422
    34  N   -0.341357
    35  C    0.080341
    36  C    0.032976
    37  C   -0.084798
    38  C    0.118892
    39  C   -0.031877
    40  C    0.331577
    41  O   -0.544489
    42  C    0.071599
    43  C    0.489119
    44  O   -0.546961
    45  O   -0.274560
    46  C    0.069432
    47  C    0.105603
    48  C   -0.069313
    49  C   -0.000514
    50  C   -0.045502
    51  C   -0.036418
    52  C   -0.034227
    53  C   -0.029826
    54  C   -0.008322
    55  C   -0.053088
    56  C   -0.052363
    57  C   -0.044500
    58  C   -0.049739
    59  C    0.001124
    60  C   -0.058498
    61  C   -0.020935
    62  C   -0.042543
    63  C   -0.032262
    64  C   -0.017415
    65  C   -0.061250
    66  C   -0.062424
    67  H    0.027560
    68  H    0.041560
    69  H    0.025732
    70  H    0.060443
    71  H    0.030600
    72  H    0.039308
    73  H    0.020433
    74  H    0.009443
    75  H    0.024625
    76  H    0.021251
    77  H    0.034599
    78  H    0.035829
    79  H    0.033118
    80  H    0.020125
    81  H    0.033533
    82  H    0.031462
    83  H    0.038673
    84  H    0.042049
    85  H    0.028930
    86  H    0.024739
    87  H    0.026549
    88  H    0.032478
    89  H    0.027854
    90  H    0.013292
    91  H    0.018793
    92  H    0.023387
    93  H    0.023880
    94  H    0.022937
    95  H    0.032782
    96  H    0.015726
    97  H    0.035801
    98  H    0.061523
    99  H    0.039229
   100  H    0.052230
   101  H    0.040912
   102  H    0.046478
   103  H    0.055854
   104  H    0.034211
   105  H    0.016523
   106  H    0.023993
   107  H    0.027310
   108  H    0.018228
   109  H    0.020992
   110  H    0.022330
   111  H    0.021901
   112  H    0.021036
   113  H    0.009985
   114  H    0.032309
   115  H    0.017714
   116  H    0.012184
   117  H    0.016517
   118  H    0.011308
   119  H    0.018696
   120  H    0.015416
   121  H    0.022631
   122  H    0.008894
   123  H    0.035244
   124  H    0.029491
   125  H    0.012818
   126  H    0.024138
   127  H    0.015670
   128  H    0.018365
   129  H    0.009278
   130  H    0.020652
   131  H    0.015418
   132  H    0.022866
   133  H    0.015787
   134  H    0.013511
   135  H    0.016458
   136  H    0.012288
   137  H    0.009426
   138  H    0.017867
   139  H    0.036976
   140  H    0.028405
 Sum of Mulliken charges =  -0.00000

 Dipole moment (field-independent basis, Debye):
    X=             -9.3446    Y=              5.9020    Z=              3.4732  Tot=             11.5852
 N-N= 4.270740510945D+03 E-N= 0.000000000000D+00  KE=-9.216234779473D+03
 Leave Link  601 at Wed Apr 27 06:52:59 2022, MaxMem=  6710886400 cpu:               1.0 elap:               0.1
 (Enter /sw/apps/gaussian-16.0/g16/l9999.exe)
 1\1\GINC-BP1-COMPUTE175\SP\RZINDO CIS\STO-3G\C55H74Mg1N4O6\OF15641\27-
 Apr-2022\0\\#p ZINDO=(nstates=5)\\step_1101_chromophore_18 ZINDO\\0,1\
 Mg,0,34.295,49.366,25.461\C,0,34.837,47.76,28.533\C,0,32.564,51.868,27
 .195\C,0,33.763,50.931,22.484\C,0,35.867,46.626,23.846\N,0,33.727,49.7
 31,27.587\C,0,34.112,48.959,28.694\C,0,33.723,49.674,29.983\C,0,32.794
 ,50.874,29.531\C,0,33.047,50.826,28.003\C,0,31.333,50.767,29.94\C,0,34
 .93,50.152,30.853\C,0,34.571,51.197,31.901\C,0,33.29,50.998,32.714\O,0

 Normal termination of Gaussian 16 at Wed Apr 27 06:52:59 2022.
