 Gaussian 16, Revision A.03,
 Gaussian 16:  ES64L-G16RevA.03 25-Dec-2016

 ------------------------------
 #p blyp/Def2SVP td=(nstates=5)
 ------------------------------

 ---------------------------------------------------
 step_1001_chromophore_19 TDDFT with blyp functional
 ---------------------------------------------------
 Symbolic Z-matrix:
 Charge =  0 Multiplicity = 1

                         Standard orientation:
 ---------------------------------------------------------------------
 Center     Atomic      Atomic             Coordinates (Angstroms)
 Number     Number       Type             X           Y           Z
 ---------------------------------------------------------------------
      1         12           0       -5.893823    0.338912   -0.228792
      2          6           0       -3.406325   -2.160034   -0.248194
      3          6           0       -3.263134    2.661088   -0.093938
      4          6           0       -8.148174    2.659897    0.610815
      5          6           0       -8.283481   -2.083769   -0.441010
      6          7           0       -3.625630    0.177133   -0.097156
      7          6           0       -2.861135   -0.914165   -0.178305
      8          6           0       -1.387761   -0.569129   -0.147338
      9          6           0       -1.399871    0.988062    0.054011
     10          6           0       -2.828042    1.333221   -0.186557
     11          6           0       -0.963574    1.470951    1.513154
     12          6           0       -0.635401   -0.983437   -1.473049
     13          6           0        0.556070   -1.928628   -1.306403
     14          6           0        1.464266   -1.794413   -0.084005
     15          8           0        1.344909   -2.395927    0.977692
     16          8           0        2.665483   -1.159108   -0.447672
     17          7           0       -5.731176    2.347633    0.251876
     18          6           0       -4.602549    3.140638    0.173326
     19          6           0       -4.988786    4.489712    0.280627
     20          6           0       -6.372536    4.541067    0.582404
     21          6           0       -6.810222    3.126875    0.534154
     22          6           0       -3.946049    5.625275    0.249579
     23          6           0       -7.173474    5.756570    0.762886
     24          8           0       -8.403292    5.709718    0.909674
     25          6           0       -6.485862    7.096519    0.994946
     26          7           0       -7.843236    0.313761    0.065727
     27          6           0       -8.620027    1.390181    0.411710
     28          6           0      -10.209775    1.170041    0.329705
     29          6           0      -10.178333   -0.307853   -0.221888
     30          6           0       -8.727912   -0.730531   -0.330668
     31          6           0      -10.927221    1.290508    1.745587
     32          6           0      -10.780569   -0.557028   -1.636864
     33          6           0      -12.276373   -0.469278   -1.643605
     34          7           0       -5.896228   -1.649172   -0.480607
     35          6           0       -6.918099   -2.534067   -0.457278
     36          6           0       -6.490031   -3.866735   -0.741503
     37          6           0       -5.062422   -3.743591   -0.622163
     38          6           0       -4.799103   -2.381552   -0.395964
     39          6           0       -7.338274   -5.066623   -0.916948
     40          6           0       -3.814232   -4.476345   -0.525542
     41          8           0       -3.583262   -5.672657   -0.477831
     42          6           0       -2.765690   -3.462668   -0.334867
     43          6           0       -2.028014   -3.824375    0.971690
     44          8           0       -2.367687   -3.619390    2.130371
     45          8           0       -0.889698   -4.514133    0.623126
     46          6           0       -0.209196   -5.276481    1.735398
     47          6           0        3.719535   -1.113603    0.539031
     48          6           0        4.954414   -0.870821   -0.253628
     49          6           0        6.171707   -0.473441    0.252119
     50          6           0        6.597438   -0.526659    1.754813
     51          6           0        7.338795   -0.396827   -0.811504
     52          6           0        7.538631    0.937009   -1.533194
     53          6           0        8.829402    1.753265   -1.130763
     54          6           0        9.571059    2.475401   -2.356468
     55          6           0        8.594244    3.260299   -3.178456
     56          6           0       10.599505    1.476766   -3.096140
     57          6           0       12.059187    1.770246   -2.795569
     58          6           0       12.917754    0.419911   -2.646250
     59          6           0       13.309099    0.256030   -1.134105
     60          6           0       14.542694   -0.597470   -0.962037
     61          6           0       12.178544   -0.306579   -0.236013
     62          6           0       11.834491    0.674076    0.868198
     63          6           0       12.760066    0.687456    2.020404
     64          6           0       12.162495    0.323336    3.419410
     65          6           0       13.133032    0.841491    4.540600
     66          6           0       12.137909   -1.290266    3.576946
     67          1           0       -2.430433    3.363277   -0.175002
     68          1           0       -8.891706    3.452510    0.718804
     69          1           0       -9.041290   -2.868975   -0.486244
     70          1           0       -1.045437   -1.155908    0.705292
     71          1           0       -0.683075    1.468141   -0.611680
     72          1           0       -1.772545    1.465686    2.244621
     73          1           0       -0.357961    2.375781    1.456526
     74          1           0       -0.233816    0.725532    1.828009
     75          1           0       -0.258481   -0.143631   -2.055949
     76          1           0       -1.421723   -1.505703   -2.018446
     77          1           0        1.217245   -1.846237   -2.169000
     78          1           0        0.426467   -3.004695   -1.422610
     79          1           0       -3.863643    6.143814    1.204207
     80          1           0       -4.248568    6.293442   -0.557188
     81          1           0       -2.917740    5.320202    0.053463
     82          1           0       -5.894420    7.058007    1.909049
     83          1           0       -7.270781    7.850840    1.048993
     84          1           0       -5.915565    7.483946    0.150250
     85          1           0      -10.819618    1.796317   -0.322418
     86          1           0      -10.794834   -0.990408    0.362760
     87          1           0      -10.259410    1.042483    2.571426
     88          1           0      -11.799931    0.642658    1.655837
     89          1           0      -11.251298    2.308255    1.960071
     90          1           0      -10.411101   -1.527622   -1.966701
     91          1           0      -10.316223    0.222936   -2.239246
     92          1           0      -12.590589    0.309104   -2.338793
     93          1           0      -12.852983   -0.484424   -0.718847
     94          1           0      -12.528296   -1.360240   -2.220099
     95          1           0       -8.141872   -4.729925   -1.572150
     96          1           0       -7.554292   -5.526479    0.046813
     97          1           0       -6.866144   -5.873682   -1.477520
     98          1           0       -2.034340   -3.657394   -1.118691
     99          1           0        0.368885   -4.567914    2.328509
    100          1           0        0.334934   -6.086154    1.250021
    101          1           0       -1.009641   -5.770310    2.286810
    102          1           0        3.906917   -2.065021    1.038459
    103          1           0        3.654535   -0.289082    1.249023
    104          1           0        4.936568   -0.929246   -1.341735
    105          1           0        7.029126   -1.490160    2.027762
    106          1           0        5.762985   -0.280311    2.412102
    107          1           0        7.236125    0.312117    2.027236
    108          1           0        7.008123   -1.158491   -1.517878
    109          1           0        8.204100   -0.680334   -0.212060
    110          1           0        6.637725    1.542911   -1.439236
    111          1           0        7.688454    0.586209   -2.555019
    112          1           0        9.517539    1.215187   -0.479007
    113          1           0        8.575397    2.646464   -0.561410
    114          1           0       10.184374    3.278707   -1.950153
    115          1           0        7.715862    3.480332   -2.570743
    116          1           0        8.408787    2.794836   -4.146513
    117          1           0        8.962436    4.263973   -3.394823
    118          1           0       10.479089    1.802243   -4.129789
    119          1           0       10.333504    0.419988   -3.067235
    120          1           0       12.143980    2.385762   -1.900418
    121          1           0       12.652742    2.138736   -3.632950
    122          1           0       13.806783    0.346458   -3.273625
    123          1           0       12.307858   -0.400480   -3.025911
    124          1           0       13.586004    1.197377   -0.658893
    125          1           0       15.402843   -0.089406   -0.526680
    126          1           0       14.967859   -0.979839   -1.890688
    127          1           0       14.373777   -1.489912   -0.359901
    128          1           0       12.328496   -1.268624    0.252925
    129          1           0       11.322314   -0.352780   -0.909781
    130          1           0       10.929341    0.252977    1.305235
    131          1           0       11.576311    1.681901    0.543442
    132          1           0       13.117292    1.716279    2.031965
    133          1           0       13.580989    0.001409    1.812773
    134          1           0       11.254296    0.887583    3.630771
    135          1           0       14.173433    0.893492    4.219482
    136          1           0       13.002533    0.122902    5.350771
    137          1           0       12.704961    1.813161    4.785034
    138          1           0       12.886281   -1.747361    2.929925
    139          1           0       11.207121   -1.621037    3.115645
    140          1           0       12.219354   -1.799712    4.536990
 ---------------------------------------------------------------------

 SCF Done:  E(RB-LYP) =  -3007.33289664     A.U. after   21 cycles

 Excitation energies and oscillator strengths:

 Excited State   1:      Singlet-A      1.7792 eV  696.84 nm  f=0.0290  <S**2>=0.000
     244 -> 247        0.67794
     246 -> 247       -0.19376
 This state for optimization and/or second-order correction.
 Total Energy, E(TD-HF/TD-DFT) =  -3007.26751106
 Copying the excited state density for this state as the 1-particle RhoCI density.

 Excited State   2:      Singlet-A      1.7861 eV  694.18 nm  f=0.2480  <S**2>=0.000
     243 -> 247        0.17481
     244 -> 247        0.18153
     245 -> 247        0.10531
     245 -> 248        0.16811
     246 -> 247        0.63874
     246 <- 247       -0.14224

 Excited State   3:      Singlet-A      1.8084 eV  685.59 nm  f=0.0231  <S**2>=0.000
     243 -> 247        0.67581
     246 -> 247       -0.17293

 Excited State   4:      Singlet-A      2.0064 eV  617.96 nm  f=0.1164  <S**2>=0.000
     243 -> 247       -0.10477
     245 -> 247        0.64310
     246 -> 248       -0.22419

 Excited State   5:      Singlet-A      2.1537 eV  575.67 nm  f=0.0001  <S**2>=0.000
     242 -> 247        0.70695

 The electronic state is 1-A.
 Alpha  occ. eigenvalues --  -46.25402 -18.82424 -18.80612 -18.77947 -18.76045
 Alpha  occ. eigenvalues --  -18.74882 -18.74823 -14.03152 -14.02877 -14.00945
 Alpha  occ. eigenvalues --  -14.00563 -10.04884 -10.03143  -9.99161  -9.98585
 Alpha  occ. eigenvalues --   -9.98027  -9.96855  -9.96514  -9.96300  -9.96167
 Alpha  occ. eigenvalues --   -9.95731  -9.95621  -9.95376  -9.95250  -9.94490
 Alpha  occ. eigenvalues --   -9.94204  -9.94198  -9.94191  -9.93823  -9.93794
 Alpha  occ. eigenvalues --   -9.93314  -9.93294  -9.93287  -9.93242  -9.93102
 Alpha  occ. eigenvalues --   -9.93007  -9.92958  -9.92924  -9.92915  -9.92789
 Alpha  occ. eigenvalues --   -9.92619  -9.92459  -9.92426  -9.92275  -9.92208
 Alpha  occ. eigenvalues --   -9.92116  -9.92076  -9.91802  -9.91748  -9.91707
 Alpha  occ. eigenvalues --   -9.91669  -9.91462  -9.91450  -9.91438  -9.91425
 Alpha  occ. eigenvalues --   -9.91423  -9.91422  -9.91353  -9.91283  -9.90839
 Alpha  occ. eigenvalues --   -9.90777  -9.90761  -9.90619  -9.90564  -9.90310
 Alpha  occ. eigenvalues --   -9.90011  -2.90459  -1.70870  -1.70338  -1.70187
 Alpha  occ. eigenvalues --   -0.97738  -0.95847  -0.91071  -0.90418  -0.90236
 Alpha  occ. eigenvalues --   -0.88142  -0.87536  -0.85864  -0.85287  -0.84136
 Alpha  occ. eigenvalues --   -0.76736  -0.73537  -0.73034  -0.72679  -0.72441
 Alpha  occ. eigenvalues --   -0.71699  -0.71557  -0.70645  -0.70492  -0.70267
 Alpha  occ. eigenvalues --   -0.69760  -0.68961  -0.67890  -0.67206  -0.67065
 Alpha  occ. eigenvalues --   -0.66484  -0.65602  -0.65216  -0.64482  -0.64307
 Alpha  occ. eigenvalues --   -0.63986  -0.62702  -0.62241  -0.61859  -0.60613
 Alpha  occ. eigenvalues --   -0.60356  -0.59908  -0.59724  -0.59493  -0.59199
 Alpha  occ. eigenvalues --   -0.58288  -0.57701  -0.56394  -0.55883  -0.54401
 Alpha  occ. eigenvalues --   -0.53753  -0.53062  -0.52894  -0.52438  -0.51330
 Alpha  occ. eigenvalues --   -0.51171  -0.50603  -0.50389  -0.50255  -0.50077
 Alpha  occ. eigenvalues --   -0.50051  -0.48863  -0.47884  -0.47537  -0.46572
 Alpha  occ. eigenvalues --   -0.46157  -0.46139  -0.45316  -0.45163  -0.44469
 Alpha  occ. eigenvalues --   -0.43991  -0.43430  -0.42745  -0.42510  -0.42040
 Alpha  occ. eigenvalues --   -0.41719  -0.41670  -0.41326  -0.41264  -0.41053
 Alpha  occ. eigenvalues --   -0.40841  -0.40647  -0.40511  -0.40150  -0.39739
 Alpha  occ. eigenvalues --   -0.39707  -0.39524  -0.39284  -0.39231  -0.39218
 Alpha  occ. eigenvalues --   -0.38990  -0.38899  -0.38494  -0.38282  -0.38182
 Alpha  occ. eigenvalues --   -0.37968  -0.37731  -0.37669  -0.37467  -0.37274
 Alpha  occ. eigenvalues --   -0.37094  -0.36809  -0.36629  -0.36506  -0.36054
 Alpha  occ. eigenvalues --   -0.35867  -0.35807  -0.35705  -0.35466  -0.35386
 Alpha  occ. eigenvalues --   -0.35223  -0.35168  -0.35103  -0.34988  -0.34944
 Alpha  occ. eigenvalues --   -0.34651  -0.34343  -0.34204  -0.34135  -0.33933
 Alpha  occ. eigenvalues --   -0.33835  -0.33815  -0.33502  -0.33105  -0.33057
 Alpha  occ. eigenvalues --   -0.32879  -0.32703  -0.32317  -0.32023  -0.31939
 Alpha  occ. eigenvalues --   -0.31748  -0.31708  -0.31573  -0.31431  -0.31347
 Alpha  occ. eigenvalues --   -0.31171  -0.30983  -0.30900  -0.30818  -0.30648
 Alpha  occ. eigenvalues --   -0.30110  -0.30093  -0.30046  -0.29860  -0.29677
 Alpha  occ. eigenvalues --   -0.29565  -0.29521  -0.29169  -0.29165  -0.28831
 Alpha  occ. eigenvalues --   -0.28657  -0.28480  -0.28437  -0.28169  -0.28138
 Alpha  occ. eigenvalues --   -0.27297  -0.27215  -0.26737  -0.26390  -0.26324
 Alpha  occ. eigenvalues --   -0.26142  -0.25871  -0.25649  -0.25518  -0.25074
 Alpha  occ. eigenvalues --   -0.24316  -0.24129  -0.24091  -0.23575  -0.23392
 Alpha  occ. eigenvalues --   -0.23175  -0.22418  -0.21958  -0.21005  -0.20531
 Alpha  occ. eigenvalues --   -0.20354  -0.19662  -0.18279  -0.18208  -0.17152
 Alpha  occ. eigenvalues --   -0.15920
 Alpha virt. eigenvalues --   -0.11747  -0.06774  -0.05601  -0.04811  -0.04604
 Alpha virt. eigenvalues --   -0.02529  -0.02064  -0.01700  -0.01396   0.00654
 Alpha virt. eigenvalues --    0.01473   0.02032   0.02101   0.02607   0.03043

 Mulliken charges:
               1
     1  Mg   0.724968
     2  C    0.052287
     3  C   -0.059012
     4  C   -0.052199
     5  C   -0.100447
     6  N   -0.197087
     7  C   -0.137583
     8  C    0.010230
     9  C   -0.010577
    10  C    0.028755
    11  C    0.124386
    12  C    0.156739
    13  C    0.111359
    14  C    0.092422
    15  O   -0.191173
    16  O   -0.286944
    17  N   -0.280337
    18  C    0.149063
    19  C   -0.148719
    20  C    0.066336
    21  C    0.094031
    22  C    0.177067
    23  C   -0.099281
    24  O   -0.181718
    25  C    0.135528
    26  N   -0.310938
    27  C    0.089036
    28  C    0.015337
    29  C    0.010417
    30  C    0.093197
    31  C    0.093930
    32  C    0.035270
    33  C    0.117886
    34  N   -0.251186
    35  C    0.121651
    36  C   -0.197788
    37  C    0.070253
    38  C    0.100430
    39  C    0.175864
    40  C   -0.087195
    41  O   -0.130676
    42  C    0.094636
    43  C    0.102713
    44  O   -0.183335
    45  O   -0.289081
    46  C    0.223085
    47  C    0.356833
    48  C   -0.136460
    49  C   -0.187235
    50  C    0.117488
    51  C    0.110819
    52  C    0.117395
    53  C    0.069853
    54  C   -0.104596
    55  C    0.134704
    56  C    0.131741
    57  C    0.067974
    58  C    0.075126
    59  C   -0.069308
    60  C    0.113582
    61  C    0.119452
    62  C    0.020350
    63  C    0.119220
    64  C   -0.087934
    65  C    0.104727
    66  C    0.072199
    67  H   -0.063982
    68  H   -0.043024
    69  H   -0.049394
    70  H    0.017497
    71  H   -0.034551
    72  H    0.015121
    73  H   -0.012645
    74  H   -0.014948
    75  H   -0.006215
    76  H   -0.016216
    77  H   -0.024630
    78  H    0.011537
    79  H    0.004279
    80  H    0.001201
    81  H   -0.024036
    82  H    0.017928
    83  H   -0.019816
    84  H   -0.011575
    85  H   -0.012046
    86  H   -0.034318
    87  H    0.001904
    88  H   -0.004165
    89  H    0.002240
    90  H   -0.020116
    91  H   -0.026713
    92  H   -0.013502
    93  H    0.004765
    94  H   -0.022901
    95  H   -0.004193
    96  H    0.020729
    97  H   -0.009084
    98  H   -0.005740
    99  H    0.038557
   100  H    0.011436
   101  H    0.015841
   102  H    0.010492
   103  H    0.011460
   104  H   -0.030375
   105  H    0.025642
   106  H   -0.025214
   107  H   -0.009883
   108  H   -0.025525
   109  H   -0.027445
   110  H   -0.019356
   111  H   -0.024152
   112  H   -0.027956
   113  H   -0.042471
   114  H   -0.045722
   115  H   -0.024179
   116  H   -0.013526
   117  H   -0.028452
   118  H   -0.051618
   119  H   -0.015157
   120  H   -0.014285
   121  H   -0.020554
   122  H   -0.035144
   123  H   -0.035503
   124  H   -0.029323
   125  H   -0.024406
   126  H   -0.037711
   127  H   -0.028698
   128  H   -0.024878
   129  H   -0.054510
   130  H   -0.034027
   131  H   -0.014781
   132  H   -0.043657
   133  H   -0.032352
   134  H   -0.029016
   135  H   -0.007428
   136  H   -0.019866
   137  H   -0.018649
   138  H   -0.016312
   139  H   -0.020180
   140  H   -0.002035
 Sum of Mulliken charges =  -0.00000

 Dipole moment (field-independent basis, Debye):
    X=              2.9298    Y=              2.3894    Z=             -2.9190  Tot=              4.7764
 Quadrupole moment (field-independent basis, Debye-Ang):
   XX=           -383.5209   YY=           -423.5898   ZZ=           -406.1096
   XY=             15.6150   XZ=             15.6413   YZ=              0.2549

 Normal termination of Gaussian 16 at Tue Apr 26 21:04:48 2022.
