 Gaussian 16, Revision A.03,
 Gaussian 16:  ES64L-G16RevA.03 25-Dec-2016

 -----------------------------------
 #p cam-b3lyp/Def2SVP td=(nstates=5)
 -----------------------------------

 --------------------------------------------------------
 step_1001_chromophore_19 TDDFT with cam-b3lyp functional
 --------------------------------------------------------
 Symbolic Z-matrix:
 Charge =  0 Multiplicity = 1

                         Standard orientation:
 ---------------------------------------------------------------------
 Center     Atomic      Atomic             Coordinates (Angstroms)
 Number     Number       Type             X           Y           Z
 ---------------------------------------------------------------------
      1         12           0       -5.893823    0.338912   -0.228792
      2          6           0       -3.406325   -2.160034   -0.248194
      3          6           0       -3.263134    2.661088   -0.093938
      4          6           0       -8.148174    2.659897    0.610815
      5          6           0       -8.283481   -2.083769   -0.441010
      6          7           0       -3.625630    0.177133   -0.097156
      7          6           0       -2.861135   -0.914165   -0.178305
      8          6           0       -1.387761   -0.569129   -0.147338
      9          6           0       -1.399871    0.988062    0.054011
     10          6           0       -2.828042    1.333221   -0.186557
     11          6           0       -0.963574    1.470951    1.513154
     12          6           0       -0.635401   -0.983437   -1.473049
     13          6           0        0.556070   -1.928628   -1.306403
     14          6           0        1.464266   -1.794413   -0.084005
     15          8           0        1.344909   -2.395927    0.977692
     16          8           0        2.665483   -1.159108   -0.447672
     17          7           0       -5.731176    2.347633    0.251876
     18          6           0       -4.602549    3.140638    0.173326
     19          6           0       -4.988786    4.489712    0.280627
     20          6           0       -6.372536    4.541067    0.582404
     21          6           0       -6.810222    3.126875    0.534154
     22          6           0       -3.946049    5.625275    0.249579
     23          6           0       -7.173474    5.756570    0.762886
     24          8           0       -8.403292    5.709718    0.909674
     25          6           0       -6.485862    7.096519    0.994946
     26          7           0       -7.843236    0.313761    0.065727
     27          6           0       -8.620027    1.390181    0.411710
     28          6           0      -10.209775    1.170041    0.329705
     29          6           0      -10.178333   -0.307853   -0.221888
     30          6           0       -8.727912   -0.730531   -0.330668
     31          6           0      -10.927221    1.290508    1.745587
     32          6           0      -10.780569   -0.557028   -1.636864
     33          6           0      -12.276373   -0.469278   -1.643605
     34          7           0       -5.896228   -1.649172   -0.480607
     35          6           0       -6.918099   -2.534067   -0.457278
     36          6           0       -6.490031   -3.866735   -0.741503
     37          6           0       -5.062422   -3.743591   -0.622163
     38          6           0       -4.799103   -2.381552   -0.395964
     39          6           0       -7.338274   -5.066623   -0.916948
     40          6           0       -3.814232   -4.476345   -0.525542
     41          8           0       -3.583262   -5.672657   -0.477831
     42          6           0       -2.765690   -3.462668   -0.334867
     43          6           0       -2.028014   -3.824375    0.971690
     44          8           0       -2.367687   -3.619390    2.130371
     45          8           0       -0.889698   -4.514133    0.623126
     46          6           0       -0.209196   -5.276481    1.735398
     47          6           0        3.719535   -1.113603    0.539031
     48          6           0        4.954414   -0.870821   -0.253628
     49          6           0        6.171707   -0.473441    0.252119
     50          6           0        6.597438   -0.526659    1.754813
     51          6           0        7.338795   -0.396827   -0.811504
     52          6           0        7.538631    0.937009   -1.533194
     53          6           0        8.829402    1.753265   -1.130763
     54          6           0        9.571059    2.475401   -2.356468
     55          6           0        8.594244    3.260299   -3.178456
     56          6           0       10.599505    1.476766   -3.096140
     57          6           0       12.059187    1.770246   -2.795569
     58          6           0       12.917754    0.419911   -2.646250
     59          6           0       13.309099    0.256030   -1.134105
     60          6           0       14.542694   -0.597470   -0.962037
     61          6           0       12.178544   -0.306579   -0.236013
     62          6           0       11.834491    0.674076    0.868198
     63          6           0       12.760066    0.687456    2.020404
     64          6           0       12.162495    0.323336    3.419410
     65          6           0       13.133032    0.841491    4.540600
     66          6           0       12.137909   -1.290266    3.576946
     67          1           0       -2.430433    3.363277   -0.175002
     68          1           0       -8.891706    3.452510    0.718804
     69          1           0       -9.041290   -2.868975   -0.486244
     70          1           0       -1.045437   -1.155908    0.705292
     71          1           0       -0.683075    1.468141   -0.611680
     72          1           0       -1.772545    1.465686    2.244621
     73          1           0       -0.357961    2.375781    1.456526
     74          1           0       -0.233816    0.725532    1.828009
     75          1           0       -0.258481   -0.143631   -2.055949
     76          1           0       -1.421723   -1.505703   -2.018446
     77          1           0        1.217245   -1.846237   -2.169000
     78          1           0        0.426467   -3.004695   -1.422610
     79          1           0       -3.863643    6.143814    1.204207
     80          1           0       -4.248568    6.293442   -0.557188
     81          1           0       -2.917740    5.320202    0.053463
     82          1           0       -5.894420    7.058007    1.909049
     83          1           0       -7.270781    7.850840    1.048993
     84          1           0       -5.915565    7.483946    0.150250
     85          1           0      -10.819618    1.796317   -0.322418
     86          1           0      -10.794834   -0.990408    0.362760
     87          1           0      -10.259410    1.042483    2.571426
     88          1           0      -11.799931    0.642658    1.655837
     89          1           0      -11.251298    2.308255    1.960071
     90          1           0      -10.411101   -1.527622   -1.966701
     91          1           0      -10.316223    0.222936   -2.239246
     92          1           0      -12.590589    0.309104   -2.338793
     93          1           0      -12.852983   -0.484424   -0.718847
     94          1           0      -12.528296   -1.360240   -2.220099
     95          1           0       -8.141872   -4.729925   -1.572150
     96          1           0       -7.554292   -5.526479    0.046813
     97          1           0       -6.866144   -5.873682   -1.477520
     98          1           0       -2.034340   -3.657394   -1.118691
     99          1           0        0.368885   -4.567914    2.328509
    100          1           0        0.334934   -6.086154    1.250021
    101          1           0       -1.009641   -5.770310    2.286810
    102          1           0        3.906917   -2.065021    1.038459
    103          1           0        3.654535   -0.289082    1.249023
    104          1           0        4.936568   -0.929246   -1.341735
    105          1           0        7.029126   -1.490160    2.027762
    106          1           0        5.762985   -0.280311    2.412102
    107          1           0        7.236125    0.312117    2.027236
    108          1           0        7.008123   -1.158491   -1.517878
    109          1           0        8.204100   -0.680334   -0.212060
    110          1           0        6.637725    1.542911   -1.439236
    111          1           0        7.688454    0.586209   -2.555019
    112          1           0        9.517539    1.215187   -0.479007
    113          1           0        8.575397    2.646464   -0.561410
    114          1           0       10.184374    3.278707   -1.950153
    115          1           0        7.715862    3.480332   -2.570743
    116          1           0        8.408787    2.794836   -4.146513
    117          1           0        8.962436    4.263973   -3.394823
    118          1           0       10.479089    1.802243   -4.129789
    119          1           0       10.333504    0.419988   -3.067235
    120          1           0       12.143980    2.385762   -1.900418
    121          1           0       12.652742    2.138736   -3.632950
    122          1           0       13.806783    0.346458   -3.273625
    123          1           0       12.307858   -0.400480   -3.025911
    124          1           0       13.586004    1.197377   -0.658893
    125          1           0       15.402843   -0.089406   -0.526680
    126          1           0       14.967859   -0.979839   -1.890688
    127          1           0       14.373777   -1.489912   -0.359901
    128          1           0       12.328496   -1.268624    0.252925
    129          1           0       11.322314   -0.352780   -0.909781
    130          1           0       10.929341    0.252977    1.305235
    131          1           0       11.576311    1.681901    0.543442
    132          1           0       13.117292    1.716279    2.031965
    133          1           0       13.580989    0.001409    1.812773
    134          1           0       11.254296    0.887583    3.630771
    135          1           0       14.173433    0.893492    4.219482
    136          1           0       13.002533    0.122902    5.350771
    137          1           0       12.704961    1.813161    4.785034
    138          1           0       12.886281   -1.747361    2.929925
    139          1           0       11.207121   -1.621037    3.115645
    140          1           0       12.219354   -1.799712    4.536990
 ---------------------------------------------------------------------

 SCF Done:  E(RCAM-B3LYP) =  -3007.12734017     A.U. after   17 cycles

 Excitation energies and oscillator strengths:

 Excited State   1:      Singlet-A      1.6615 eV  746.21 nm  f=0.3791  <S**2>=0.000
     245 -> 248        0.17142
     246 -> 247        0.68758
     245 <- 248        0.10660
 This state for optimization and/or second-order correction.
 Total Energy, E(TD-HF/TD-DFT) =  -3007.06628017
 Copying the excited state density for this state as the 1-particle RhoCI density.

 Excited State   2:      Singlet-A      2.1690 eV  571.63 nm  f=0.1770  <S**2>=0.000
     245 -> 247        0.65681
     246 -> 248       -0.24868

 Excited State   3:      Singlet-A      3.2867 eV  377.23 nm  f=0.0019  <S**2>=0.000
     243 -> 247        0.68153

 Excited State   4:      Singlet-A      3.3973 eV  364.95 nm  f=0.0086  <S**2>=0.000
     240 -> 247       -0.23946
     240 -> 249       -0.11125
     242 -> 247        0.62169
     246 -> 248        0.10594

 Excited State   5:      Singlet-A      3.4598 eV  358.36 nm  f=0.0071  <S**2>=0.000
     239 -> 247        0.13335
     240 -> 247        0.54238
     240 -> 249        0.22697
     240 -> 250        0.15139
     242 -> 247        0.27861
     243 -> 247        0.10194

 The electronic state is 1-A.
 Alpha  occ. eigenvalues --  -46.86842 -19.25229 -19.23412 -19.20940 -19.19057
 Alpha  occ. eigenvalues --  -19.18136 -19.18090 -14.42010 -14.41852 -14.39413
 Alpha  occ. eigenvalues --  -14.38977 -10.40242 -10.38567 -10.34377 -10.33897
 Alpha  occ. eigenvalues --  -10.31934 -10.31393 -10.30763 -10.30628 -10.30485
 Alpha  occ. eigenvalues --  -10.30201 -10.30053 -10.29635 -10.29516 -10.28554
 Alpha  occ. eigenvalues --  -10.28510 -10.28178 -10.28163 -10.27917 -10.27862
 Alpha  occ. eigenvalues --  -10.27788 -10.27768 -10.27503 -10.27326 -10.27229
 Alpha  occ. eigenvalues --  -10.27194 -10.27115 -10.26897 -10.26897 -10.26726
 Alpha  occ. eigenvalues --  -10.26473 -10.26322 -10.26144 -10.26091 -10.26000
 Alpha  occ. eigenvalues --  -10.25918 -10.25868 -10.25632 -10.25587 -10.25549
 Alpha  occ. eigenvalues --  -10.25417 -10.25383 -10.25257 -10.25170 -10.25168
 Alpha  occ. eigenvalues --  -10.25162 -10.25106 -10.25035 -10.24975 -10.24752
 Alpha  occ. eigenvalues --  -10.24425 -10.24424 -10.24417 -10.24223 -10.23928
 Alpha  occ. eigenvalues --  -10.23593  -3.15822  -1.90701  -1.90285  -1.90150
 Alpha  occ. eigenvalues --   -1.16126  -1.14299  -1.09587  -1.08609  -1.08225
 Alpha  occ. eigenvalues --   -1.05933  -1.05297  -1.03578  -1.02893  -1.01636
 Alpha  occ. eigenvalues --   -0.94043  -0.90394  -0.89820  -0.89377  -0.89205
 Alpha  occ. eigenvalues --   -0.88374  -0.88234  -0.87306  -0.87046  -0.86822
 Alpha  occ. eigenvalues --   -0.86376  -0.85296  -0.84132  -0.83334  -0.83221
 Alpha  occ. eigenvalues --   -0.82563  -0.81662  -0.81153  -0.80463  -0.80038
 Alpha  occ. eigenvalues --   -0.79891  -0.78413  -0.77902  -0.77367  -0.76015
 Alpha  occ. eigenvalues --   -0.75702  -0.75229  -0.74999  -0.74803  -0.74462
 Alpha  occ. eigenvalues --   -0.73379  -0.72739  -0.71265  -0.70704  -0.69059
 Alpha  occ. eigenvalues --   -0.68351  -0.67569  -0.67384  -0.66824  -0.65525
 Alpha  occ. eigenvalues --   -0.65408  -0.64699  -0.64263  -0.64168  -0.64131
 Alpha  occ. eigenvalues --   -0.63970  -0.62769  -0.61653  -0.61340  -0.60200
 Alpha  occ. eigenvalues --   -0.59839  -0.59580  -0.58800  -0.58522  -0.57862
 Alpha  occ. eigenvalues --   -0.57476  -0.56747  -0.55937  -0.55784  -0.54949
 Alpha  occ. eigenvalues --   -0.54852  -0.54745  -0.54586  -0.54033  -0.53763
 Alpha  occ. eigenvalues --   -0.53605  -0.53418  -0.53088  -0.52748  -0.52584
 Alpha  occ. eigenvalues --   -0.52379  -0.52288  -0.52077  -0.52016  -0.51648
 Alpha  occ. eigenvalues --   -0.51579  -0.51439  -0.50871  -0.50835  -0.50551
 Alpha  occ. eigenvalues --   -0.50273  -0.50160  -0.49953  -0.49916  -0.49484
 Alpha  occ. eigenvalues --   -0.49400  -0.49240  -0.48994  -0.48842  -0.48435
 Alpha  occ. eigenvalues --   -0.48339  -0.47993  -0.47821  -0.47710  -0.47565
 Alpha  occ. eigenvalues --   -0.47453  -0.47317  -0.47134  -0.46993  -0.46901
 Alpha  occ. eigenvalues --   -0.46503  -0.46148  -0.45981  -0.45920  -0.45815
 Alpha  occ. eigenvalues --   -0.45785  -0.45686  -0.45371  -0.44908  -0.44781
 Alpha  occ. eigenvalues --   -0.44671  -0.44282  -0.44239  -0.43841  -0.43437
 Alpha  occ. eigenvalues --   -0.43371  -0.43247  -0.43129  -0.42963  -0.42866
 Alpha  occ. eigenvalues --   -0.42803  -0.42628  -0.42398  -0.42297  -0.42227
 Alpha  occ. eigenvalues --   -0.41525  -0.41313  -0.41303  -0.41238  -0.41074
 Alpha  occ. eigenvalues --   -0.40832  -0.40751  -0.40586  -0.40324  -0.40037
 Alpha  occ. eigenvalues --   -0.39812  -0.39527  -0.39478  -0.39442  -0.39123
 Alpha  occ. eigenvalues --   -0.38195  -0.38037  -0.37654  -0.37580  -0.37224
 Alpha  occ. eigenvalues --   -0.37109  -0.36968  -0.36308  -0.36163  -0.35675
 Alpha  occ. eigenvalues --   -0.35637  -0.34775  -0.34587  -0.34543  -0.34311
 Alpha  occ. eigenvalues --   -0.33553  -0.33489  -0.32543  -0.30999  -0.30700
 Alpha  occ. eigenvalues --   -0.30613  -0.29858  -0.29698  -0.29218  -0.23829
 Alpha  occ. eigenvalues --   -0.21335
 Alpha virt. eigenvalues --   -0.09081  -0.01398   0.00795   0.02121   0.02991
 Alpha virt. eigenvalues --    0.03298   0.04820   0.05134   0.06437   0.07387
 Alpha virt. eigenvalues --    0.08106   0.08439   0.08725   0.09192   0.09343

 Mulliken charges:
               1
     1  Mg   0.862154
     2  C    0.015821
     3  C   -0.072194
     4  C   -0.066624
     5  C   -0.103592
     6  N   -0.263838
     7  C   -0.082816
     8  C   -0.047863
     9  C   -0.066234
    10  C    0.047248
    11  C    0.069905
    12  C    0.105768
    13  C    0.040797
    14  C    0.170451
    15  O   -0.230384
    16  O   -0.353398
    17  N   -0.368310
    18  C    0.154177
    19  C   -0.152963
    20  C   -0.007451
    21  C    0.121090
    22  C    0.117912
    23  C   -0.019772
    24  O   -0.224376
    25  C    0.052007
    26  N   -0.386237
    27  C    0.100640
    28  C   -0.036571
    29  C   -0.045573
    30  C    0.104724
    31  C    0.045166
    32  C   -0.010388
    33  C    0.045991
    34  N   -0.342540
    35  C    0.122520
    36  C   -0.186892
    37  C   -0.013153
    38  C    0.138406
    39  C    0.121047
    40  C    0.016295
    41  O   -0.168433
    42  C    0.015172
    43  C    0.193219
    44  O   -0.220510
    45  O   -0.353824
    46  C    0.186096
    47  C    0.321987
    48  C   -0.152634
    49  C   -0.205727
    50  C    0.057845
    51  C    0.054290
    52  C    0.058294
    53  C    0.026464
    54  C   -0.150451
    55  C    0.068306
    56  C    0.069548
    57  C    0.015630
    58  C    0.026398
    59  C   -0.127273
    60  C    0.052320
    61  C    0.073475
    62  C   -0.033980
    63  C    0.065886
    64  C   -0.146296
    65  C    0.047694
    66  C    0.013677
    67  H   -0.028109
    68  H   -0.001380
    69  H   -0.013612
    70  H    0.050179
    71  H    0.001464
    72  H    0.040884
    73  H    0.011614
    74  H    0.008202
    75  H    0.024269
    76  H    0.015621
    77  H    0.013793
    78  H    0.043471
    79  H    0.030024
    80  H    0.026256
    81  H    0.005370
    82  H    0.045224
    83  H    0.017145
    84  H    0.018021
    85  H    0.021805
    86  H    0.000709
    87  H    0.026498
    88  H    0.016111
    89  H    0.026092
    90  H    0.008118
    91  H    0.001826
    92  H    0.012156
    93  H    0.027168
    94  H    0.002727
    95  H    0.019544
    96  H    0.047423
    97  H    0.020284
    98  H    0.037103
    99  H    0.061011
   100  H    0.034548
   101  H    0.039214
   102  H    0.039887
   103  H    0.035019
   104  H    0.004075
   105  H    0.048008
   106  H   -0.000594
   107  H    0.013850
   108  H    0.005557
   109  H   -0.000778
   110  H    0.008874
   111  H    0.003078
   112  H   -0.008318
   113  H   -0.013733
   114  H   -0.012302
   115  H    0.001697
   116  H    0.010297
   117  H   -0.001752
   118  H   -0.019481
   119  H    0.009538
   120  H    0.009905
   121  H    0.009053
   122  H   -0.005259
   123  H   -0.006912
   124  H    0.002241
   125  H    0.000927
   126  H   -0.011380
   127  H   -0.004741
   128  H    0.001614
   129  H   -0.026970
   130  H   -0.008460
   131  H    0.009103
   132  H   -0.012724
   133  H   -0.005687
   134  H    0.001795
   135  H    0.015888
   136  H    0.003687
   137  H    0.005175
   138  H    0.005686
   139  H    0.002813
   140  H    0.022427
 Sum of Mulliken charges =  -0.00000

 Dipole moment (field-independent basis, Debye):
    X=              3.0371    Y=              2.8084    Z=             -3.0882  Tot=              5.1622
 Quadrupole moment (field-independent basis, Debye-Ang):
   XX=           -381.9826   YY=           -418.5905   ZZ=           -406.1428
   XY=             13.9554   XZ=             16.1908   YZ=              1.0747

 Normal termination of Gaussian 16 at Tue Apr 26 20:01:11 2022.
