 Gaussian 16, Revision A.03,
 Gaussian 16:  ES64L-G16RevA.03 25-Dec-2016

 ---------------------------------
 #p PBE1PBE/Def2SVP td=(nstates=5)
 ---------------------------------

 ------------------------------------------------------
 step_1001_chromophore_19 TDDFT with PBE1PBE functional
 ------------------------------------------------------
 Symbolic Z-matrix:
 Charge =  0 Multiplicity = 1

                         Standard orientation:
 ---------------------------------------------------------------------
 Center     Atomic      Atomic             Coordinates (Angstroms)
 Number     Number       Type             X           Y           Z
 ---------------------------------------------------------------------
      1         12           0       -5.893823    0.338912   -0.228792
      2          6           0       -3.406325   -2.160034   -0.248194
      3          6           0       -3.263134    2.661088   -0.093938
      4          6           0       -8.148174    2.659897    0.610815
      5          6           0       -8.283481   -2.083769   -0.441010
      6          7           0       -3.625630    0.177133   -0.097156
      7          6           0       -2.861135   -0.914165   -0.178305
      8          6           0       -1.387761   -0.569129   -0.147338
      9          6           0       -1.399871    0.988062    0.054011
     10          6           0       -2.828042    1.333221   -0.186557
     11          6           0       -0.963574    1.470951    1.513154
     12          6           0       -0.635401   -0.983437   -1.473049
     13          6           0        0.556070   -1.928628   -1.306403
     14          6           0        1.464266   -1.794413   -0.084005
     15          8           0        1.344909   -2.395927    0.977692
     16          8           0        2.665483   -1.159108   -0.447672
     17          7           0       -5.731176    2.347633    0.251876
     18          6           0       -4.602549    3.140638    0.173326
     19          6           0       -4.988786    4.489712    0.280627
     20          6           0       -6.372536    4.541067    0.582404
     21          6           0       -6.810222    3.126875    0.534154
     22          6           0       -3.946049    5.625275    0.249579
     23          6           0       -7.173474    5.756570    0.762886
     24          8           0       -8.403292    5.709718    0.909674
     25          6           0       -6.485862    7.096519    0.994946
     26          7           0       -7.843236    0.313761    0.065727
     27          6           0       -8.620027    1.390181    0.411710
     28          6           0      -10.209775    1.170041    0.329705
     29          6           0      -10.178333   -0.307853   -0.221888
     30          6           0       -8.727912   -0.730531   -0.330668
     31          6           0      -10.927221    1.290508    1.745587
     32          6           0      -10.780569   -0.557028   -1.636864
     33          6           0      -12.276373   -0.469278   -1.643605
     34          7           0       -5.896228   -1.649172   -0.480607
     35          6           0       -6.918099   -2.534067   -0.457278
     36          6           0       -6.490031   -3.866735   -0.741503
     37          6           0       -5.062422   -3.743591   -0.622163
     38          6           0       -4.799103   -2.381552   -0.395964
     39          6           0       -7.338274   -5.066623   -0.916948
     40          6           0       -3.814232   -4.476345   -0.525542
     41          8           0       -3.583262   -5.672657   -0.477831
     42          6           0       -2.765690   -3.462668   -0.334867
     43          6           0       -2.028014   -3.824375    0.971690
     44          8           0       -2.367687   -3.619390    2.130371
     45          8           0       -0.889698   -4.514133    0.623126
     46          6           0       -0.209196   -5.276481    1.735398
     47          6           0        3.719535   -1.113603    0.539031
     48          6           0        4.954414   -0.870821   -0.253628
     49          6           0        6.171707   -0.473441    0.252119
     50          6           0        6.597438   -0.526659    1.754813
     51          6           0        7.338795   -0.396827   -0.811504
     52          6           0        7.538631    0.937009   -1.533194
     53          6           0        8.829402    1.753265   -1.130763
     54          6           0        9.571059    2.475401   -2.356468
     55          6           0        8.594244    3.260299   -3.178456
     56          6           0       10.599505    1.476766   -3.096140
     57          6           0       12.059187    1.770246   -2.795569
     58          6           0       12.917754    0.419911   -2.646250
     59          6           0       13.309099    0.256030   -1.134105
     60          6           0       14.542694   -0.597470   -0.962037
     61          6           0       12.178544   -0.306579   -0.236013
     62          6           0       11.834491    0.674076    0.868198
     63          6           0       12.760066    0.687456    2.020404
     64          6           0       12.162495    0.323336    3.419410
     65          6           0       13.133032    0.841491    4.540600
     66          6           0       12.137909   -1.290266    3.576946
     67          1           0       -2.430433    3.363277   -0.175002
     68          1           0       -8.891706    3.452510    0.718804
     69          1           0       -9.041290   -2.868975   -0.486244
     70          1           0       -1.045437   -1.155908    0.705292
     71          1           0       -0.683075    1.468141   -0.611680
     72          1           0       -1.772545    1.465686    2.244621
     73          1           0       -0.357961    2.375781    1.456526
     74          1           0       -0.233816    0.725532    1.828009
     75          1           0       -0.258481   -0.143631   -2.055949
     76          1           0       -1.421723   -1.505703   -2.018446
     77          1           0        1.217245   -1.846237   -2.169000
     78          1           0        0.426467   -3.004695   -1.422610
     79          1           0       -3.863643    6.143814    1.204207
     80          1           0       -4.248568    6.293442   -0.557188
     81          1           0       -2.917740    5.320202    0.053463
     82          1           0       -5.894420    7.058007    1.909049
     83          1           0       -7.270781    7.850840    1.048993
     84          1           0       -5.915565    7.483946    0.150250
     85          1           0      -10.819618    1.796317   -0.322418
     86          1           0      -10.794834   -0.990408    0.362760
     87          1           0      -10.259410    1.042483    2.571426
     88          1           0      -11.799931    0.642658    1.655837
     89          1           0      -11.251298    2.308255    1.960071
     90          1           0      -10.411101   -1.527622   -1.966701
     91          1           0      -10.316223    0.222936   -2.239246
     92          1           0      -12.590589    0.309104   -2.338793
     93          1           0      -12.852983   -0.484424   -0.718847
     94          1           0      -12.528296   -1.360240   -2.220099
     95          1           0       -8.141872   -4.729925   -1.572150
     96          1           0       -7.554292   -5.526479    0.046813
     97          1           0       -6.866144   -5.873682   -1.477520
     98          1           0       -2.034340   -3.657394   -1.118691
     99          1           0        0.368885   -4.567914    2.328509
    100          1           0        0.334934   -6.086154    1.250021
    101          1           0       -1.009641   -5.770310    2.286810
    102          1           0        3.906917   -2.065021    1.038459
    103          1           0        3.654535   -0.289082    1.249023
    104          1           0        4.936568   -0.929246   -1.341735
    105          1           0        7.029126   -1.490160    2.027762
    106          1           0        5.762985   -0.280311    2.412102
    107          1           0        7.236125    0.312117    2.027236
    108          1           0        7.008123   -1.158491   -1.517878
    109          1           0        8.204100   -0.680334   -0.212060
    110          1           0        6.637725    1.542911   -1.439236
    111          1           0        7.688454    0.586209   -2.555019
    112          1           0        9.517539    1.215187   -0.479007
    113          1           0        8.575397    2.646464   -0.561410
    114          1           0       10.184374    3.278707   -1.950153
    115          1           0        7.715862    3.480332   -2.570743
    116          1           0        8.408787    2.794836   -4.146513
    117          1           0        8.962436    4.263973   -3.394823
    118          1           0       10.479089    1.802243   -4.129789
    119          1           0       10.333504    0.419988   -3.067235
    120          1           0       12.143980    2.385762   -1.900418
    121          1           0       12.652742    2.138736   -3.632950
    122          1           0       13.806783    0.346458   -3.273625
    123          1           0       12.307858   -0.400480   -3.025911
    124          1           0       13.586004    1.197377   -0.658893
    125          1           0       15.402843   -0.089406   -0.526680
    126          1           0       14.967859   -0.979839   -1.890688
    127          1           0       14.373777   -1.489912   -0.359901
    128          1           0       12.328496   -1.268624    0.252925
    129          1           0       11.322314   -0.352780   -0.909781
    130          1           0       10.929341    0.252977    1.305235
    131          1           0       11.576311    1.681901    0.543442
    132          1           0       13.117292    1.716279    2.031965
    133          1           0       13.580989    0.001409    1.812773
    134          1           0       11.254296    0.887583    3.630771
    135          1           0       14.173433    0.893492    4.219482
    136          1           0       13.002533    0.122902    5.350771
    137          1           0       12.704961    1.813161    4.785034
    138          1           0       12.886281   -1.747361    2.929925
    139          1           0       11.207121   -1.621037    3.115645
    140          1           0       12.219354   -1.799712    4.536990
 ---------------------------------------------------------------------

 SCF Done:  E(RPBE1PBE) =  -3005.31621198     A.U. after   15 cycles

 Excitation energies and oscillator strengths:

 Excited State   1:      Singlet-A      1.8240 eV  679.74 nm  f=0.3613  <S**2>=0.000
     245 -> 248        0.16436
     246 -> 247        0.69447
     246 <- 247       -0.11295
 This state for optimization and/or second-order correction.
 Total Energy, E(TD-HF/TD-DFT) =  -3005.24918166
 Copying the excited state density for this state as the 1-particle RhoCI density.

 Excited State   2:      Singlet-A      2.1916 eV  565.72 nm  f=0.1641  <S**2>=0.000
     245 -> 247        0.66257
     246 -> 248       -0.23159

 Excited State   3:      Singlet-A      2.8588 eV  433.69 nm  f=0.0009  <S**2>=0.000
     240 -> 247       -0.26048
     243 -> 247        0.62817

 Excited State   4:      Singlet-A      2.9322 eV  422.83 nm  f=0.0001  <S**2>=0.000
     242 -> 247        0.67517
     242 -> 248        0.10094
     242 -> 249       -0.12409

 Excited State   5:      Singlet-A      3.0178 eV  410.85 nm  f=0.0008  <S**2>=0.000
     240 -> 247       -0.40043
     241 -> 247        0.51265
     243 -> 247       -0.25591

 The electronic state is 1-A.
 Alpha  occ. eigenvalues --  -46.90258 -19.25947 -19.24097 -19.21182 -19.19293
 Alpha  occ. eigenvalues --  -19.18322 -19.18309 -14.41598 -14.41305 -14.39073
 Alpha  occ. eigenvalues --  -14.38591 -10.37291 -10.35624 -10.31487 -10.30967
 Alpha  occ. eigenvalues --  -10.29333 -10.29181 -10.28509 -10.28351 -10.27845
 Alpha  occ. eigenvalues --  -10.27728 -10.27717 -10.27350 -10.27208 -10.26357
 Alpha  occ. eigenvalues --  -10.26183 -10.25974 -10.25765 -10.25707 -10.25514
 Alpha  occ. eigenvalues --  -10.25427 -10.25273 -10.25102 -10.25057 -10.24912
 Alpha  occ. eigenvalues --  -10.24890 -10.24870 -10.24595 -10.24441 -10.24316
 Alpha  occ. eigenvalues --  -10.24065 -10.23873 -10.23741 -10.23645 -10.23643
 Alpha  occ. eigenvalues --  -10.23407 -10.23376 -10.23210 -10.23131 -10.23056
 Alpha  occ. eigenvalues --  -10.22972 -10.22869 -10.22855 -10.22771 -10.22765
 Alpha  occ. eigenvalues --  -10.22715 -10.22601 -10.22550 -10.22546 -10.22449
 Alpha  occ. eigenvalues --  -10.21975 -10.21953 -10.21808 -10.21628 -10.21444
 Alpha  occ. eigenvalues --  -10.20981  -3.12804  -1.85626  -1.85189  -1.85057
 Alpha  occ. eigenvalues --   -1.10925  -1.09051  -1.04277  -1.03325  -1.03088
 Alpha  occ. eigenvalues --   -1.00765  -0.99978  -0.98163  -0.97536  -0.96258
 Alpha  occ. eigenvalues --   -0.88391  -0.84463  -0.83995  -0.83668  -0.83354
 Alpha  occ. eigenvalues --   -0.82655  -0.82389  -0.81589  -0.81168  -0.81125
 Alpha  occ. eigenvalues --   -0.80669  -0.79543  -0.78323  -0.77598  -0.77502
 Alpha  occ. eigenvalues --   -0.76792  -0.75934  -0.75322  -0.74666  -0.74260
 Alpha  occ. eigenvalues --   -0.74181  -0.72681  -0.72141  -0.71664  -0.70319
 Alpha  occ. eigenvalues --   -0.69872  -0.69347  -0.69311  -0.68933  -0.68632
 Alpha  occ. eigenvalues --   -0.67765  -0.67091  -0.65650  -0.65021  -0.63424
 Alpha  occ. eigenvalues --   -0.62781  -0.61915  -0.61769  -0.61045  -0.59984
 Alpha  occ. eigenvalues --   -0.59599  -0.59193  -0.58867  -0.58569  -0.58444
 Alpha  occ. eigenvalues --   -0.58287  -0.56905  -0.55909  -0.55876  -0.54744
 Alpha  occ. eigenvalues --   -0.54334  -0.54164  -0.53388  -0.52950  -0.52479
 Alpha  occ. eigenvalues --   -0.51876  -0.51182  -0.50498  -0.50325  -0.49465
 Alpha  occ. eigenvalues --   -0.49332  -0.49200  -0.49130  -0.48539  -0.48307
 Alpha  occ. eigenvalues --   -0.48131  -0.47845  -0.47516  -0.47212  -0.46956
 Alpha  occ. eigenvalues --   -0.46920  -0.46863  -0.46643  -0.46608  -0.46133
 Alpha  occ. eigenvalues --   -0.46092  -0.45981  -0.45515  -0.45420  -0.45103
 Alpha  occ. eigenvalues --   -0.44840  -0.44724  -0.44542  -0.44449  -0.44061
 Alpha  occ. eigenvalues --   -0.43966  -0.43826  -0.43640  -0.43414  -0.43028
 Alpha  occ. eigenvalues --   -0.42956  -0.42613  -0.42484  -0.42310  -0.42204
 Alpha  occ. eigenvalues --   -0.42077  -0.41999  -0.41819  -0.41663  -0.41529
 Alpha  occ. eigenvalues --   -0.41152  -0.40807  -0.40712  -0.40581  -0.40506
 Alpha  occ. eigenvalues --   -0.40456  -0.40417  -0.40115  -0.39724  -0.39523
 Alpha  occ. eigenvalues --   -0.39289  -0.38945  -0.38881  -0.38608  -0.38180
 Alpha  occ. eigenvalues --   -0.38122  -0.38083  -0.37836  -0.37766  -0.37641
 Alpha  occ. eigenvalues --   -0.37505  -0.37361  -0.37223  -0.37091  -0.37014
 Alpha  occ. eigenvalues --   -0.36304  -0.36213  -0.36121  -0.35998  -0.35914
 Alpha  occ. eigenvalues --   -0.35719  -0.35507  -0.35455  -0.35076  -0.34918
 Alpha  occ. eigenvalues --   -0.34546  -0.34458  -0.34419  -0.34180  -0.33917
 Alpha  occ. eigenvalues --   -0.33158  -0.32888  -0.32582  -0.32556  -0.32197
 Alpha  occ. eigenvalues --   -0.32013  -0.31905  -0.31269  -0.31170  -0.30573
 Alpha  occ. eigenvalues --   -0.30540  -0.29736  -0.29699  -0.29501  -0.29184
 Alpha  occ. eigenvalues --   -0.28642  -0.28470  -0.27881  -0.26639  -0.25639
 Alpha  occ. eigenvalues --   -0.25474  -0.25318  -0.25150  -0.24531  -0.20793
 Alpha  occ. eigenvalues --   -0.18905
 Alpha virt. eigenvalues --   -0.11437  -0.04993  -0.03365  -0.02253  -0.01423
 Alpha virt. eigenvalues --    0.00477   0.00536   0.00781   0.01771   0.03630
 Alpha virt. eigenvalues --    0.04639   0.04725   0.04837   0.05509   0.05998

 Mulliken charges:
               1
     1  Mg   1.021386
     2  C    0.000530
     3  C   -0.070899
     4  C   -0.051030
     5  C   -0.087491
     6  N   -0.367180
     7  C    0.003784
     8  C   -0.119690
     9  C   -0.144755
    10  C    0.088024
    11  C    0.012841
    12  C    0.053611
    13  C   -0.030628
    14  C    0.234608
    15  O   -0.262616
    16  O   -0.384955
    17  N   -0.487674
    18  C    0.180645
    19  C   -0.179235
    20  C   -0.060546
    21  C    0.156246
    22  C    0.055944
    23  C    0.031548
    24  O   -0.260877
    25  C   -0.022786
    26  N   -0.491615
    27  C    0.127023
    28  C   -0.108609
    29  C   -0.114042
    30  C    0.128429
    31  C   -0.010890
    32  C   -0.069635
    33  C   -0.027514
    34  N   -0.473872
    35  C    0.131076
    36  C   -0.189326
    37  C   -0.064610
    38  C    0.187624
    39  C    0.066802
    40  C    0.114325
    41  O   -0.216651
    42  C   -0.100215
    43  C    0.285281
    44  O   -0.255919
    45  O   -0.384321
    46  C    0.130969
    47  C    0.281153
    48  C   -0.165110
    49  C   -0.236403
    50  C   -0.009645
    51  C   -0.014264
    52  C   -0.003935
    53  C   -0.041895
    54  C   -0.229006
    55  C    0.005466
    56  C    0.011298
    57  C   -0.044694
    58  C   -0.028392
    59  C   -0.212485
    60  C   -0.002993
    61  C    0.014221
    62  C   -0.109957
    63  C    0.021166
    64  C   -0.243558
    65  C   -0.012577
    66  C   -0.045597
    67  H    0.004211
    68  H    0.030085
    69  H    0.016663
    70  H    0.090436
    71  H    0.037234
    72  H    0.068186
    73  H    0.039088
    74  H    0.037761
    75  H    0.054363
    76  H    0.050561
    77  H    0.046241
    78  H    0.073640
    79  H    0.057345
    80  H    0.054801
    81  H    0.033015
    82  H    0.071775
    83  H    0.045103
    84  H    0.044607
    85  H    0.056634
    86  H    0.037844
    87  H    0.053906
    88  H    0.044045
    89  H    0.053261
    90  H    0.041636
    91  H    0.036116
    92  H    0.040798
    93  H    0.053025
    94  H    0.031873
    95  H    0.045414
    96  H    0.074501
    97  H    0.048804
    98  H    0.075088
    99  H    0.082767
   100  H    0.056276
   101  H    0.060796
   102  H    0.066940
   103  H    0.061396
   104  H    0.034000
   105  H    0.074427
   106  H    0.026714
   107  H    0.042098
   108  H    0.037636
   109  H    0.033414
   110  H    0.039874
   111  H    0.036579
   112  H    0.036626
   113  H    0.021011
   114  H    0.025912
   115  H    0.029579
   116  H    0.036941
   117  H    0.026818
   118  H    0.016588
   119  H    0.037851
   120  H    0.040450
   121  H    0.041851
   122  H    0.026166
   123  H    0.025662
   124  H    0.041456
   125  H    0.027948
   126  H    0.016011
   127  H    0.021440
   128  H    0.034158
   129  H    0.011311
   130  H    0.027352
   131  H    0.041779
   132  H    0.020317
   133  H    0.028861
   134  H    0.037519
   135  H    0.042657
   136  H    0.031809
   137  H    0.033502
   138  H    0.032059
   139  H    0.030896
   140  H    0.048580
 Sum of Mulliken charges =  -0.00000

 Dipole moment (field-independent basis, Debye):
    X=              2.9691    Y=              2.7633    Z=             -3.0835  Tot=              5.0950
 Quadrupole moment (field-independent basis, Debye-Ang):
   XX=           -375.1125   YY=           -416.0101   ZZ=           -403.5317
   XY=             14.7645   XZ=             16.2989   YZ=              1.0867

 Normal termination of Gaussian 16 at Tue Apr 26 20:18:54 2022.
