 Gaussian 16, Revision A.03,
 Gaussian 16:  ES64L-G16RevA.03 25-Dec-2016

 --------------------------------
 #p wB97XD/Def2SVP td=(nstates=5)
 --------------------------------

 -----------------------------------------------------
 step_1001_chromophore_19 TDDFT with wB97XD functional
 -----------------------------------------------------
 Symbolic Z-matrix:
 Charge =  0 Multiplicity = 1

                         Standard orientation:
 ---------------------------------------------------------------------
 Center     Atomic      Atomic             Coordinates (Angstroms)
 Number     Number       Type             X           Y           Z
 ---------------------------------------------------------------------
      1         12           0       -5.893823    0.338912   -0.228792
      2          6           0       -3.406325   -2.160034   -0.248194
      3          6           0       -3.263134    2.661088   -0.093938
      4          6           0       -8.148174    2.659897    0.610815
      5          6           0       -8.283481   -2.083769   -0.441010
      6          7           0       -3.625630    0.177133   -0.097156
      7          6           0       -2.861135   -0.914165   -0.178305
      8          6           0       -1.387761   -0.569129   -0.147338
      9          6           0       -1.399871    0.988062    0.054011
     10          6           0       -2.828042    1.333221   -0.186557
     11          6           0       -0.963574    1.470951    1.513154
     12          6           0       -0.635401   -0.983437   -1.473049
     13          6           0        0.556070   -1.928628   -1.306403
     14          6           0        1.464266   -1.794413   -0.084005
     15          8           0        1.344909   -2.395927    0.977692
     16          8           0        2.665483   -1.159108   -0.447672
     17          7           0       -5.731176    2.347633    0.251876
     18          6           0       -4.602549    3.140638    0.173326
     19          6           0       -4.988786    4.489712    0.280627
     20          6           0       -6.372536    4.541067    0.582404
     21          6           0       -6.810222    3.126875    0.534154
     22          6           0       -3.946049    5.625275    0.249579
     23          6           0       -7.173474    5.756570    0.762886
     24          8           0       -8.403292    5.709718    0.909674
     25          6           0       -6.485862    7.096519    0.994946
     26          7           0       -7.843236    0.313761    0.065727
     27          6           0       -8.620027    1.390181    0.411710
     28          6           0      -10.209775    1.170041    0.329705
     29          6           0      -10.178333   -0.307853   -0.221888
     30          6           0       -8.727912   -0.730531   -0.330668
     31          6           0      -10.927221    1.290508    1.745587
     32          6           0      -10.780569   -0.557028   -1.636864
     33          6           0      -12.276373   -0.469278   -1.643605
     34          7           0       -5.896228   -1.649172   -0.480607
     35          6           0       -6.918099   -2.534067   -0.457278
     36          6           0       -6.490031   -3.866735   -0.741503
     37          6           0       -5.062422   -3.743591   -0.622163
     38          6           0       -4.799103   -2.381552   -0.395964
     39          6           0       -7.338274   -5.066623   -0.916948
     40          6           0       -3.814232   -4.476345   -0.525542
     41          8           0       -3.583262   -5.672657   -0.477831
     42          6           0       -2.765690   -3.462668   -0.334867
     43          6           0       -2.028014   -3.824375    0.971690
     44          8           0       -2.367687   -3.619390    2.130371
     45          8           0       -0.889698   -4.514133    0.623126
     46          6           0       -0.209196   -5.276481    1.735398
     47          6           0        3.719535   -1.113603    0.539031
     48          6           0        4.954414   -0.870821   -0.253628
     49          6           0        6.171707   -0.473441    0.252119
     50          6           0        6.597438   -0.526659    1.754813
     51          6           0        7.338795   -0.396827   -0.811504
     52          6           0        7.538631    0.937009   -1.533194
     53          6           0        8.829402    1.753265   -1.130763
     54          6           0        9.571059    2.475401   -2.356468
     55          6           0        8.594244    3.260299   -3.178456
     56          6           0       10.599505    1.476766   -3.096140
     57          6           0       12.059187    1.770246   -2.795569
     58          6           0       12.917754    0.419911   -2.646250
     59          6           0       13.309099    0.256030   -1.134105
     60          6           0       14.542694   -0.597470   -0.962037
     61          6           0       12.178544   -0.306579   -0.236013
     62          6           0       11.834491    0.674076    0.868198
     63          6           0       12.760066    0.687456    2.020404
     64          6           0       12.162495    0.323336    3.419410
     65          6           0       13.133032    0.841491    4.540600
     66          6           0       12.137909   -1.290266    3.576946
     67          1           0       -2.430433    3.363277   -0.175002
     68          1           0       -8.891706    3.452510    0.718804
     69          1           0       -9.041290   -2.868975   -0.486244
     70          1           0       -1.045437   -1.155908    0.705292
     71          1           0       -0.683075    1.468141   -0.611680
     72          1           0       -1.772545    1.465686    2.244621
     73          1           0       -0.357961    2.375781    1.456526
     74          1           0       -0.233816    0.725532    1.828009
     75          1           0       -0.258481   -0.143631   -2.055949
     76          1           0       -1.421723   -1.505703   -2.018446
     77          1           0        1.217245   -1.846237   -2.169000
     78          1           0        0.426467   -3.004695   -1.422610
     79          1           0       -3.863643    6.143814    1.204207
     80          1           0       -4.248568    6.293442   -0.557188
     81          1           0       -2.917740    5.320202    0.053463
     82          1           0       -5.894420    7.058007    1.909049
     83          1           0       -7.270781    7.850840    1.048993
     84          1           0       -5.915565    7.483946    0.150250
     85          1           0      -10.819618    1.796317   -0.322418
     86          1           0      -10.794834   -0.990408    0.362760
     87          1           0      -10.259410    1.042483    2.571426
     88          1           0      -11.799931    0.642658    1.655837
     89          1           0      -11.251298    2.308255    1.960071
     90          1           0      -10.411101   -1.527622   -1.966701
     91          1           0      -10.316223    0.222936   -2.239246
     92          1           0      -12.590589    0.309104   -2.338793
     93          1           0      -12.852983   -0.484424   -0.718847
     94          1           0      -12.528296   -1.360240   -2.220099
     95          1           0       -8.141872   -4.729925   -1.572150
     96          1           0       -7.554292   -5.526479    0.046813
     97          1           0       -6.866144   -5.873682   -1.477520
     98          1           0       -2.034340   -3.657394   -1.118691
     99          1           0        0.368885   -4.567914    2.328509
    100          1           0        0.334934   -6.086154    1.250021
    101          1           0       -1.009641   -5.770310    2.286810
    102          1           0        3.906917   -2.065021    1.038459
    103          1           0        3.654535   -0.289082    1.249023
    104          1           0        4.936568   -0.929246   -1.341735
    105          1           0        7.029126   -1.490160    2.027762
    106          1           0        5.762985   -0.280311    2.412102
    107          1           0        7.236125    0.312117    2.027236
    108          1           0        7.008123   -1.158491   -1.517878
    109          1           0        8.204100   -0.680334   -0.212060
    110          1           0        6.637725    1.542911   -1.439236
    111          1           0        7.688454    0.586209   -2.555019
    112          1           0        9.517539    1.215187   -0.479007
    113          1           0        8.575397    2.646464   -0.561410
    114          1           0       10.184374    3.278707   -1.950153
    115          1           0        7.715862    3.480332   -2.570743
    116          1           0        8.408787    2.794836   -4.146513
    117          1           0        8.962436    4.263973   -3.394823
    118          1           0       10.479089    1.802243   -4.129789
    119          1           0       10.333504    0.419988   -3.067235
    120          1           0       12.143980    2.385762   -1.900418
    121          1           0       12.652742    2.138736   -3.632950
    122          1           0       13.806783    0.346458   -3.273625
    123          1           0       12.307858   -0.400480   -3.025911
    124          1           0       13.586004    1.197377   -0.658893
    125          1           0       15.402843   -0.089406   -0.526680
    126          1           0       14.967859   -0.979839   -1.890688
    127          1           0       14.373777   -1.489912   -0.359901
    128          1           0       12.328496   -1.268624    0.252925
    129          1           0       11.322314   -0.352780   -0.909781
    130          1           0       10.929341    0.252977    1.305235
    131          1           0       11.576311    1.681901    0.543442
    132          1           0       13.117292    1.716279    2.031965
    133          1           0       13.580989    0.001409    1.812773
    134          1           0       11.254296    0.887583    3.630771
    135          1           0       14.173433    0.893492    4.219482
    136          1           0       13.002533    0.122902    5.350771
    137          1           0       12.704961    1.813161    4.785034
    138          1           0       12.886281   -1.747361    2.929925
    139          1           0       11.207121   -1.621037    3.115645
    140          1           0       12.219354   -1.799712    4.536990
 ---------------------------------------------------------------------

 SCF Done:  E(RwB97XD) =  -3007.82884487     A.U. after   19 cycles

 Excitation energies and oscillator strengths:

 Excited State   1:      Singlet-A      1.6012 eV  774.30 nm  f=0.3781  <S**2>=0.000
     245 -> 248        0.17719
     246 -> 247        0.68529
     245 <- 248        0.11625
 This state for optimization and/or second-order correction.
 Total Energy, E(TD-HF/TD-DFT) =  -3007.77000022
 Copying the excited state density for this state as the 1-particle RhoCI density.

 Excited State   2:      Singlet-A      2.1131 eV  586.73 nm  f=0.1724  <S**2>=0.000
     245 -> 247        0.65451
     246 -> 248       -0.25229

 Excited State   3:      Singlet-A      3.3054 eV  375.09 nm  f=0.0016  <S**2>=0.000
     243 -> 247        0.67993

 Excited State   4:      Singlet-A      3.4292 eV  361.56 nm  f=0.0066  <S**2>=0.000
     240 -> 247       -0.21173
     240 -> 249       -0.11962
     242 -> 247        0.61948
     246 -> 248        0.13825

 Excited State   5:      Singlet-A      3.4950 eV  354.75 nm  f=0.0034  <S**2>=0.000
     240 -> 247        0.55311
     240 -> 249        0.24913
     240 -> 250        0.15748
     242 -> 247        0.25197

 The electronic state is 1-A.
 Alpha  occ. eigenvalues --  -46.93205 -19.30485 -19.28649 -19.25853 -19.24015
 Alpha  occ. eigenvalues --  -19.23202 -19.23109 -14.46642 -14.46458 -14.44017
 Alpha  occ. eigenvalues --  -14.43576 -10.44066 -10.42459 -10.38326 -10.37901
 Alpha  occ. eigenvalues --  -10.35812 -10.35444 -10.34791 -10.34648 -10.34245
 Alpha  occ. eigenvalues --  -10.34186 -10.34082 -10.33663 -10.33542 -10.32565
 Alpha  occ. eigenvalues --  -10.32553 -10.32216 -10.32147 -10.31992 -10.31988
 Alpha  occ. eigenvalues --  -10.31901 -10.31719 -10.31563 -10.31380 -10.31277
 Alpha  occ. eigenvalues --  -10.31233 -10.31162 -10.30999 -10.30843 -10.30703
 Alpha  occ. eigenvalues --  -10.30392 -10.30314 -10.30015 -10.30006 -10.29925
 Alpha  occ. eigenvalues --  -10.29880 -10.29721 -10.29574 -10.29505 -10.29450
 Alpha  occ. eigenvalues --  -10.29404 -10.29373 -10.29148 -10.29144 -10.29109
 Alpha  occ. eigenvalues --  -10.29077 -10.28965 -10.28961 -10.28925 -10.28817
 Alpha  occ. eigenvalues --  -10.28353 -10.28335 -10.28258 -10.28045 -10.27838
 Alpha  occ. eigenvalues --  -10.27415  -3.19571  -1.93150  -1.92712  -1.92577
 Alpha  occ. eigenvalues --   -1.18293  -1.16468  -1.11828  -1.10802  -1.10421
 Alpha  occ. eigenvalues --   -1.08143  -1.07346  -1.05584  -1.04914  -1.03652
 Alpha  occ. eigenvalues --   -0.96056  -0.92140  -0.91661  -0.91237  -0.91022
 Alpha  occ. eigenvalues --   -0.90271  -0.90056  -0.89229  -0.88833  -0.88750
 Alpha  occ. eigenvalues --   -0.88316  -0.87183  -0.85981  -0.85200  -0.85137
 Alpha  occ. eigenvalues --   -0.84439  -0.83586  -0.82986  -0.82377  -0.81916
 Alpha  occ. eigenvalues --   -0.81846  -0.80341  -0.79808  -0.79270  -0.77960
 Alpha  occ. eigenvalues --   -0.77554  -0.77020  -0.76935  -0.76614  -0.76303
 Alpha  occ. eigenvalues --   -0.75339  -0.74689  -0.73213  -0.72632  -0.71001
 Alpha  occ. eigenvalues --   -0.70316  -0.69472  -0.69363  -0.68700  -0.67491
 Alpha  occ. eigenvalues --   -0.67256  -0.66683  -0.66271  -0.66085  -0.65968
 Alpha  occ. eigenvalues --   -0.65919  -0.64581  -0.63523  -0.63360  -0.62187
 Alpha  occ. eigenvalues --   -0.61791  -0.61564  -0.60799  -0.60449  -0.59851
 Alpha  occ. eigenvalues --   -0.59440  -0.58639  -0.57900  -0.57746  -0.56890
 Alpha  occ. eigenvalues --   -0.56755  -0.56653  -0.56555  -0.55932  -0.55686
 Alpha  occ. eigenvalues --   -0.55508  -0.55290  -0.54960  -0.54622  -0.54489
 Alpha  occ. eigenvalues --   -0.54285  -0.54240  -0.54002  -0.53949  -0.53529
 Alpha  occ. eigenvalues --   -0.53500  -0.53334  -0.52797  -0.52742  -0.52446
 Alpha  occ. eigenvalues --   -0.52167  -0.52048  -0.51857  -0.51799  -0.51369
 Alpha  occ. eigenvalues --   -0.51351  -0.51186  -0.50911  -0.50730  -0.50349
 Alpha  occ. eigenvalues --   -0.50251  -0.49932  -0.49740  -0.49612  -0.49534
 Alpha  occ. eigenvalues --   -0.49369  -0.49229  -0.49050  -0.48898  -0.48787
 Alpha  occ. eigenvalues --   -0.48383  -0.48033  -0.47890  -0.47792  -0.47704
 Alpha  occ. eigenvalues --   -0.47675  -0.47600  -0.47272  -0.46843  -0.46688
 Alpha  occ. eigenvalues --   -0.46532  -0.46216  -0.46100  -0.45771  -0.45331
 Alpha  occ. eigenvalues --   -0.45264  -0.45162  -0.44991  -0.44946  -0.44807
 Alpha  occ. eigenvalues --   -0.44683  -0.44562  -0.44309  -0.44212  -0.44134
 Alpha  occ. eigenvalues --   -0.43462  -0.43227  -0.43209  -0.43108  -0.42987
 Alpha  occ. eigenvalues --   -0.42746  -0.42624  -0.42513  -0.42181  -0.41968
 Alpha  occ. eigenvalues --   -0.41655  -0.41485  -0.41389  -0.41277  -0.40980
 Alpha  occ. eigenvalues --   -0.40097  -0.39907  -0.39587  -0.39508  -0.39135
 Alpha  occ. eigenvalues --   -0.38993  -0.38916  -0.38248  -0.38165  -0.37677
 Alpha  occ. eigenvalues --   -0.37465  -0.36636  -0.36561  -0.36415  -0.36231
 Alpha  occ. eigenvalues --   -0.35536  -0.35417  -0.34733  -0.33193  -0.32694
 Alpha  occ. eigenvalues --   -0.32520  -0.32039  -0.31862  -0.31271  -0.25736
 Alpha  occ. eigenvalues --   -0.23135
 Alpha virt. eigenvalues --   -0.07432   0.00540   0.02839   0.04250   0.05400
 Alpha virt. eigenvalues --    0.06297   0.07189   0.07497   0.08581   0.10125
 Alpha virt. eigenvalues --    0.11138   0.11481   0.11516   0.12271   0.12647

 Mulliken charges:
               1
     1  Mg   1.006903
     2  C    0.000195
     3  C   -0.082011
     4  C   -0.070272
     5  C   -0.110284
     6  N   -0.331440
     7  C   -0.030233
     8  C   -0.094876
     9  C   -0.118324
    10  C    0.070447
    11  C    0.023382
    12  C    0.066487
    13  C   -0.016838
    14  C    0.221892
    15  O   -0.258558
    16  O   -0.383458
    17  N   -0.453286
    18  C    0.170719
    19  C   -0.170002
    20  C   -0.053019
    21  C    0.146735
    22  C    0.070654
    23  C    0.025835
    24  O   -0.255716
    25  C   -0.009430
    26  N   -0.461225
    27  C    0.116005
    28  C   -0.088120
    29  C   -0.091702
    30  C    0.124856
    31  C    0.000047
    32  C   -0.051272
    33  C   -0.014691
    34  N   -0.435652
    35  C    0.128955
    36  C   -0.190201
    37  C   -0.060896
    38  C    0.170921
    39  C    0.077002
    40  C    0.095416
    41  O   -0.205823
    42  C   -0.055425
    43  C    0.258595
    44  O   -0.249501
    45  O   -0.382119
    46  C    0.145311
    47  C    0.292209
    48  C   -0.169789
    49  C   -0.231809
    50  C    0.008197
    51  C    0.010957
    52  C    0.009343
    53  C   -0.007004
    54  C   -0.200487
    55  C    0.016883
    56  C    0.024102
    57  C   -0.026965
    58  C   -0.010507
    59  C   -0.183904
    60  C    0.006585
    61  C    0.040393
    62  C   -0.081830
    63  C    0.032517
    64  C   -0.211985
    65  C   -0.000604
    66  C   -0.033129
    67  H   -0.003400
    68  H    0.025761
    69  H    0.011846
    70  H    0.072693
    71  H    0.028533
    72  H    0.062844
    73  H    0.033892
    74  H    0.030589
    75  H    0.048804
    76  H    0.040364
    77  H    0.041793
    78  H    0.068129
    79  H    0.051622
    80  H    0.047902
    81  H    0.029219
    82  H    0.066644
    83  H    0.043474
    84  H    0.039035
    85  H    0.048813
    86  H    0.025850
    87  H    0.048497
    88  H    0.036338
    89  H    0.048345
    90  H    0.031446
    91  H    0.026626
    92  H    0.035232
    93  H    0.047837
    94  H    0.025790
    95  H    0.039461
    96  H    0.070696
    97  H    0.045071
    98  H    0.064957
    99  H    0.080297
   100  H    0.053259
   101  H    0.056433
   102  H    0.062159
   103  H    0.055623
   104  H    0.029729
   105  H    0.069445
   106  H    0.020475
   107  H    0.035554
   108  H    0.030042
   109  H    0.022940
   110  H    0.031840
   111  H    0.026930
   112  H    0.006982
   113  H    0.011379
   114  H    0.013702
   115  H    0.022404
   116  H    0.031107
   117  H    0.022012
   118  H    0.007181
   119  H    0.028859
   120  H    0.027579
   121  H    0.035202
   122  H    0.018742
   123  H    0.015579
   124  H    0.026379
   125  H    0.023181
   126  H    0.010181
   127  H    0.014713
   128  H    0.023209
   129  H   -0.006980
   130  H    0.013208
   131  H    0.030505
   132  H    0.012517
   133  H    0.013181
   134  H    0.028690
   135  H    0.037067
   136  H    0.024768
   137  H    0.027846
   138  H    0.024561
   139  H    0.023712
   140  H    0.043946
 Sum of Mulliken charges =  -0.00000

 Dipole moment (field-independent basis, Debye):
    X=              3.0941    Y=              2.8332    Z=             -3.1147  Tot=              5.2251
 Quadrupole moment (field-independent basis, Debye-Ang):
   XX=           -376.7294   YY=           -414.0795   ZZ=           -403.0985
   XY=             14.1976   XZ=             16.4662   YZ=              1.2244

 Normal termination of Gaussian 16 at Tue Apr 26 20:50:30 2022.
