 Gaussian 16, Revision A.03,
 Gaussian 16:  ES64L-G16RevA.03 25-Dec-2016

 --------------------
 #p ZINDO=(nstates=5)
 --------------------

 ------------------------------
 step_1001_chromophore_19 ZINDO
 ------------------------------
 Symbolic Z-matrix:
 Charge =  0 Multiplicity = 1

                         Standard orientation:
 ---------------------------------------------------------------------
 Center     Atomic      Atomic             Coordinates (Angstroms)
 Number     Number       Type             X           Y           Z
 ---------------------------------------------------------------------
      1         12           0       -5.893823    0.338912   -0.228792
      2          6           0       -3.406325   -2.160034   -0.248194
      3          6           0       -3.263134    2.661088   -0.093938
      4          6           0       -8.148174    2.659897    0.610815
      5          6           0       -8.283481   -2.083769   -0.441010
      6          7           0       -3.625630    0.177133   -0.097156
      7          6           0       -2.861135   -0.914165   -0.178305
      8          6           0       -1.387761   -0.569129   -0.147338
      9          6           0       -1.399871    0.988062    0.054011
     10          6           0       -2.828042    1.333221   -0.186557
     11          6           0       -0.963574    1.470951    1.513154
     12          6           0       -0.635401   -0.983437   -1.473049
     13          6           0        0.556070   -1.928628   -1.306403
     14          6           0        1.464266   -1.794413   -0.084005
     15          8           0        1.344909   -2.395927    0.977692
     16          8           0        2.665483   -1.159108   -0.447672
     17          7           0       -5.731176    2.347633    0.251876
     18          6           0       -4.602549    3.140638    0.173326
     19          6           0       -4.988786    4.489712    0.280627
     20          6           0       -6.372536    4.541067    0.582404
     21          6           0       -6.810222    3.126875    0.534154
     22          6           0       -3.946049    5.625275    0.249579
     23          6           0       -7.173474    5.756570    0.762886
     24          8           0       -8.403292    5.709718    0.909674
     25          6           0       -6.485862    7.096519    0.994946
     26          7           0       -7.843236    0.313761    0.065727
     27          6           0       -8.620027    1.390181    0.411710
     28          6           0      -10.209775    1.170041    0.329705
     29          6           0      -10.178333   -0.307853   -0.221888
     30          6           0       -8.727912   -0.730531   -0.330668
     31          6           0      -10.927221    1.290508    1.745587
     32          6           0      -10.780569   -0.557028   -1.636864
     33          6           0      -12.276373   -0.469278   -1.643605
     34          7           0       -5.896228   -1.649172   -0.480607
     35          6           0       -6.918099   -2.534067   -0.457278
     36          6           0       -6.490031   -3.866735   -0.741503
     37          6           0       -5.062422   -3.743591   -0.622163
     38          6           0       -4.799103   -2.381552   -0.395964
     39          6           0       -7.338274   -5.066623   -0.916948
     40          6           0       -3.814232   -4.476345   -0.525542
     41          8           0       -3.583262   -5.672657   -0.477831
     42          6           0       -2.765690   -3.462668   -0.334867
     43          6           0       -2.028014   -3.824375    0.971690
     44          8           0       -2.367687   -3.619390    2.130371
     45          8           0       -0.889698   -4.514133    0.623126
     46          6           0       -0.209196   -5.276481    1.735398
     47          6           0        3.719535   -1.113603    0.539031
     48          6           0        4.954414   -0.870821   -0.253628
     49          6           0        6.171707   -0.473441    0.252119
     50          6           0        6.597438   -0.526659    1.754813
     51          6           0        7.338795   -0.396827   -0.811504
     52          6           0        7.538631    0.937009   -1.533194
     53          6           0        8.829402    1.753265   -1.130763
     54          6           0        9.571059    2.475401   -2.356468
     55          6           0        8.594244    3.260299   -3.178456
     56          6           0       10.599505    1.476766   -3.096140
     57          6           0       12.059187    1.770246   -2.795569
     58          6           0       12.917754    0.419911   -2.646250
     59          6           0       13.309099    0.256030   -1.134105
     60          6           0       14.542694   -0.597470   -0.962037
     61          6           0       12.178544   -0.306579   -0.236013
     62          6           0       11.834491    0.674076    0.868198
     63          6           0       12.760066    0.687456    2.020404
     64          6           0       12.162495    0.323336    3.419410
     65          6           0       13.133032    0.841491    4.540600
     66          6           0       12.137909   -1.290266    3.576946
     67          1           0       -2.430433    3.363277   -0.175002
     68          1           0       -8.891706    3.452510    0.718804
     69          1           0       -9.041290   -2.868975   -0.486244
     70          1           0       -1.045437   -1.155908    0.705292
     71          1           0       -0.683075    1.468141   -0.611680
     72          1           0       -1.772545    1.465686    2.244621
     73          1           0       -0.357961    2.375781    1.456526
     74          1           0       -0.233816    0.725532    1.828009
     75          1           0       -0.258481   -0.143631   -2.055949
     76          1           0       -1.421723   -1.505703   -2.018446
     77          1           0        1.217245   -1.846237   -2.169000
     78          1           0        0.426467   -3.004695   -1.422610
     79          1           0       -3.863643    6.143814    1.204207
     80          1           0       -4.248568    6.293442   -0.557188
     81          1           0       -2.917740    5.320202    0.053463
     82          1           0       -5.894420    7.058007    1.909049
     83          1           0       -7.270781    7.850840    1.048993
     84          1           0       -5.915565    7.483946    0.150250
     85          1           0      -10.819618    1.796317   -0.322418
     86          1           0      -10.794834   -0.990408    0.362760
     87          1           0      -10.259410    1.042483    2.571426
     88          1           0      -11.799931    0.642658    1.655837
     89          1           0      -11.251298    2.308255    1.960071
     90          1           0      -10.411101   -1.527622   -1.966701
     91          1           0      -10.316223    0.222936   -2.239246
     92          1           0      -12.590589    0.309104   -2.338793
     93          1           0      -12.852983   -0.484424   -0.718847
     94          1           0      -12.528296   -1.360240   -2.220099
     95          1           0       -8.141872   -4.729925   -1.572150
     96          1           0       -7.554292   -5.526479    0.046813
     97          1           0       -6.866144   -5.873682   -1.477520
     98          1           0       -2.034340   -3.657394   -1.118691
     99          1           0        0.368885   -4.567914    2.328509
    100          1           0        0.334934   -6.086154    1.250021
    101          1           0       -1.009641   -5.770310    2.286810
    102          1           0        3.906917   -2.065021    1.038459
    103          1           0        3.654535   -0.289082    1.249023
    104          1           0        4.936568   -0.929246   -1.341735
    105          1           0        7.029126   -1.490160    2.027762
    106          1           0        5.762985   -0.280311    2.412102
    107          1           0        7.236125    0.312117    2.027236
    108          1           0        7.008123   -1.158491   -1.517878
    109          1           0        8.204100   -0.680334   -0.212060
    110          1           0        6.637725    1.542911   -1.439236
    111          1           0        7.688454    0.586209   -2.555019
    112          1           0        9.517539    1.215187   -0.479007
    113          1           0        8.575397    2.646464   -0.561410
    114          1           0       10.184374    3.278707   -1.950153
    115          1           0        7.715862    3.480332   -2.570743
    116          1           0        8.408787    2.794836   -4.146513
    117          1           0        8.962436    4.263973   -3.394823
    118          1           0       10.479089    1.802243   -4.129789
    119          1           0       10.333504    0.419988   -3.067235
    120          1           0       12.143980    2.385762   -1.900418
    121          1           0       12.652742    2.138736   -3.632950
    122          1           0       13.806783    0.346458   -3.273625
    123          1           0       12.307858   -0.400480   -3.025911
    124          1           0       13.586004    1.197377   -0.658893
    125          1           0       15.402843   -0.089406   -0.526680
    126          1           0       14.967859   -0.979839   -1.890688
    127          1           0       14.373777   -1.489912   -0.359901
    128          1           0       12.328496   -1.268624    0.252925
    129          1           0       11.322314   -0.352780   -0.909781
    130          1           0       10.929341    0.252977    1.305235
    131          1           0       11.576311    1.681901    0.543442
    132          1           0       13.117292    1.716279    2.031965
    133          1           0       13.580989    0.001409    1.812773
    134          1           0       11.254296    0.887583    3.630771
    135          1           0       14.173433    0.893492    4.219482
    136          1           0       13.002533    0.122902    5.350771
    137          1           0       12.704961    1.813161    4.785034
    138          1           0       12.886281   -1.747361    2.929925
    139          1           0       11.207121   -1.621037    3.115645
    140          1           0       12.219354   -1.799712    4.536990
 ---------------------------------------------------------------------

 SCF Done:  E(RZINDO/S) =  -474.257427237     A.U. after   20 cycles

 Excitation energies and oscillator strengths:

 Excited State   1:      Singlet-A      1.2094 eV 1025.21 nm  f=0.6149  <S**2>=0.000
     175 ->178        -0.18690
     176 ->177         0.66426
 This state for optimization and/or second-order correction.
 Total Energy, E(CIS/TDA) =  -474.212984261
 Copying the excited state density for this state as the 1-particle RhoCI density.

 Excited State   2:      Singlet-A      1.8647 eV  664.91 nm  f=0.1286  <S**2>=0.000
     175 ->177         0.59067
     176 ->178         0.36074

 Excited State   3:      Singlet-A      2.8884 eV  429.25 nm  f=0.0028  <S**2>=0.000
     168 ->177         0.35062
     168 ->179        -0.38140
     168 ->181         0.24017
     168 ->186        -0.15957
     168 ->187         0.12577
     169 ->177         0.10337
     170 ->177         0.10415
     172 ->177         0.10624

 Excited State   4:      Singlet-A      2.9143 eV  425.43 nm  f=0.0005  <S**2>=0.000
     168 ->177        -0.10894
     168 ->181        -0.11688
     169 ->177         0.29897
     169 ->178         0.16879
     169 ->179         0.32240
     169 ->181         0.36693
     169 ->186         0.20716
     169 ->187         0.12633

 Excited State   5:      Singlet-A      3.0320 eV  408.92 nm  f=0.0729  <S**2>=0.000
     171 ->177         0.27333
     172 ->177         0.53087
     173 ->177         0.20553
     176 ->178        -0.18893

 The electronic state is 1-A.
 Alpha  occ. eigenvalues --   -1.88129  -1.80947  -1.79706  -1.72440  -1.72331
 Alpha  occ. eigenvalues --   -1.70314  -1.67106  -1.60249  -1.59234  -1.57725
 Alpha  occ. eigenvalues --   -1.53756  -1.51079  -1.49509  -1.49135  -1.46976
 Alpha  occ. eigenvalues --   -1.43505  -1.42917  -1.39726  -1.38859  -1.38790
 Alpha  occ. eigenvalues --   -1.36208  -1.35022  -1.32520  -1.31314  -1.29189
 Alpha  occ. eigenvalues --   -1.28346  -1.24105  -1.21539  -1.20127  -1.18388
 Alpha  occ. eigenvalues --   -1.17510  -1.15601  -1.14738  -1.14591  -1.13927
 Alpha  occ. eigenvalues --   -1.12503  -1.11650  -1.10803  -1.05013  -1.03197
 Alpha  occ. eigenvalues --   -1.02755  -1.01605  -0.99296  -0.98414  -0.95471
 Alpha  occ. eigenvalues --   -0.95312  -0.94698  -0.93648  -0.92428  -0.92008
 Alpha  occ. eigenvalues --   -0.90686  -0.90248  -0.88351  -0.88080  -0.86165
 Alpha  occ. eigenvalues --   -0.85712  -0.84417  -0.83012  -0.81910  -0.80892
 Alpha  occ. eigenvalues --   -0.78527  -0.77962  -0.77206  -0.77008  -0.75768
 Alpha  occ. eigenvalues --   -0.75673  -0.75396  -0.74844  -0.74096  -0.72907
 Alpha  occ. eigenvalues --   -0.72328  -0.72057  -0.71297  -0.70910  -0.70320
 Alpha  occ. eigenvalues --   -0.69849  -0.69497  -0.68750  -0.68057  -0.67850
 Alpha  occ. eigenvalues --   -0.67587  -0.67085  -0.66943  -0.66538  -0.65483
 Alpha  occ. eigenvalues --   -0.65269  -0.65087  -0.64751  -0.64189  -0.63419
 Alpha  occ. eigenvalues --   -0.63007  -0.62962  -0.62208  -0.62006  -0.61602
 Alpha  occ. eigenvalues --   -0.61036  -0.60968  -0.60586  -0.60453  -0.59705
 Alpha  occ. eigenvalues --   -0.59466  -0.59342  -0.59082  -0.58485  -0.58158
 Alpha  occ. eigenvalues --   -0.57443  -0.57163  -0.57006  -0.56556  -0.56296
 Alpha  occ. eigenvalues --   -0.56106  -0.55982  -0.55259  -0.55198  -0.54741
 Alpha  occ. eigenvalues --   -0.54708  -0.54549  -0.53404  -0.52931  -0.52903
 Alpha  occ. eigenvalues --   -0.52545  -0.52027  -0.51833  -0.51776  -0.51197
 Alpha  occ. eigenvalues --   -0.50800  -0.50746  -0.50345  -0.50208  -0.49840
 Alpha  occ. eigenvalues --   -0.49715  -0.49603  -0.49169  -0.48788  -0.48682
 Alpha  occ. eigenvalues --   -0.48609  -0.48022  -0.47984  -0.47947  -0.47759
 Alpha  occ. eigenvalues --   -0.47572  -0.47356  -0.47055  -0.46419  -0.46349
 Alpha  occ. eigenvalues --   -0.46007  -0.45927  -0.45607  -0.45515  -0.45315
 Alpha  occ. eigenvalues --   -0.45068  -0.44876  -0.44081  -0.43981  -0.43448
 Alpha  occ. eigenvalues --   -0.43270  -0.43089  -0.42916  -0.42494  -0.41968
 Alpha  occ. eigenvalues --   -0.41747  -0.41289  -0.41009  -0.39383  -0.38495
 Alpha  occ. eigenvalues --   -0.37820  -0.37167  -0.34973  -0.34779  -0.34302
 Alpha  occ. eigenvalues --   -0.32981  -0.32600  -0.32241  -0.31612  -0.26506
 Alpha  occ. eigenvalues --   -0.22125
 Alpha virt. eigenvalues --   -0.09149  -0.01749  -0.00407   0.00864   0.01100
 Alpha virt. eigenvalues --    0.02504   0.03019   0.03309   0.04164   0.05219
 Alpha virt. eigenvalues --    0.06270   0.07437   0.07854   0.08020   0.08303

 Mulliken charges:
               1
     1  Mg   0.423755
     2  C   -0.042256
     3  C   -0.071383
     4  C   -0.052956
     5  C   -0.073026
     6  N   -0.296336
     7  C    0.152192
     8  C   -0.002584
     9  C    0.005823
    10  C    0.107711
    11  C   -0.054366
    12  C   -0.017192
    13  C    0.001406
    14  C    0.459791
    15  O   -0.501187
    16  O   -0.277449
    17  N   -0.313863
    18  C    0.093151
    19  C    0.002927
    20  C   -0.051768
    21  C    0.139191
    22  C   -0.049551
    23  C    0.325766
    24  O   -0.538737
    25  C   -0.034180
    26  N   -0.272324
    27  C    0.129360
    28  C   -0.007405
    29  C   -0.001771
    30  C    0.118895
    31  C   -0.055142
    32  C   -0.025063
    33  C   -0.061011
    34  N   -0.307778
    35  C    0.109506
    36  C    0.037380
    37  C   -0.070561
    38  C    0.129606
    39  C   -0.036038
    40  C    0.342948
    41  O   -0.527729
    42  C    0.066768
    43  C    0.487087
    44  O   -0.519123
    45  O   -0.282219
    46  C    0.073315
    47  C    0.112312
    48  C   -0.077551
    49  C   -0.054740
    50  C   -0.045296
    51  C   -0.033150
    52  C   -0.025804
    53  C   -0.045131
    54  C   -0.019953
    55  C   -0.050387
    56  C   -0.036747
    57  C   -0.042821
    58  C   -0.043187
    59  C   -0.008354
    60  C   -0.061330
    61  C   -0.032601
    62  C   -0.035337
    63  C   -0.028110
    64  C   -0.020573
    65  C   -0.069954
    66  C   -0.063640
    67  H    0.030814
    68  H    0.048145
    69  H    0.029239
    70  H    0.053433
    71  H    0.025815
    72  H    0.040203
    73  H    0.023975
    74  H    0.012965
    75  H    0.033231
    76  H    0.024078
    77  H    0.022867
    78  H    0.049245
    79  H    0.029258
    80  H    0.027965
    81  H    0.019969
    82  H    0.043357
    83  H    0.028707
    84  H    0.033215
    85  H    0.044055
    86  H    0.029933
    87  H    0.028303
    88  H    0.020892
    89  H    0.023808
    90  H    0.024022
    91  H    0.020494
    92  H    0.019511
    93  H    0.034848
    94  H    0.007704
    95  H    0.028563
    96  H    0.048660
    97  H    0.026805
    98  H    0.058458
    99  H    0.060494
   100  H    0.035376
   101  H    0.045850
   102  H    0.061158
   103  H    0.055330
   104  H    0.039098
   105  H    0.039066
   106  H    0.015277
   107  H    0.022077
   108  H    0.026290
   109  H    0.024821
   110  H    0.030668
   111  H    0.018623
   112  H    0.028015
   113  H    0.009105
   114  H    0.013921
   115  H    0.020772
   116  H    0.022905
   117  H    0.009188
   118  H    0.007836
   119  H    0.035037
   120  H    0.030719
   121  H    0.024910
   122  H    0.020036
   123  H    0.019748
   124  H    0.023968
   125  H    0.012171
   126  H    0.009454
   127  H    0.014113
   128  H    0.031147
   129  H    0.009296
   130  H   -0.000168
   131  H    0.022766
   132  H    0.010381
   133  H    0.022906
   134  H    0.035496
   135  H    0.026430
   136  H    0.019574
   137  H    0.017312
   138  H    0.018477
   139  H    0.005942
   140  H    0.030654
 Sum of Mulliken charges =  -0.00000

 Dipole moment (field-independent basis, Debye):
    X=              3.7058    Y=              3.1309    Z=             -5.4084  Tot=              7.2655
 N-N= 4.314378332625D+03 E-N= 0.000000000000D+00  KE=-9.303376865987D+03
 Leave Link  601 at Tue Apr 26 21:04:56 2022, MaxMem=  6710886400 cpu:               0.8 elap:               0.0
 (Enter /sw/apps/gaussian-16.0/g16/l9999.exe)
 1\1\GINC-BP1-COMPUTE148\SP\RZINDO CIS\STO-3G\C55H74Mg1N4O6\OF15641\26-
 Apr-2022\0\\#p ZINDO=(nstates=5)\\step_1001_chromophore_19 ZINDO\\0,1\
 Mg,0,25.221,50.407,26.214\C,0,23.409,51.524,29.025\C,0,27.409,48.877,2
 8.495\C,0,27.387,50.03,23.696\C,0,22.928,51.903,24.182\N,0,25.367,50.3
 37,28.486\C,0,24.505,50.804,29.392\C,0,24.932,50.457,30.802\C,0,26.307
 ,49.732,30.58\C,0,26.32,49.509,29.108\C,0,27.585,50.589,31.01\C,0,23.8
 92,49.528,31.544\C,0,23.33,50.062,32.863\C,0,24.23,50.87,33.798\O,0,24

 Normal termination of Gaussian 16 at Tue Apr 26 21:04:56 2022.
