 Gaussian 16, Revision A.03,
 Gaussian 16:  ES64L-G16RevA.03 25-Dec-2016

 ------------------------------
 #p blyp/Def2SVP td=(nstates=5)
 ------------------------------

 --------------------------------------------------
 step_1851_chromophore_6 TDDFT with blyp functional
 --------------------------------------------------
 Symbolic Z-matrix:
 Charge =  0 Multiplicity = 1

                         Standard orientation:
 ---------------------------------------------------------------------
 Center     Atomic      Atomic             Coordinates (Angstroms)
 Number     Number       Type             X           Y           Z
 ---------------------------------------------------------------------
      1         12           0       -5.237449    0.992824   -0.528785
      2          6           0       -3.971767   -2.248410   -0.370011
      3          6           0       -1.884659    2.134423   -0.314904
      4          6           0       -6.205444    4.185274    0.352283
      5          6           0       -8.452492   -0.268204    0.339058
      6          7           0       -3.229354    0.067273   -0.331714
      7          6           0       -2.975373   -1.262334   -0.367131
      8          6           0       -1.521716   -1.584924   -0.394807
      9          6           0       -0.818375   -0.182053   -0.126337
     10          6           0       -2.030229    0.767719   -0.286625
     11          6           0       -0.080678   -0.074568    1.285833
     12          6           0       -1.170761   -2.288556   -1.782093
     13          6           0       -0.196894   -3.505110   -1.736190
     14          6           0        0.737571   -3.712895   -0.540630
     15          8           0        0.662883   -4.619172    0.278523
     16          8           0        1.653881   -2.715422   -0.447629
     17          7           0       -4.208459    2.990681   -0.433503
     18          6           0       -2.853602    3.168659   -0.426306
     19          6           0       -2.637719    4.644403   -0.436030
     20          6           0       -3.974637    5.287552   -0.340561
     21          6           0       -4.894735    4.123170   -0.169971
     22          6           0       -1.256668    5.266437   -0.580521
     23          6           0       -4.456893    6.736736   -0.378322
     24          8           0       -5.650540    7.095824   -0.418703
     25          6           0       -3.427745    7.824658   -0.402191
     26          7           0       -7.034265    1.802783    0.329481
     27          6           0       -7.177526    3.187662    0.542093
     28          6           0       -8.554720    3.493036    0.915647
     29          6           0       -9.355512    2.169105    0.597189
     30          6           0       -8.239399    1.116477    0.405681
     31          6           0       -8.711947    3.986864    2.350365
     32          6           0      -10.296310    2.146096   -0.614592
     33          6           0      -11.540078    1.289277   -0.328091
     34          7           0       -6.107739   -0.861902   -0.319185
     35          6           0       -7.446622   -1.188052   -0.028115
     36          6           0       -7.562593   -2.670869   -0.160446
     37          6           0       -6.194588   -3.080869   -0.227216
     38          6           0       -5.361968   -1.960807   -0.374819
     39          6           0       -8.760249   -3.651735   -0.155495
     40          6           0       -5.391558   -4.289662   -0.346599
     41          8           0       -5.750140   -5.477873   -0.311486
     42          6           0       -3.914858   -3.783325   -0.452226
     43          6           0       -3.069679   -4.490460    0.648591
     44          8           0       -2.663264   -4.001496    1.658256
     45          8           0       -2.697332   -5.734937    0.146622
     46          6           0       -1.848819   -6.504056    1.049131
     47          6           0        2.485897   -2.675314    0.788470
     48          6           0        3.624491   -3.611217    0.829651
     49          6           0        4.833033   -3.410649    1.408948
     50          6           0        5.157470   -2.189913    2.267059
     51          6           0        6.098327   -4.270033    1.158125
     52          6           0        6.813092   -4.073107   -0.192913
     53          6           0        8.023882   -3.089116   -0.187487
     54          6           0        8.005721   -2.049392   -1.259252
     55          6           0        7.923320   -2.768518   -2.660266
     56          6           0        9.218132   -1.132648   -1.146489
     57          6           0        9.003054   -0.004506   -0.039201
     58          6           0        9.179012    1.450490   -0.587059
     59          6           0       10.240512    2.397261    0.175482
     60          6           0        9.656901    3.807917    0.294856
     61          6           0       11.582500    2.314436   -0.664568
     62          6           0       12.737917    1.716627    0.185552
     63          6           0       13.678085    2.668381    0.995512
     64          6           0       14.986086    3.002230    0.230510
     65          6           0       15.119121    4.501933    0.227946
     66          6           0       16.262479    2.234641    0.743351
     67          1           0       -0.868834    2.462155   -0.085601
     68          1           0       -6.721358    5.129279    0.534637
     69          1           0       -9.505452   -0.557737    0.338735
     70          1           0       -1.332801   -2.297741    0.407273
     71          1           0       -0.063514    0.112154   -0.855938
     72          1           0       -0.079451   -1.059398    1.753321
     73          1           0       -0.626959    0.614242    1.930285
     74          1           0        0.939488    0.291377    1.166082
     75          1           0       -0.807916   -1.450867   -2.377841
     76          1           0       -2.047501   -2.635849   -2.328100
     77          1           0        0.475557   -3.460894   -2.592893
     78          1           0       -0.814405   -4.397372   -1.837149
     79          1           0       -1.087644    5.736753    0.387170
     80          1           0       -1.236548    5.869301   -1.488977
     81          1           0       -0.514734    4.474035   -0.683541
     82          1           0       -2.857408    7.677806    0.514152
     83          1           0       -4.004165    8.748449   -0.348676
     84          1           0       -2.779980    7.819500   -1.279458
     85          1           0       -8.804154    4.279698    0.203089
     86          1           0       -9.884468    1.829765    1.487982
     87          1           0       -7.785036    4.374143    2.775347
     88          1           0       -9.077442    3.174384    2.978586
     89          1           0       -9.344003    4.870919    2.266666
     90          1           0       -9.784348    1.728543   -1.481168
     91          1           0      -10.526534    3.198145   -0.783780
     92          1           0      -11.429484    0.368827   -0.902121
     93          1           0      -12.501724    1.740228   -0.572703
     94          1           0      -11.649198    0.976107    0.710390
     95          1           0       -9.589639   -3.124991    0.316885
     96          1           0       -8.486462   -4.589512    0.328841
     97          1           0       -9.115472   -3.859301   -1.164299
     98          1           0       -3.631079   -4.090063   -1.459510
     99          1           0       -1.507489   -7.462226    0.657047
    100          1           0       -2.381793   -6.686610    1.982481
    101          1           0       -0.885447   -6.069045    1.315591
    102          1           0        1.933751   -2.933794    1.692448
    103          1           0        2.877389   -1.663039    0.895363
    104          1           0        3.631254   -4.462993    0.150507
    105          1           0        6.019161   -1.716536    1.796826
    106          1           0        5.530364   -2.610002    3.201379
    107          1           0        4.269930   -1.602152    2.501632
    108          1           0        5.818583   -5.314793    1.291526
    109          1           0        6.858899   -4.221878    1.937222
    110          1           0        5.980719   -3.738667   -0.811663
    111          1           0        7.239162   -5.024431   -0.512291
    112          1           0        8.899554   -3.719368   -0.346252
    113          1           0        8.151906   -2.674776    0.812246
    114          1           0        7.063260   -1.551660   -1.030962
    115          1           0        6.881213   -2.836524   -2.970869
    116          1           0        8.609135   -3.616009   -2.641553
    117          1           0        8.384529   -2.018910   -3.303004
    118          1           0        9.541712   -0.797914   -2.132196
    119          1           0       10.045354   -1.767018   -0.825365
    120          1           0        9.688190   -0.135782    0.798170
    121          1           0        8.026484   -0.058157    0.442388
    122          1           0        8.209812    1.948467   -0.572639
    123          1           0        9.445930    1.587071   -1.634754
    124          1           0       10.405492    2.041468    1.192278
    125          1           0        9.360049    3.998980    1.326357
    126          1           0        8.841075    3.955842   -0.412377
    127          1           0       10.256068    4.656949   -0.036632
    128          1           0       11.858227    3.306147   -1.022813
    129          1           0       11.546880    1.669438   -1.542953
    130          1           0       13.243599    1.033414   -0.496984
    131          1           0       12.268028    1.137856    0.981783
    132          1           0       13.924734    2.266809    1.978909
    133          1           0       13.054181    3.539825    1.194464
    134          1           0       14.721861    2.774779   -0.802393
    135          1           0       16.157596    4.816663    0.121455
    136          1           0       14.706933    4.867131    1.169022
    137          1           0       14.679573    5.030729   -0.616792
    138          1           0       16.067438    1.471884    1.497191
    139          1           0       17.005584    2.933197    1.126051
    140          1           0       16.799275    1.811446   -0.105549
 ---------------------------------------------------------------------

 SCF Done:  E(RB-LYP) =  -3007.37675002     A.U. after   22 cycles

 Excitation energies and oscillator strengths:

 Excited State   1:      Singlet-A      1.7690 eV  700.86 nm  f=0.3249  <S**2>=0.000
     245 -> 248       -0.16449
     246 -> 247        0.69228
     246 <- 247       -0.16170
 This state for optimization and/or second-order correction.
 Total Energy, E(TD-HF/TD-DFT) =  -3007.31173936
 Copying the excited state density for this state as the 1-particle RhoCI density.

 Excited State   2:      Singlet-A      1.8533 eV  668.98 nm  f=0.0114  <S**2>=0.000
     243 -> 247       -0.35769
     244 -> 247        0.48453
     245 -> 247        0.35835

 Excited State   3:      Singlet-A      1.8838 eV  658.18 nm  f=0.0072  <S**2>=0.000
     243 -> 247        0.54315
     244 -> 247        0.44225

 Excited State   4:      Singlet-A      2.0177 eV  614.47 nm  f=0.0462  <S**2>=0.000
     242 -> 247        0.13299
     243 -> 247        0.26551
     244 -> 247       -0.25240
     245 -> 247        0.53527
     246 -> 248        0.20657
     246 -> 249       -0.10668

 Excited State   5:      Singlet-A      2.3545 eV  526.58 nm  f=0.0001  <S**2>=0.000
     240 -> 247        0.70691

 The electronic state is 1-A.
 Alpha  occ. eigenvalues --  -46.27735 -18.83161 -18.81153 -18.77341 -18.77130
 Alpha  occ. eigenvalues --  -18.75375 -18.75286 -14.03429 -14.02717 -14.00947
 Alpha  occ. eigenvalues --  -14.00856 -10.04791 -10.03795  -9.99695  -9.99219
 Alpha  occ. eigenvalues --   -9.98767  -9.96479  -9.96440  -9.96401  -9.96399
 Alpha  occ. eigenvalues --   -9.96054  -9.95938  -9.95885  -9.95421  -9.94684
 Alpha  occ. eigenvalues --   -9.94502  -9.94347  -9.94323  -9.94214  -9.94143
 Alpha  occ. eigenvalues --   -9.94041  -9.93939  -9.93523  -9.93392  -9.93300
 Alpha  occ. eigenvalues --   -9.93272  -9.93216  -9.93092  -9.93044  -9.92950
 Alpha  occ. eigenvalues --   -9.92886  -9.92648  -9.92550  -9.92535  -9.92427
 Alpha  occ. eigenvalues --   -9.92225  -9.92202  -9.92134  -9.92113  -9.92083
 Alpha  occ. eigenvalues --   -9.91809  -9.91789  -9.91711  -9.91683  -9.91603
 Alpha  occ. eigenvalues --   -9.91478  -9.91370  -9.91243  -9.91211  -9.91200
 Alpha  occ. eigenvalues --   -9.91013  -9.90945  -9.90829  -9.90820  -9.90510
 Alpha  occ. eigenvalues --   -9.90324  -2.92185  -1.72587  -1.72065  -1.71909
 Alpha  occ. eigenvalues --   -0.98604  -0.97296  -0.90207  -0.90158  -0.90025
 Alpha  occ. eigenvalues --   -0.89861  -0.86150  -0.85232  -0.84849  -0.83937
 Alpha  occ. eigenvalues --   -0.74954  -0.73989  -0.72958  -0.72306  -0.72099
 Alpha  occ. eigenvalues --   -0.72009  -0.71870  -0.71053  -0.70714  -0.69504
 Alpha  occ. eigenvalues --   -0.69131  -0.68907  -0.68008  -0.67483  -0.66887
 Alpha  occ. eigenvalues --   -0.66348  -0.65571  -0.65224  -0.64460  -0.64206
 Alpha  occ. eigenvalues --   -0.64089  -0.62291  -0.62107  -0.61229  -0.60567
 Alpha  occ. eigenvalues --   -0.60298  -0.60091  -0.59751  -0.59645  -0.59193
 Alpha  occ. eigenvalues --   -0.58762  -0.57772  -0.56852  -0.56093  -0.54580
 Alpha  occ. eigenvalues --   -0.54013  -0.53422  -0.52671  -0.52270  -0.51406
 Alpha  occ. eigenvalues --   -0.51259  -0.51079  -0.50719  -0.50367  -0.50333
 Alpha  occ. eigenvalues --   -0.50026  -0.49316  -0.48734  -0.47983  -0.46488
 Alpha  occ. eigenvalues --   -0.45778  -0.45467  -0.45303  -0.44984  -0.44141
 Alpha  occ. eigenvalues --   -0.43871  -0.43698  -0.42682  -0.42540  -0.42304
 Alpha  occ. eigenvalues --   -0.41963  -0.41580  -0.41169  -0.41137  -0.40864
 Alpha  occ. eigenvalues --   -0.40725  -0.40309  -0.39951  -0.39915  -0.39809
 Alpha  occ. eigenvalues --   -0.39673  -0.39527  -0.39507  -0.39176  -0.39015
 Alpha  occ. eigenvalues --   -0.38980  -0.38938  -0.38578  -0.38167  -0.38073
 Alpha  occ. eigenvalues --   -0.37925  -0.37793  -0.37592  -0.37498  -0.37111
 Alpha  occ. eigenvalues --   -0.37068  -0.36883  -0.36789  -0.36624  -0.36489
 Alpha  occ. eigenvalues --   -0.36300  -0.35893  -0.35839  -0.35708  -0.35601
 Alpha  occ. eigenvalues --   -0.35426  -0.35241  -0.34959  -0.34735  -0.34672
 Alpha  occ. eigenvalues --   -0.34434  -0.34346  -0.34261  -0.33967  -0.33796
 Alpha  occ. eigenvalues --   -0.33612  -0.33382  -0.33279  -0.33248  -0.33098
 Alpha  occ. eigenvalues --   -0.32996  -0.32876  -0.32755  -0.32574  -0.32521
 Alpha  occ. eigenvalues --   -0.32241  -0.31748  -0.31572  -0.31531  -0.31280
 Alpha  occ. eigenvalues --   -0.31171  -0.31039  -0.30942  -0.30795  -0.30786
 Alpha  occ. eigenvalues --   -0.30475  -0.30193  -0.30094  -0.29886  -0.29632
 Alpha  occ. eigenvalues --   -0.29494  -0.29306  -0.29157  -0.29057  -0.28656
 Alpha  occ. eigenvalues --   -0.28618  -0.28445  -0.28373  -0.28229  -0.28097
 Alpha  occ. eigenvalues --   -0.27882  -0.27291  -0.27115  -0.26692  -0.26354
 Alpha  occ. eigenvalues --   -0.26260  -0.26196  -0.25803  -0.25510  -0.25275
 Alpha  occ. eigenvalues --   -0.24908  -0.24621  -0.24207  -0.23701  -0.23675
 Alpha  occ. eigenvalues --   -0.22763  -0.22409  -0.22184  -0.21627  -0.20210
 Alpha  occ. eigenvalues --   -0.20035  -0.19594  -0.18415  -0.18363  -0.17274
 Alpha  occ. eigenvalues --   -0.15597
 Alpha virt. eigenvalues --   -0.11558  -0.06856  -0.06014  -0.04792  -0.03473
 Alpha virt. eigenvalues --   -0.03466  -0.02222  -0.02081  -0.01442   0.00240
 Alpha virt. eigenvalues --    0.01485   0.01865   0.02083   0.02694   0.03181

 Mulliken charges:
               1
     1  Mg   0.687902
     2  C    0.039768
     3  C   -0.051979
     4  C    0.006426
     5  C   -0.046908
     6  N   -0.214421
     7  C   -0.068087
     8  C   -0.020859
     9  C   -0.001264
    10  C    0.020743
    11  C    0.110710
    12  C    0.121660
    13  C    0.150839
    14  C    0.065037
    15  O   -0.184481
    16  O   -0.275796
    17  N   -0.235336
    18  C    0.128166
    19  C   -0.182568
    20  C    0.011520
    21  C    0.103328
    22  C    0.176961
    23  C   -0.068808
    24  O   -0.187719
    25  C    0.127207
    26  N   -0.271634
    27  C   -0.022327
    28  C    0.017023
    29  C   -0.003788
    30  C   -0.002491
    31  C    0.157487
    32  C    0.133435
    33  C    0.056329
    34  N   -0.279466
    35  C    0.117163
    36  C   -0.160840
    37  C    0.040220
    38  C    0.066963
    39  C    0.172995
    40  C   -0.054030
    41  O   -0.147584
    42  C    0.036990
    43  C    0.147832
    44  O   -0.147239
    45  O   -0.272643
    46  C    0.222793
    47  C    0.330452
    48  C   -0.077690
    49  C   -0.194080
    50  C    0.149224
    51  C    0.110796
    52  C    0.102836
    53  C    0.070765
    54  C   -0.121224
    55  C    0.146884
    56  C    0.143564
    57  C    0.098237
    58  C    0.080759
    59  C   -0.083854
    60  C    0.105796
    61  C    0.121056
    62  C    0.026066
    63  C    0.102885
    64  C   -0.066122
    65  C    0.093792
    66  C    0.122751
    67  H   -0.061725
    68  H   -0.045259
    69  H   -0.056628
    70  H    0.019277
    71  H   -0.022859
    72  H    0.008174
    73  H   -0.002340
    74  H   -0.005900
    75  H   -0.030105
    76  H   -0.010784
    77  H   -0.003717
    78  H    0.000964
    79  H    0.013079
    80  H    0.019357
    81  H   -0.023210
    82  H    0.000841
    83  H   -0.006886
    84  H    0.012563
    85  H   -0.020047
    86  H   -0.029600
    87  H   -0.010287
    88  H   -0.002120
    89  H   -0.005103
    90  H   -0.010425
    91  H   -0.018749
    92  H   -0.002094
    93  H   -0.007314
    94  H   -0.009755
    95  H   -0.019399
    96  H    0.024037
    97  H    0.004058
    98  H    0.012626
    99  H   -0.002443
   100  H   -0.003172
   101  H    0.016887
   102  H    0.017934
   103  H    0.005056
   104  H   -0.032638
   105  H    0.007865
   106  H   -0.007573
   107  H   -0.011947
   108  H   -0.031440
   109  H   -0.048381
   110  H   -0.027487
   111  H   -0.027755
   112  H   -0.046196
   113  H   -0.039213
   114  H   -0.039292
   115  H   -0.002001
   116  H   -0.014473
   117  H   -0.035325
   118  H   -0.031170
   119  H   -0.045391
   120  H   -0.028388
   121  H   -0.025793
   122  H   -0.045457
   123  H   -0.034096
   124  H   -0.029881
   125  H   -0.010140
   126  H   -0.027823
   127  H   -0.028182
   128  H   -0.037979
   129  H   -0.027468
   130  H   -0.033028
   131  H   -0.035539
   132  H   -0.039027
   133  H   -0.037043
   134  H   -0.037493
   135  H   -0.036670
   136  H   -0.013069
   137  H   -0.019882
   138  H   -0.007505
   139  H   -0.023764
   140  H   -0.016406
 Sum of Mulliken charges =  -0.00000

 Dipole moment (field-independent basis, Debye):
    X=              3.5909    Y=              2.6424    Z=             -1.6052  Tot=              4.7385
 Quadrupole moment (field-independent basis, Debye-Ang):
   XX=           -373.9939   YY=           -449.0984   ZZ=           -401.0091
   XY=            -12.7435   XZ=              3.9619   YZ=              5.2146

 Normal termination of Gaussian 16 at Fri Apr 29 05:24:24 2022.
