 Gaussian 16, Revision A.03,
 Gaussian 16:  ES64L-G16RevA.03 25-Dec-2016

 -----------------------------------
 #p cam-b3lyp/Def2SVP td=(nstates=5)
 -----------------------------------

 -------------------------------------------------------
 step_1851_chromophore_6 TDDFT with cam-b3lyp functional
 -------------------------------------------------------
 Symbolic Z-matrix:
 Charge =  0 Multiplicity = 1

                         Standard orientation:
 ---------------------------------------------------------------------
 Center     Atomic      Atomic             Coordinates (Angstroms)
 Number     Number       Type             X           Y           Z
 ---------------------------------------------------------------------
      1         12           0       -5.237449    0.992824   -0.528785
      2          6           0       -3.971767   -2.248410   -0.370011
      3          6           0       -1.884659    2.134423   -0.314904
      4          6           0       -6.205444    4.185274    0.352283
      5          6           0       -8.452492   -0.268204    0.339058
      6          7           0       -3.229354    0.067273   -0.331714
      7          6           0       -2.975373   -1.262334   -0.367131
      8          6           0       -1.521716   -1.584924   -0.394807
      9          6           0       -0.818375   -0.182053   -0.126337
     10          6           0       -2.030229    0.767719   -0.286625
     11          6           0       -0.080678   -0.074568    1.285833
     12          6           0       -1.170761   -2.288556   -1.782093
     13          6           0       -0.196894   -3.505110   -1.736190
     14          6           0        0.737571   -3.712895   -0.540630
     15          8           0        0.662883   -4.619172    0.278523
     16          8           0        1.653881   -2.715422   -0.447629
     17          7           0       -4.208459    2.990681   -0.433503
     18          6           0       -2.853602    3.168659   -0.426306
     19          6           0       -2.637719    4.644403   -0.436030
     20          6           0       -3.974637    5.287552   -0.340561
     21          6           0       -4.894735    4.123170   -0.169971
     22          6           0       -1.256668    5.266437   -0.580521
     23          6           0       -4.456893    6.736736   -0.378322
     24          8           0       -5.650540    7.095824   -0.418703
     25          6           0       -3.427745    7.824658   -0.402191
     26          7           0       -7.034265    1.802783    0.329481
     27          6           0       -7.177526    3.187662    0.542093
     28          6           0       -8.554720    3.493036    0.915647
     29          6           0       -9.355512    2.169105    0.597189
     30          6           0       -8.239399    1.116477    0.405681
     31          6           0       -8.711947    3.986864    2.350365
     32          6           0      -10.296310    2.146096   -0.614592
     33          6           0      -11.540078    1.289277   -0.328091
     34          7           0       -6.107739   -0.861902   -0.319185
     35          6           0       -7.446622   -1.188052   -0.028115
     36          6           0       -7.562593   -2.670869   -0.160446
     37          6           0       -6.194588   -3.080869   -0.227216
     38          6           0       -5.361968   -1.960807   -0.374819
     39          6           0       -8.760249   -3.651735   -0.155495
     40          6           0       -5.391558   -4.289662   -0.346599
     41          8           0       -5.750140   -5.477873   -0.311486
     42          6           0       -3.914858   -3.783325   -0.452226
     43          6           0       -3.069679   -4.490460    0.648591
     44          8           0       -2.663264   -4.001496    1.658256
     45          8           0       -2.697332   -5.734937    0.146622
     46          6           0       -1.848819   -6.504056    1.049131
     47          6           0        2.485897   -2.675314    0.788470
     48          6           0        3.624491   -3.611217    0.829651
     49          6           0        4.833033   -3.410649    1.408948
     50          6           0        5.157470   -2.189913    2.267059
     51          6           0        6.098327   -4.270033    1.158125
     52          6           0        6.813092   -4.073107   -0.192913
     53          6           0        8.023882   -3.089116   -0.187487
     54          6           0        8.005721   -2.049392   -1.259252
     55          6           0        7.923320   -2.768518   -2.660266
     56          6           0        9.218132   -1.132648   -1.146489
     57          6           0        9.003054   -0.004506   -0.039201
     58          6           0        9.179012    1.450490   -0.587059
     59          6           0       10.240512    2.397261    0.175482
     60          6           0        9.656901    3.807917    0.294856
     61          6           0       11.582500    2.314436   -0.664568
     62          6           0       12.737917    1.716627    0.185552
     63          6           0       13.678085    2.668381    0.995512
     64          6           0       14.986086    3.002230    0.230510
     65          6           0       15.119121    4.501933    0.227946
     66          6           0       16.262479    2.234641    0.743351
     67          1           0       -0.868834    2.462155   -0.085601
     68          1           0       -6.721358    5.129279    0.534637
     69          1           0       -9.505452   -0.557737    0.338735
     70          1           0       -1.332801   -2.297741    0.407273
     71          1           0       -0.063514    0.112154   -0.855938
     72          1           0       -0.079451   -1.059398    1.753321
     73          1           0       -0.626959    0.614242    1.930285
     74          1           0        0.939488    0.291377    1.166082
     75          1           0       -0.807916   -1.450867   -2.377841
     76          1           0       -2.047501   -2.635849   -2.328100
     77          1           0        0.475557   -3.460894   -2.592893
     78          1           0       -0.814405   -4.397372   -1.837149
     79          1           0       -1.087644    5.736753    0.387170
     80          1           0       -1.236548    5.869301   -1.488977
     81          1           0       -0.514734    4.474035   -0.683541
     82          1           0       -2.857408    7.677806    0.514152
     83          1           0       -4.004165    8.748449   -0.348676
     84          1           0       -2.779980    7.819500   -1.279458
     85          1           0       -8.804154    4.279698    0.203089
     86          1           0       -9.884468    1.829765    1.487982
     87          1           0       -7.785036    4.374143    2.775347
     88          1           0       -9.077442    3.174384    2.978586
     89          1           0       -9.344003    4.870919    2.266666
     90          1           0       -9.784348    1.728543   -1.481168
     91          1           0      -10.526534    3.198145   -0.783780
     92          1           0      -11.429484    0.368827   -0.902121
     93          1           0      -12.501724    1.740228   -0.572703
     94          1           0      -11.649198    0.976107    0.710390
     95          1           0       -9.589639   -3.124991    0.316885
     96          1           0       -8.486462   -4.589512    0.328841
     97          1           0       -9.115472   -3.859301   -1.164299
     98          1           0       -3.631079   -4.090063   -1.459510
     99          1           0       -1.507489   -7.462226    0.657047
    100          1           0       -2.381793   -6.686610    1.982481
    101          1           0       -0.885447   -6.069045    1.315591
    102          1           0        1.933751   -2.933794    1.692448
    103          1           0        2.877389   -1.663039    0.895363
    104          1           0        3.631254   -4.462993    0.150507
    105          1           0        6.019161   -1.716536    1.796826
    106          1           0        5.530364   -2.610002    3.201379
    107          1           0        4.269930   -1.602152    2.501632
    108          1           0        5.818583   -5.314793    1.291526
    109          1           0        6.858899   -4.221878    1.937222
    110          1           0        5.980719   -3.738667   -0.811663
    111          1           0        7.239162   -5.024431   -0.512291
    112          1           0        8.899554   -3.719368   -0.346252
    113          1           0        8.151906   -2.674776    0.812246
    114          1           0        7.063260   -1.551660   -1.030962
    115          1           0        6.881213   -2.836524   -2.970869
    116          1           0        8.609135   -3.616009   -2.641553
    117          1           0        8.384529   -2.018910   -3.303004
    118          1           0        9.541712   -0.797914   -2.132196
    119          1           0       10.045354   -1.767018   -0.825365
    120          1           0        9.688190   -0.135782    0.798170
    121          1           0        8.026484   -0.058157    0.442388
    122          1           0        8.209812    1.948467   -0.572639
    123          1           0        9.445930    1.587071   -1.634754
    124          1           0       10.405492    2.041468    1.192278
    125          1           0        9.360049    3.998980    1.326357
    126          1           0        8.841075    3.955842   -0.412377
    127          1           0       10.256068    4.656949   -0.036632
    128          1           0       11.858227    3.306147   -1.022813
    129          1           0       11.546880    1.669438   -1.542953
    130          1           0       13.243599    1.033414   -0.496984
    131          1           0       12.268028    1.137856    0.981783
    132          1           0       13.924734    2.266809    1.978909
    133          1           0       13.054181    3.539825    1.194464
    134          1           0       14.721861    2.774779   -0.802393
    135          1           0       16.157596    4.816663    0.121455
    136          1           0       14.706933    4.867131    1.169022
    137          1           0       14.679573    5.030729   -0.616792
    138          1           0       16.067438    1.471884    1.497191
    139          1           0       17.005584    2.933197    1.126051
    140          1           0       16.799275    1.811446   -0.105549
 ---------------------------------------------------------------------

 SCF Done:  E(RCAM-B3LYP) =  -3007.15868033     A.U. after   19 cycles

 Excitation energies and oscillator strengths:

 Excited State   1:      Singlet-A      1.6315 eV  759.93 nm  f=0.4074  <S**2>=0.000
     245 -> 248       -0.17030
     246 -> 247        0.68850
     245 <- 248       -0.10812
 This state for optimization and/or second-order correction.
 Total Energy, E(TD-HF/TD-DFT) =  -3007.09872304
 Copying the excited state density for this state as the 1-particle RhoCI density.

 Excited State   2:      Singlet-A      2.2198 eV  558.53 nm  f=0.0976  <S**2>=0.000
     245 -> 247        0.63557
     246 -> 248        0.29120

 Excited State   3:      Singlet-A      3.2054 eV  386.80 nm  f=0.0042  <S**2>=0.000
     243 -> 247       -0.10316
     244 -> 247        0.66317
     246 -> 248       -0.17314

 Excited State   4:      Singlet-A      3.3114 eV  374.42 nm  f=0.0028  <S**2>=0.000
     241 -> 247        0.13758
     243 -> 247        0.65391
     246 -> 248       -0.16665

 Excited State   5:      Singlet-A      3.3834 eV  366.45 nm  f=0.0309  <S**2>=0.000
     240 -> 247       -0.16788
     241 -> 247        0.52958
     241 -> 249        0.24847
     241 -> 251       -0.19737
     243 -> 247       -0.14743
     246 -> 248       -0.11713

 The electronic state is 1-A.
 Alpha  occ. eigenvalues --  -46.89392 -19.26055 -19.24020 -19.20322 -19.20303
 Alpha  occ. eigenvalues --  -19.18666 -19.18502 -14.42299 -14.41611 -14.39370
 Alpha  occ. eigenvalues --  -14.39290 -10.40050 -10.39334 -10.34975 -10.34698
 Alpha  occ. eigenvalues --  -10.32863 -10.31029 -10.30924 -10.30840 -10.30807
 Alpha  occ. eigenvalues --  -10.30336 -10.30321 -10.30228 -10.29367 -10.29305
 Alpha  occ. eigenvalues --  -10.28861 -10.28731 -10.28721 -10.28507 -10.28181
 Alpha  occ. eigenvalues --  -10.28119 -10.27996 -10.27780 -10.27473 -10.27437
 Alpha  occ. eigenvalues --  -10.27362 -10.27298 -10.27178 -10.27006 -10.26875
 Alpha  occ. eigenvalues --  -10.26540 -10.26380 -10.26348 -10.26269 -10.26220
 Alpha  occ. eigenvalues --  -10.26208 -10.25919 -10.25863 -10.25785 -10.25701
 Alpha  occ. eigenvalues --  -10.25699 -10.25538 -10.25466 -10.25377 -10.25374
 Alpha  occ. eigenvalues --  -10.25298 -10.25091 -10.24889 -10.24843 -10.24823
 Alpha  occ. eigenvalues --  -10.24703 -10.24679 -10.24613 -10.24484 -10.24426
 Alpha  occ. eigenvalues --  -10.23894  -3.17731  -1.92613  -1.92177  -1.92032
 Alpha  occ. eigenvalues --   -1.17050  -1.15902  -1.08399  -1.08391  -1.08032
 Alpha  occ. eigenvalues --   -1.07977  -1.03888  -1.02838  -1.02388  -1.01443
 Alpha  occ. eigenvalues --   -0.92121  -0.90892  -0.89730  -0.89042  -0.88805
 Alpha  occ. eigenvalues --   -0.88694  -0.88440  -0.87619  -0.87278  -0.86093
 Alpha  occ. eigenvalues --   -0.85514  -0.85377  -0.84249  -0.83655  -0.83068
 Alpha  occ. eigenvalues --   -0.82396  -0.81758  -0.81126  -0.80388  -0.79972
 Alpha  occ. eigenvalues --   -0.79862  -0.77941  -0.77774  -0.76708  -0.75930
 Alpha  occ. eigenvalues --   -0.75650  -0.75429  -0.75051  -0.74939  -0.74394
 Alpha  occ. eigenvalues --   -0.73842  -0.72795  -0.71738  -0.70919  -0.69151
 Alpha  occ. eigenvalues --   -0.68578  -0.68071  -0.67025  -0.66656  -0.65546
 Alpha  occ. eigenvalues --   -0.65482  -0.65311  -0.64555  -0.64436  -0.64246
 Alpha  occ. eigenvalues --   -0.63895  -0.63246  -0.62620  -0.61683  -0.60120
 Alpha  occ. eigenvalues --   -0.59298  -0.59042  -0.58673  -0.58312  -0.57781
 Alpha  occ. eigenvalues --   -0.57268  -0.57070  -0.55868  -0.55663  -0.55571
 Alpha  occ. eigenvalues --   -0.55054  -0.54618  -0.54194  -0.53982  -0.53591
 Alpha  occ. eigenvalues --   -0.53568  -0.53401  -0.53045  -0.52580  -0.52447
 Alpha  occ. eigenvalues --   -0.52211  -0.52035  -0.52020  -0.51887  -0.51716
 Alpha  occ. eigenvalues --   -0.51387  -0.51293  -0.51084  -0.50779  -0.50439
 Alpha  occ. eigenvalues --   -0.50406  -0.50252  -0.50024  -0.49720  -0.49268
 Alpha  occ. eigenvalues --   -0.49157  -0.48984  -0.48934  -0.48827  -0.48708
 Alpha  occ. eigenvalues --   -0.48464  -0.48332  -0.48209  -0.47887  -0.47780
 Alpha  occ. eigenvalues --   -0.47723  -0.47499  -0.47277  -0.46741  -0.46542
 Alpha  occ. eigenvalues --   -0.46375  -0.46233  -0.46100  -0.45913  -0.45557
 Alpha  occ. eigenvalues --   -0.45363  -0.45217  -0.44906  -0.44885  -0.44880
 Alpha  occ. eigenvalues --   -0.44785  -0.44691  -0.44426  -0.44181  -0.44081
 Alpha  occ. eigenvalues --   -0.43947  -0.43576  -0.43382  -0.43041  -0.42928
 Alpha  occ. eigenvalues --   -0.42643  -0.42531  -0.42326  -0.42215  -0.42208
 Alpha  occ. eigenvalues --   -0.41931  -0.41376  -0.41356  -0.41081  -0.41065
 Alpha  occ. eigenvalues --   -0.40758  -0.40633  -0.40477  -0.40317  -0.40168
 Alpha  occ. eigenvalues --   -0.39638  -0.39577  -0.39311  -0.39241  -0.38980
 Alpha  occ. eigenvalues --   -0.38763  -0.38158  -0.37968  -0.37647  -0.37119
 Alpha  occ. eigenvalues --   -0.36945  -0.36845  -0.36790  -0.36660  -0.36072
 Alpha  occ. eigenvalues --   -0.35915  -0.35710  -0.35091  -0.34671  -0.34216
 Alpha  occ. eigenvalues --   -0.34009  -0.33737  -0.32875  -0.31015  -0.30654
 Alpha  occ. eigenvalues --   -0.30357  -0.29836  -0.29468  -0.28900  -0.24144
 Alpha  occ. eigenvalues --   -0.20768
 Alpha virt. eigenvalues --   -0.08789  -0.01564   0.00296   0.01457   0.02080
 Alpha virt. eigenvalues --    0.04326   0.05282   0.05507   0.05974   0.07249
 Alpha virt. eigenvalues --    0.08024   0.08038   0.08665   0.09322   0.09412

 Mulliken charges:
               1
     1  Mg   0.816180
     2  C    0.011603
     3  C   -0.066480
     4  C   -0.015895
     5  C   -0.055299
     6  N   -0.285792
     7  C   -0.017612
     8  C   -0.077559
     9  C   -0.048064
    10  C    0.037482
    11  C    0.056847
    12  C    0.074497
    13  C    0.083537
    14  C    0.139443
    15  O   -0.226835
    16  O   -0.337673
    17  N   -0.319994
    18  C    0.134261
    19  C   -0.183990
    20  C   -0.056327
    21  C    0.130189
    22  C    0.120260
    23  C    0.010818
    24  O   -0.228587
    25  C    0.047195
    26  N   -0.340819
    27  C    0.006253
    28  C   -0.046075
    29  C   -0.059880
    30  C    0.022568
    31  C    0.096702
    32  C    0.074126
    33  C   -0.008728
    34  N   -0.372080
    35  C    0.124004
    36  C   -0.157517
    37  C   -0.031881
    38  C    0.105242
    39  C    0.125282
    40  C    0.042227
    41  O   -0.185147
    42  C   -0.034345
    43  C    0.230006
    44  O   -0.182367
    45  O   -0.335230
    46  C    0.180400
    47  C    0.292110
    48  C   -0.093090
    49  C   -0.215935
    50  C    0.089800
    51  C    0.053482
    52  C    0.045891
    53  C    0.021904
    54  C   -0.172349
    55  C    0.083188
    56  C    0.085008
    57  C    0.047653
    58  C    0.029156
    59  C   -0.140915
    60  C    0.047301
    61  C    0.070434
    62  C   -0.026439
    63  C    0.050026
    64  C   -0.127720
    65  C    0.034824
    66  C    0.060874
    67  H   -0.028114
    68  H   -0.006361
    69  H   -0.022437
    70  H    0.049687
    71  H    0.012335
    72  H    0.029249
    73  H    0.024116
    74  H    0.015624
    75  H    0.001652
    76  H    0.019096
    77  H    0.029471
    78  H    0.031479
    79  H    0.038003
    80  H    0.043216
    81  H    0.004660
    82  H    0.027148
    83  H    0.028488
    84  H    0.039405
    85  H    0.015365
    86  H    0.005359
    87  H    0.016605
    88  H    0.021873
    89  H    0.019482
    90  H    0.019147
    91  H    0.010326
    92  H    0.019491
    93  H    0.019056
    94  H    0.012778
    95  H    0.004178
    96  H    0.051052
    97  H    0.030909
    98  H    0.052222
    99  H    0.022204
   100  H    0.020408
   101  H    0.040802
   102  H    0.048170
   103  H    0.031605
   104  H    0.000458
   105  H    0.025949
   106  H    0.017950
   107  H    0.011573
   108  H    0.001411
   109  H   -0.016362
   110  H   -0.000322
   111  H    0.002945
   112  H   -0.017401
   113  H   -0.012996
   114  H   -0.010324
   115  H    0.022987
   116  H    0.009839
   117  H   -0.009809
   118  H   -0.003070
   119  H   -0.015438
   120  H   -0.001629
   121  H    0.000483
   122  H   -0.014959
   123  H   -0.006529
   124  H    0.000142
   125  H    0.014064
   126  H   -0.003322
   127  H   -0.003345
   128  H   -0.011265
   129  H    0.000463
   130  H   -0.004868
   131  H   -0.009044
   132  H   -0.009313
   133  H   -0.009410
   134  H   -0.005693
   135  H   -0.010774
   136  H    0.009979
   137  H    0.004630
   138  H    0.016127
   139  H    0.001018
   140  H    0.007952
 Sum of Mulliken charges =  -0.00000

 Dipole moment (field-independent basis, Debye):
    X=              3.7731    Y=              2.9702    Z=             -1.7349  Tot=              5.1057
 Quadrupole moment (field-independent basis, Debye-Ang):
   XX=           -372.3679   YY=           -445.4333   ZZ=           -400.9451
   XY=            -12.2015   XZ=              4.4471   YZ=              5.4217

 Normal termination of Gaussian 16 at Fri Apr 29 04:22:44 2022.
