 Gaussian 16, Revision A.03,
 Gaussian 16:  ES64L-G16RevA.03 25-Dec-2016

 ---------------------------------
 #p PBE1PBE/Def2SVP td=(nstates=5)
 ---------------------------------

 -----------------------------------------------------
 step_1851_chromophore_6 TDDFT with PBE1PBE functional
 -----------------------------------------------------
 Symbolic Z-matrix:
 Charge =  0 Multiplicity = 1

                         Standard orientation:
 ---------------------------------------------------------------------
 Center     Atomic      Atomic             Coordinates (Angstroms)
 Number     Number       Type             X           Y           Z
 ---------------------------------------------------------------------
      1         12           0       -5.237449    0.992824   -0.528785
      2          6           0       -3.971767   -2.248410   -0.370011
      3          6           0       -1.884659    2.134423   -0.314904
      4          6           0       -6.205444    4.185274    0.352283
      5          6           0       -8.452492   -0.268204    0.339058
      6          7           0       -3.229354    0.067273   -0.331714
      7          6           0       -2.975373   -1.262334   -0.367131
      8          6           0       -1.521716   -1.584924   -0.394807
      9          6           0       -0.818375   -0.182053   -0.126337
     10          6           0       -2.030229    0.767719   -0.286625
     11          6           0       -0.080678   -0.074568    1.285833
     12          6           0       -1.170761   -2.288556   -1.782093
     13          6           0       -0.196894   -3.505110   -1.736190
     14          6           0        0.737571   -3.712895   -0.540630
     15          8           0        0.662883   -4.619172    0.278523
     16          8           0        1.653881   -2.715422   -0.447629
     17          7           0       -4.208459    2.990681   -0.433503
     18          6           0       -2.853602    3.168659   -0.426306
     19          6           0       -2.637719    4.644403   -0.436030
     20          6           0       -3.974637    5.287552   -0.340561
     21          6           0       -4.894735    4.123170   -0.169971
     22          6           0       -1.256668    5.266437   -0.580521
     23          6           0       -4.456893    6.736736   -0.378322
     24          8           0       -5.650540    7.095824   -0.418703
     25          6           0       -3.427745    7.824658   -0.402191
     26          7           0       -7.034265    1.802783    0.329481
     27          6           0       -7.177526    3.187662    0.542093
     28          6           0       -8.554720    3.493036    0.915647
     29          6           0       -9.355512    2.169105    0.597189
     30          6           0       -8.239399    1.116477    0.405681
     31          6           0       -8.711947    3.986864    2.350365
     32          6           0      -10.296310    2.146096   -0.614592
     33          6           0      -11.540078    1.289277   -0.328091
     34          7           0       -6.107739   -0.861902   -0.319185
     35          6           0       -7.446622   -1.188052   -0.028115
     36          6           0       -7.562593   -2.670869   -0.160446
     37          6           0       -6.194588   -3.080869   -0.227216
     38          6           0       -5.361968   -1.960807   -0.374819
     39          6           0       -8.760249   -3.651735   -0.155495
     40          6           0       -5.391558   -4.289662   -0.346599
     41          8           0       -5.750140   -5.477873   -0.311486
     42          6           0       -3.914858   -3.783325   -0.452226
     43          6           0       -3.069679   -4.490460    0.648591
     44          8           0       -2.663264   -4.001496    1.658256
     45          8           0       -2.697332   -5.734937    0.146622
     46          6           0       -1.848819   -6.504056    1.049131
     47          6           0        2.485897   -2.675314    0.788470
     48          6           0        3.624491   -3.611217    0.829651
     49          6           0        4.833033   -3.410649    1.408948
     50          6           0        5.157470   -2.189913    2.267059
     51          6           0        6.098327   -4.270033    1.158125
     52          6           0        6.813092   -4.073107   -0.192913
     53          6           0        8.023882   -3.089116   -0.187487
     54          6           0        8.005721   -2.049392   -1.259252
     55          6           0        7.923320   -2.768518   -2.660266
     56          6           0        9.218132   -1.132648   -1.146489
     57          6           0        9.003054   -0.004506   -0.039201
     58          6           0        9.179012    1.450490   -0.587059
     59          6           0       10.240512    2.397261    0.175482
     60          6           0        9.656901    3.807917    0.294856
     61          6           0       11.582500    2.314436   -0.664568
     62          6           0       12.737917    1.716627    0.185552
     63          6           0       13.678085    2.668381    0.995512
     64          6           0       14.986086    3.002230    0.230510
     65          6           0       15.119121    4.501933    0.227946
     66          6           0       16.262479    2.234641    0.743351
     67          1           0       -0.868834    2.462155   -0.085601
     68          1           0       -6.721358    5.129279    0.534637
     69          1           0       -9.505452   -0.557737    0.338735
     70          1           0       -1.332801   -2.297741    0.407273
     71          1           0       -0.063514    0.112154   -0.855938
     72          1           0       -0.079451   -1.059398    1.753321
     73          1           0       -0.626959    0.614242    1.930285
     74          1           0        0.939488    0.291377    1.166082
     75          1           0       -0.807916   -1.450867   -2.377841
     76          1           0       -2.047501   -2.635849   -2.328100
     77          1           0        0.475557   -3.460894   -2.592893
     78          1           0       -0.814405   -4.397372   -1.837149
     79          1           0       -1.087644    5.736753    0.387170
     80          1           0       -1.236548    5.869301   -1.488977
     81          1           0       -0.514734    4.474035   -0.683541
     82          1           0       -2.857408    7.677806    0.514152
     83          1           0       -4.004165    8.748449   -0.348676
     84          1           0       -2.779980    7.819500   -1.279458
     85          1           0       -8.804154    4.279698    0.203089
     86          1           0       -9.884468    1.829765    1.487982
     87          1           0       -7.785036    4.374143    2.775347
     88          1           0       -9.077442    3.174384    2.978586
     89          1           0       -9.344003    4.870919    2.266666
     90          1           0       -9.784348    1.728543   -1.481168
     91          1           0      -10.526534    3.198145   -0.783780
     92          1           0      -11.429484    0.368827   -0.902121
     93          1           0      -12.501724    1.740228   -0.572703
     94          1           0      -11.649198    0.976107    0.710390
     95          1           0       -9.589639   -3.124991    0.316885
     96          1           0       -8.486462   -4.589512    0.328841
     97          1           0       -9.115472   -3.859301   -1.164299
     98          1           0       -3.631079   -4.090063   -1.459510
     99          1           0       -1.507489   -7.462226    0.657047
    100          1           0       -2.381793   -6.686610    1.982481
    101          1           0       -0.885447   -6.069045    1.315591
    102          1           0        1.933751   -2.933794    1.692448
    103          1           0        2.877389   -1.663039    0.895363
    104          1           0        3.631254   -4.462993    0.150507
    105          1           0        6.019161   -1.716536    1.796826
    106          1           0        5.530364   -2.610002    3.201379
    107          1           0        4.269930   -1.602152    2.501632
    108          1           0        5.818583   -5.314793    1.291526
    109          1           0        6.858899   -4.221878    1.937222
    110          1           0        5.980719   -3.738667   -0.811663
    111          1           0        7.239162   -5.024431   -0.512291
    112          1           0        8.899554   -3.719368   -0.346252
    113          1           0        8.151906   -2.674776    0.812246
    114          1           0        7.063260   -1.551660   -1.030962
    115          1           0        6.881213   -2.836524   -2.970869
    116          1           0        8.609135   -3.616009   -2.641553
    117          1           0        8.384529   -2.018910   -3.303004
    118          1           0        9.541712   -0.797914   -2.132196
    119          1           0       10.045354   -1.767018   -0.825365
    120          1           0        9.688190   -0.135782    0.798170
    121          1           0        8.026484   -0.058157    0.442388
    122          1           0        8.209812    1.948467   -0.572639
    123          1           0        9.445930    1.587071   -1.634754
    124          1           0       10.405492    2.041468    1.192278
    125          1           0        9.360049    3.998980    1.326357
    126          1           0        8.841075    3.955842   -0.412377
    127          1           0       10.256068    4.656949   -0.036632
    128          1           0       11.858227    3.306147   -1.022813
    129          1           0       11.546880    1.669438   -1.542953
    130          1           0       13.243599    1.033414   -0.496984
    131          1           0       12.268028    1.137856    0.981783
    132          1           0       13.924734    2.266809    1.978909
    133          1           0       13.054181    3.539825    1.194464
    134          1           0       14.721861    2.774779   -0.802393
    135          1           0       16.157596    4.816663    0.121455
    136          1           0       14.706933    4.867131    1.169022
    137          1           0       14.679573    5.030729   -0.616792
    138          1           0       16.067438    1.471884    1.497191
    139          1           0       17.005584    2.933197    1.126051
    140          1           0       16.799275    1.811446   -0.105549
 ---------------------------------------------------------------------

 SCF Done:  E(RPBE1PBE) =  -3005.34729381     A.U. after   15 cycles

 Excitation energies and oscillator strengths:

 Excited State   1:      Singlet-A      1.8018 eV  688.11 nm  f=0.3947  <S**2>=0.000
     245 -> 248        0.15988
     246 -> 247        0.69678
     246 <- 247       -0.11872
 This state for optimization and/or second-order correction.
 Total Energy, E(TD-HF/TD-DFT) =  -3005.28107855
 Copying the excited state density for this state as the 1-particle RhoCI density.

 Excited State   2:      Singlet-A      2.2212 eV  558.20 nm  f=0.0925  <S**2>=0.000
     245 -> 247        0.64642
     246 -> 248       -0.25635

 Excited State   3:      Singlet-A      2.8673 eV  432.41 nm  f=0.0076  <S**2>=0.000
     241 -> 247       -0.16584
     244 -> 247        0.66673

 Excited State   4:      Singlet-A      2.8945 eV  428.34 nm  f=0.0001  <S**2>=0.000
     241 -> 247        0.64435
     241 -> 249        0.14001
     241 -> 250       -0.10354
     243 -> 247       -0.11589
     244 -> 247        0.15098

 Excited State   5:      Singlet-A      2.9863 eV  415.18 nm  f=0.0058  <S**2>=0.000
     240 -> 247        0.19940
     241 -> 247        0.11041
     243 -> 247        0.65236

 The electronic state is 1-A.
 Alpha  occ. eigenvalues --  -46.92762 -19.26710 -19.24665 -19.20572 -19.20463
 Alpha  occ. eigenvalues --  -19.18843 -19.18750 -14.41821 -14.41138 -14.39022
 Alpha  occ. eigenvalues --  -14.38942 -10.37074 -10.36312 -10.32113 -10.31792
 Alpha  occ. eigenvalues --  -10.30259 -10.28693 -10.28665 -10.28571 -10.28544
 Alpha  occ. eigenvalues --  -10.28093 -10.28093 -10.27961 -10.27127 -10.26547
 Alpha  occ. eigenvalues --  -10.26465 -10.26389 -10.26352 -10.26331 -10.25825
 Alpha  occ. eigenvalues --  -10.25818 -10.25613 -10.25604 -10.25255 -10.25164
 Alpha  occ. eigenvalues --  -10.25143 -10.24949 -10.24713 -10.24660 -10.24616
 Alpha  occ. eigenvalues --  -10.24179 -10.23954 -10.23946 -10.23849 -10.23763
 Alpha  occ. eigenvalues --  -10.23619 -10.23490 -10.23434 -10.23308 -10.23219
 Alpha  occ. eigenvalues --  -10.23155 -10.23123 -10.23053 -10.22938 -10.22880
 Alpha  occ. eigenvalues --  -10.22802 -10.22707 -10.22471 -10.22386 -10.22249
 Alpha  occ. eigenvalues --  -10.22232 -10.22228 -10.22170 -10.22045 -10.21833
 Alpha  occ. eigenvalues --  -10.21263  -3.14686  -1.87506  -1.87050  -1.86907
 Alpha  occ. eigenvalues --   -1.11840  -1.10623  -1.03117  -1.03089  -1.02855
 Alpha  occ. eigenvalues --   -1.02804  -0.98481  -0.97477  -0.97055  -0.96056
 Alpha  occ. eigenvalues --   -0.86436  -0.84996  -0.83862  -0.83173  -0.83020
 Alpha  occ. eigenvalues --   -0.82947  -0.82775  -0.81967  -0.81384  -0.80338
 Alpha  occ. eigenvalues --   -0.79778  -0.79620  -0.78469  -0.77947  -0.77359
 Alpha  occ. eigenvalues --   -0.76577  -0.75957  -0.75314  -0.74661  -0.74287
 Alpha  occ. eigenvalues --   -0.74033  -0.72196  -0.72087  -0.71024  -0.70073
 Alpha  occ. eigenvalues --   -0.69766  -0.69734  -0.69371  -0.69080  -0.68585
 Alpha  occ. eigenvalues --   -0.68134  -0.67234  -0.66166  -0.65253  -0.63497
 Alpha  occ. eigenvalues --   -0.62829  -0.62491  -0.61311  -0.61088  -0.59984
 Alpha  occ. eigenvalues --   -0.59792  -0.59731  -0.59162  -0.58801  -0.58576
 Alpha  occ. eigenvalues --   -0.58429  -0.57385  -0.56790  -0.56254  -0.54460
 Alpha  occ. eigenvalues --   -0.53903  -0.53563  -0.53239  -0.52930  -0.52205
 Alpha  occ. eigenvalues --   -0.51776  -0.51481  -0.50468  -0.50224  -0.50050
 Alpha  occ. eigenvalues --   -0.49471  -0.49182  -0.48685  -0.48463  -0.48202
 Alpha  occ. eigenvalues --   -0.48103  -0.47809  -0.47670  -0.47131  -0.46843
 Alpha  occ. eigenvalues --   -0.46703  -0.46547  -0.46532  -0.46482  -0.46324
 Alpha  occ. eigenvalues --   -0.45941  -0.45807  -0.45661  -0.45381  -0.45143
 Alpha  occ. eigenvalues --   -0.44922  -0.44737  -0.44540  -0.44297  -0.43878
 Alpha  occ. eigenvalues --   -0.43750  -0.43591  -0.43545  -0.43450  -0.43329
 Alpha  occ. eigenvalues --   -0.43046  -0.42931  -0.42843  -0.42497  -0.42382
 Alpha  occ. eigenvalues --   -0.42332  -0.42161  -0.41874  -0.41413  -0.41171
 Alpha  occ. eigenvalues --   -0.41057  -0.40981  -0.40746  -0.40594  -0.40335
 Alpha  occ. eigenvalues --   -0.40074  -0.39829  -0.39720  -0.39614  -0.39564
 Alpha  occ. eigenvalues --   -0.39538  -0.39412  -0.39124  -0.38939  -0.38780
 Alpha  occ. eigenvalues --   -0.38679  -0.38358  -0.38154  -0.37762  -0.37649
 Alpha  occ. eigenvalues --   -0.37439  -0.37327  -0.37221  -0.37061  -0.36968
 Alpha  occ. eigenvalues --   -0.36781  -0.36239  -0.36123  -0.35919  -0.35861
 Alpha  occ. eigenvalues --   -0.35598  -0.35451  -0.35384  -0.35204  -0.35054
 Alpha  occ. eigenvalues --   -0.34497  -0.34401  -0.34192  -0.34106  -0.33995
 Alpha  occ. eigenvalues --   -0.33559  -0.32927  -0.32817  -0.32503  -0.31971
 Alpha  occ. eigenvalues --   -0.31927  -0.31768  -0.31696  -0.31599  -0.31105
 Alpha  occ. eigenvalues --   -0.30759  -0.30606  -0.30023  -0.29478  -0.29070
 Alpha  occ. eigenvalues --   -0.28984  -0.28961  -0.28412  -0.26616  -0.25467
 Alpha  occ. eigenvalues --   -0.25223  -0.25120  -0.25049  -0.24550  -0.21047
 Alpha  occ. eigenvalues --   -0.18472
 Alpha virt. eigenvalues --   -0.11204  -0.05121  -0.03857  -0.02301  -0.01226
 Alpha virt. eigenvalues --   -0.00250   0.00829   0.01001   0.01475   0.03299
 Alpha virt. eigenvalues --    0.04476   0.04643   0.04885   0.05610   0.06121

 Mulliken charges:
               1
     1  Mg   0.951910
     2  C    0.010250
     3  C   -0.065725
     4  C   -0.008755
     5  C   -0.045872
     6  N   -0.390654
     7  C    0.051132
     8  C   -0.149327
     9  C   -0.118559
    10  C    0.072700
    11  C   -0.000596
    12  C    0.028110
    13  C    0.009244
    14  C    0.202166
    15  O   -0.261557
    16  O   -0.366564
    17  N   -0.428909
    18  C    0.164257
    19  C   -0.213242
    20  C   -0.091930
    21  C    0.161366
    22  C    0.058396
    23  C    0.055017
    24  O   -0.264610
    25  C   -0.025109
    26  N   -0.438591
    27  C    0.045633
    28  C   -0.130764
    29  C   -0.136297
    30  C    0.061599
    31  C    0.040178
    32  C    0.012361
    33  C   -0.079607
    34  N   -0.500477
    35  C    0.139798
    36  C   -0.169680
    37  C   -0.072381
    38  C    0.158069
    39  C    0.068143
    40  C    0.126779
    41  O   -0.230742
    42  C   -0.136126
    43  C    0.311987
    44  O   -0.218180
    45  O   -0.365878
    46  C    0.123146
    47  C    0.241169
    48  C   -0.099546
    49  C   -0.255361
    50  C    0.017431
    51  C   -0.004273
    52  C   -0.018440
    53  C   -0.026297
    54  C   -0.264479
    55  C    0.020136
    56  C    0.030524
    57  C   -0.015318
    58  C   -0.022251
    59  C   -0.228617
    60  C   -0.008077
    61  C    0.021799
    62  C   -0.093929
    63  C   -0.002165
    64  C   -0.220527
    65  C   -0.026096
    66  C   -0.000724
    67  H    0.004089
    68  H    0.024296
    69  H    0.010867
    70  H    0.092062
    71  H    0.047567
    72  H    0.056990
    73  H    0.051999
    74  H    0.042157
    75  H    0.033994
    76  H    0.052038
    77  H    0.061771
    78  H    0.064435
    79  H    0.065986
    80  H    0.070450
    81  H    0.032937
    82  H    0.054429
    83  H    0.055750
    84  H    0.065150
    85  H    0.051967
    86  H    0.042773
    87  H    0.044712
    88  H    0.049231
    89  H    0.047189
    90  H    0.052401
    91  H    0.043847
    92  H    0.046455
    93  H    0.047412
    94  H    0.038768
    95  H    0.032225
    96  H    0.076838
    97  H    0.058682
    98  H    0.089007
    99  H    0.044956
   100  H    0.043821
   101  H    0.065245
   102  H    0.075401
   103  H    0.057474
   104  H    0.029935
   105  H    0.058708
   106  H    0.047738
   107  H    0.037685
   108  H    0.034307
   109  H    0.015310
   110  H    0.032998
   111  H    0.035301
   112  H    0.016065
   113  H    0.019055
   114  H    0.029841
   115  H    0.050260
   116  H    0.037272
   117  H    0.019700
   118  H    0.026685
   119  H    0.017919
   120  H    0.030115
   121  H    0.033835
   122  H    0.017978
   123  H    0.024865
   124  H    0.035730
   125  H    0.041307
   126  H    0.023247
   127  H    0.023082
   128  H    0.021341
   129  H    0.031804
   130  H    0.027441
   131  H    0.024706
   132  H    0.022572
   133  H    0.024390
   134  H    0.033402
   135  H    0.017463
   136  H    0.037525
   137  H    0.032052
   138  H    0.042270
   139  H    0.028015
   140  H    0.035642
 Sum of Mulliken charges =  -0.00000

 Dipole moment (field-independent basis, Debye):
    X=              3.7753    Y=              3.0372    Z=             -1.7150  Tot=              5.1399
 Quadrupole moment (field-independent basis, Debye-Ang):
   XX=           -366.7159   YY=           -442.5915   ZZ=           -398.5356
   XY=            -12.9847   XZ=              4.1693   YZ=              5.6835

 Normal termination of Gaussian 16 at Fri Apr 29 04:43:33 2022.
