 Gaussian 16, Revision A.03,
 Gaussian 16:  ES64L-G16RevA.03 25-Dec-2016

 --------------------------------
 #p wB97XD/Def2SVP td=(nstates=5)
 --------------------------------

 ----------------------------------------------------
 step_1851_chromophore_6 TDDFT with wB97XD functional
 ----------------------------------------------------
 Symbolic Z-matrix:
 Charge =  0 Multiplicity = 1

                         Standard orientation:
 ---------------------------------------------------------------------
 Center     Atomic      Atomic             Coordinates (Angstroms)
 Number     Number       Type             X           Y           Z
 ---------------------------------------------------------------------
      1         12           0       -5.237449    0.992824   -0.528785
      2          6           0       -3.971767   -2.248410   -0.370011
      3          6           0       -1.884659    2.134423   -0.314904
      4          6           0       -6.205444    4.185274    0.352283
      5          6           0       -8.452492   -0.268204    0.339058
      6          7           0       -3.229354    0.067273   -0.331714
      7          6           0       -2.975373   -1.262334   -0.367131
      8          6           0       -1.521716   -1.584924   -0.394807
      9          6           0       -0.818375   -0.182053   -0.126337
     10          6           0       -2.030229    0.767719   -0.286625
     11          6           0       -0.080678   -0.074568    1.285833
     12          6           0       -1.170761   -2.288556   -1.782093
     13          6           0       -0.196894   -3.505110   -1.736190
     14          6           0        0.737571   -3.712895   -0.540630
     15          8           0        0.662883   -4.619172    0.278523
     16          8           0        1.653881   -2.715422   -0.447629
     17          7           0       -4.208459    2.990681   -0.433503
     18          6           0       -2.853602    3.168659   -0.426306
     19          6           0       -2.637719    4.644403   -0.436030
     20          6           0       -3.974637    5.287552   -0.340561
     21          6           0       -4.894735    4.123170   -0.169971
     22          6           0       -1.256668    5.266437   -0.580521
     23          6           0       -4.456893    6.736736   -0.378322
     24          8           0       -5.650540    7.095824   -0.418703
     25          6           0       -3.427745    7.824658   -0.402191
     26          7           0       -7.034265    1.802783    0.329481
     27          6           0       -7.177526    3.187662    0.542093
     28          6           0       -8.554720    3.493036    0.915647
     29          6           0       -9.355512    2.169105    0.597189
     30          6           0       -8.239399    1.116477    0.405681
     31          6           0       -8.711947    3.986864    2.350365
     32          6           0      -10.296310    2.146096   -0.614592
     33          6           0      -11.540078    1.289277   -0.328091
     34          7           0       -6.107739   -0.861902   -0.319185
     35          6           0       -7.446622   -1.188052   -0.028115
     36          6           0       -7.562593   -2.670869   -0.160446
     37          6           0       -6.194588   -3.080869   -0.227216
     38          6           0       -5.361968   -1.960807   -0.374819
     39          6           0       -8.760249   -3.651735   -0.155495
     40          6           0       -5.391558   -4.289662   -0.346599
     41          8           0       -5.750140   -5.477873   -0.311486
     42          6           0       -3.914858   -3.783325   -0.452226
     43          6           0       -3.069679   -4.490460    0.648591
     44          8           0       -2.663264   -4.001496    1.658256
     45          8           0       -2.697332   -5.734937    0.146622
     46          6           0       -1.848819   -6.504056    1.049131
     47          6           0        2.485897   -2.675314    0.788470
     48          6           0        3.624491   -3.611217    0.829651
     49          6           0        4.833033   -3.410649    1.408948
     50          6           0        5.157470   -2.189913    2.267059
     51          6           0        6.098327   -4.270033    1.158125
     52          6           0        6.813092   -4.073107   -0.192913
     53          6           0        8.023882   -3.089116   -0.187487
     54          6           0        8.005721   -2.049392   -1.259252
     55          6           0        7.923320   -2.768518   -2.660266
     56          6           0        9.218132   -1.132648   -1.146489
     57          6           0        9.003054   -0.004506   -0.039201
     58          6           0        9.179012    1.450490   -0.587059
     59          6           0       10.240512    2.397261    0.175482
     60          6           0        9.656901    3.807917    0.294856
     61          6           0       11.582500    2.314436   -0.664568
     62          6           0       12.737917    1.716627    0.185552
     63          6           0       13.678085    2.668381    0.995512
     64          6           0       14.986086    3.002230    0.230510
     65          6           0       15.119121    4.501933    0.227946
     66          6           0       16.262479    2.234641    0.743351
     67          1           0       -0.868834    2.462155   -0.085601
     68          1           0       -6.721358    5.129279    0.534637
     69          1           0       -9.505452   -0.557737    0.338735
     70          1           0       -1.332801   -2.297741    0.407273
     71          1           0       -0.063514    0.112154   -0.855938
     72          1           0       -0.079451   -1.059398    1.753321
     73          1           0       -0.626959    0.614242    1.930285
     74          1           0        0.939488    0.291377    1.166082
     75          1           0       -0.807916   -1.450867   -2.377841
     76          1           0       -2.047501   -2.635849   -2.328100
     77          1           0        0.475557   -3.460894   -2.592893
     78          1           0       -0.814405   -4.397372   -1.837149
     79          1           0       -1.087644    5.736753    0.387170
     80          1           0       -1.236548    5.869301   -1.488977
     81          1           0       -0.514734    4.474035   -0.683541
     82          1           0       -2.857408    7.677806    0.514152
     83          1           0       -4.004165    8.748449   -0.348676
     84          1           0       -2.779980    7.819500   -1.279458
     85          1           0       -8.804154    4.279698    0.203089
     86          1           0       -9.884468    1.829765    1.487982
     87          1           0       -7.785036    4.374143    2.775347
     88          1           0       -9.077442    3.174384    2.978586
     89          1           0       -9.344003    4.870919    2.266666
     90          1           0       -9.784348    1.728543   -1.481168
     91          1           0      -10.526534    3.198145   -0.783780
     92          1           0      -11.429484    0.368827   -0.902121
     93          1           0      -12.501724    1.740228   -0.572703
     94          1           0      -11.649198    0.976107    0.710390
     95          1           0       -9.589639   -3.124991    0.316885
     96          1           0       -8.486462   -4.589512    0.328841
     97          1           0       -9.115472   -3.859301   -1.164299
     98          1           0       -3.631079   -4.090063   -1.459510
     99          1           0       -1.507489   -7.462226    0.657047
    100          1           0       -2.381793   -6.686610    1.982481
    101          1           0       -0.885447   -6.069045    1.315591
    102          1           0        1.933751   -2.933794    1.692448
    103          1           0        2.877389   -1.663039    0.895363
    104          1           0        3.631254   -4.462993    0.150507
    105          1           0        6.019161   -1.716536    1.796826
    106          1           0        5.530364   -2.610002    3.201379
    107          1           0        4.269930   -1.602152    2.501632
    108          1           0        5.818583   -5.314793    1.291526
    109          1           0        6.858899   -4.221878    1.937222
    110          1           0        5.980719   -3.738667   -0.811663
    111          1           0        7.239162   -5.024431   -0.512291
    112          1           0        8.899554   -3.719368   -0.346252
    113          1           0        8.151906   -2.674776    0.812246
    114          1           0        7.063260   -1.551660   -1.030962
    115          1           0        6.881213   -2.836524   -2.970869
    116          1           0        8.609135   -3.616009   -2.641553
    117          1           0        8.384529   -2.018910   -3.303004
    118          1           0        9.541712   -0.797914   -2.132196
    119          1           0       10.045354   -1.767018   -0.825365
    120          1           0        9.688190   -0.135782    0.798170
    121          1           0        8.026484   -0.058157    0.442388
    122          1           0        8.209812    1.948467   -0.572639
    123          1           0        9.445930    1.587071   -1.634754
    124          1           0       10.405492    2.041468    1.192278
    125          1           0        9.360049    3.998980    1.326357
    126          1           0        8.841075    3.955842   -0.412377
    127          1           0       10.256068    4.656949   -0.036632
    128          1           0       11.858227    3.306147   -1.022813
    129          1           0       11.546880    1.669438   -1.542953
    130          1           0       13.243599    1.033414   -0.496984
    131          1           0       12.268028    1.137856    0.981783
    132          1           0       13.924734    2.266809    1.978909
    133          1           0       13.054181    3.539825    1.194464
    134          1           0       14.721861    2.774779   -0.802393
    135          1           0       16.157596    4.816663    0.121455
    136          1           0       14.706933    4.867131    1.169022
    137          1           0       14.679573    5.030729   -0.616792
    138          1           0       16.067438    1.471884    1.497191
    139          1           0       17.005584    2.933197    1.126051
    140          1           0       16.799275    1.811446   -0.105549
 ---------------------------------------------------------------------

 SCF Done:  E(RwB97XD) =  -3007.85885439     A.U. after   19 cycles

 Excitation energies and oscillator strengths:

 Excited State   1:      Singlet-A      1.5675 eV  790.98 nm  f=0.4060  <S**2>=0.000
     245 -> 248       -0.17689
     246 -> 247        0.68599
     245 <- 248       -0.11824
 This state for optimization and/or second-order correction.
 Total Energy, E(TD-HF/TD-DFT) =  -3007.80125043
 Copying the excited state density for this state as the 1-particle RhoCI density.

 Excited State   2:      Singlet-A      2.1624 eV  573.37 nm  f=0.0942  <S**2>=0.000
     245 -> 247        0.63320
     246 -> 248        0.29525

 Excited State   3:      Singlet-A      3.2328 eV  383.52 nm  f=0.0071  <S**2>=0.000
     243 -> 247       -0.11634
     244 -> 247        0.64937
     246 -> 248       -0.18735

 Excited State   4:      Singlet-A      3.3223 eV  373.19 nm  f=0.0098  <S**2>=0.000
     241 -> 247        0.16683
     243 -> 247        0.62757
     246 -> 248       -0.20334

 Excited State   5:      Singlet-A      3.4112 eV  363.47 nm  f=0.0241  <S**2>=0.000
     240 -> 247       -0.12095
     241 -> 247        0.52295
     241 -> 249        0.27764
     241 -> 250       -0.22008
     243 -> 247       -0.19121

 The electronic state is 1-A.
 Alpha  occ. eigenvalues --  -46.95728 -19.31272 -19.29250 -19.25238 -19.25214
 Alpha  occ. eigenvalues --  -19.23743 -19.23532 -14.46896 -14.46221 -14.43938
 Alpha  occ. eigenvalues --  -14.43888 -10.43853 -10.43188 -10.38941 -10.38740
 Alpha  occ. eigenvalues --  -10.36768 -10.35041 -10.34940 -10.34903 -10.34820
 Alpha  occ. eigenvalues --  -10.34340 -10.34331 -10.34240 -10.33531 -10.33069
 Alpha  occ. eigenvalues --  -10.32937 -10.32921 -10.32726 -10.32564 -10.32172
 Alpha  occ. eigenvalues --  -10.32070 -10.32027 -10.31920 -10.31556 -10.31484
 Alpha  occ. eigenvalues --  -10.31405 -10.31343 -10.31092 -10.31037 -10.30881
 Alpha  occ. eigenvalues --  -10.30461 -10.30329 -10.30279 -10.30211 -10.30208
 Alpha  occ. eigenvalues --  -10.30060 -10.29860 -10.29809 -10.29710 -10.29542
 Alpha  occ. eigenvalues --  -10.29541 -10.29403 -10.29381 -10.29329 -10.29320
 Alpha  occ. eigenvalues --  -10.29241 -10.29047 -10.28818 -10.28774 -10.28675
 Alpha  occ. eigenvalues --  -10.28653 -10.28612 -10.28524 -10.28396 -10.28252
 Alpha  occ. eigenvalues --  -10.27697  -3.21539  -1.95102  -1.94646  -1.94503
 Alpha  occ. eigenvalues --   -1.19210  -1.18048  -1.10641  -1.10594  -1.10240
 Alpha  occ. eigenvalues --   -1.10165  -1.05887  -1.04865  -1.04389  -1.03443
 Alpha  occ. eigenvalues --   -0.94104  -0.92677  -0.91530  -0.90827  -0.90627
 Alpha  occ. eigenvalues --   -0.90585  -0.90315  -0.89542  -0.89044  -0.88017
 Alpha  occ. eigenvalues --   -0.87443  -0.87270  -0.86109  -0.85557  -0.84998
 Alpha  occ. eigenvalues --   -0.84232  -0.83671  -0.82975  -0.82305  -0.81930
 Alpha  occ. eigenvalues --   -0.81701  -0.79864  -0.79704  -0.78620  -0.77763
 Alpha  occ. eigenvalues --   -0.77431  -0.77374  -0.76981  -0.76756  -0.76239
 Alpha  occ. eigenvalues --   -0.75746  -0.74782  -0.73694  -0.72850  -0.71058
 Alpha  occ. eigenvalues --   -0.70455  -0.70066  -0.68913  -0.68636  -0.67474
 Alpha  occ. eigenvalues --   -0.67364  -0.67280  -0.66552  -0.66247  -0.66234
 Alpha  occ. eigenvalues --   -0.65871  -0.65060  -0.64432  -0.63692  -0.62011
 Alpha  occ. eigenvalues --   -0.61295  -0.61013  -0.60641  -0.60290  -0.59721
 Alpha  occ. eigenvalues --   -0.59228  -0.58975  -0.57840  -0.57611  -0.57522
 Alpha  occ. eigenvalues --   -0.56937  -0.56597  -0.56107  -0.55873  -0.55550
 Alpha  occ. eigenvalues --   -0.55457  -0.55252  -0.54967  -0.54504  -0.54355
 Alpha  occ. eigenvalues --   -0.54089  -0.53943  -0.53900  -0.53791  -0.53631
 Alpha  occ. eigenvalues --   -0.53270  -0.53158  -0.52977  -0.52738  -0.52361
 Alpha  occ. eigenvalues --   -0.52346  -0.52211  -0.51886  -0.51612  -0.51167
 Alpha  occ. eigenvalues --   -0.51039  -0.50891  -0.50855  -0.50750  -0.50615
 Alpha  occ. eigenvalues --   -0.50337  -0.50282  -0.50126  -0.49810  -0.49668
 Alpha  occ. eigenvalues --   -0.49659  -0.49399  -0.49152  -0.48667  -0.48428
 Alpha  occ. eigenvalues --   -0.48321  -0.48154  -0.47988  -0.47833  -0.47494
 Alpha  occ. eigenvalues --   -0.47251  -0.47076  -0.46822  -0.46776  -0.46757
 Alpha  occ. eigenvalues --   -0.46678  -0.46617  -0.46306  -0.46126  -0.45960
 Alpha  occ. eigenvalues --   -0.45848  -0.45503  -0.45290  -0.45023  -0.44793
 Alpha  occ. eigenvalues --   -0.44581  -0.44413  -0.44252  -0.44126  -0.44075
 Alpha  occ. eigenvalues --   -0.43855  -0.43330  -0.43227  -0.43059  -0.42942
 Alpha  occ. eigenvalues --   -0.42679  -0.42512  -0.42442  -0.42221  -0.42068
 Alpha  occ. eigenvalues --   -0.41495  -0.41452  -0.41174  -0.41126  -0.40852
 Alpha  occ. eigenvalues --   -0.40596  -0.40013  -0.39861  -0.39516  -0.38997
 Alpha  occ. eigenvalues --   -0.38972  -0.38772  -0.38691  -0.38566  -0.37996
 Alpha  occ. eigenvalues --   -0.37754  -0.37704  -0.36928  -0.36596  -0.36128
 Alpha  occ. eigenvalues --   -0.35849  -0.35767  -0.35093  -0.33187  -0.32607
 Alpha  occ. eigenvalues --   -0.32359  -0.31867  -0.31651  -0.31059  -0.26064
 Alpha  occ. eigenvalues --   -0.22546
 Alpha virt. eigenvalues --   -0.07151   0.00354   0.02339   0.04145   0.04703
 Alpha virt. eigenvalues --    0.06573   0.07530   0.07754   0.08270   0.10001
 Alpha virt. eigenvalues --    0.10895   0.11274   0.11583   0.12354   0.12851

 Mulliken charges:
               1
     1  Mg   0.946096
     2  C    0.000346
     3  C   -0.079473
     4  C   -0.026759
     5  C   -0.061739
     6  N   -0.356192
     7  C    0.025788
     8  C   -0.118263
     9  C   -0.096448
    10  C    0.058614
    11  C    0.010318
    12  C    0.036094
    13  C    0.027220
    14  C    0.187233
    15  O   -0.256535
    16  O   -0.364649
    17  N   -0.396129
    18  C    0.152676
    19  C   -0.201890
    20  C   -0.093454
    21  C    0.152795
    22  C    0.071930
    23  C    0.054589
    24  O   -0.259098
    25  C   -0.014248
    26  N   -0.407797
    27  C    0.032161
    28  C   -0.101364
    29  C   -0.103797
    30  C    0.047654
    31  C    0.048080
    32  C    0.024638
    33  C   -0.065211
    34  N   -0.462649
    35  C    0.135293
    36  C   -0.169967
    37  C   -0.070101
    38  C    0.141153
    39  C    0.082481
    40  C    0.111229
    41  O   -0.219470
    42  C   -0.098741
    43  C    0.290260
    44  O   -0.211096
    45  O   -0.364384
    46  C    0.139106
    47  C    0.261613
    48  C   -0.112707
    49  C   -0.243186
    50  C    0.038556
    51  C    0.011220
    52  C   -0.000115
    53  C   -0.013395
    54  C   -0.226914
    55  C    0.033345
    56  C    0.045185
    57  C    0.001246
    58  C   -0.005448
    59  C   -0.200025
    60  C    0.002711
    61  C    0.032454
    62  C   -0.070581
    63  C    0.010522
    64  C   -0.191692
    65  C   -0.012641
    66  C    0.011059
    67  H   -0.003162
    68  H    0.019379
    69  H    0.002356
    70  H    0.069751
    71  H    0.038899
    72  H    0.049863
    73  H    0.046612
    74  H    0.036863
    75  H    0.027007
    76  H    0.042475
    77  H    0.056944
    78  H    0.057397
    79  H    0.060562
    80  H    0.065252
    81  H    0.027783
    82  H    0.048529
    83  H    0.054300
    84  H    0.060935
    85  H    0.041253
    86  H    0.027623
    87  H    0.038697
    88  H    0.043640
    89  H    0.042080
    90  H    0.043847
    91  H    0.035949
    92  H    0.040029
    93  H    0.043318
    94  H    0.032327
    95  H    0.026057
    96  H    0.073809
    97  H    0.054192
    98  H    0.080374
    99  H    0.041852
   100  H    0.039401
   101  H    0.059398
   102  H    0.070022
   103  H    0.051132
   104  H    0.027114
   105  H    0.047105
   106  H    0.040991
   107  H    0.032746
   108  H    0.027834
   109  H    0.007454
   110  H    0.018955
   111  H    0.029379
   112  H    0.005284
   113  H    0.006920
   114  H    0.013472
   115  H    0.045650
   116  H    0.030762
   117  H    0.012200
   118  H    0.017758
   119  H    0.008442
   120  H    0.021434
   121  H    0.024267
   122  H    0.008936
   123  H    0.014284
   124  H    0.023050
   125  H    0.036688
   126  H    0.016316
   127  H    0.017222
   128  H    0.010974
   129  H    0.023036
   130  H    0.019365
   131  H    0.013175
   132  H    0.015407
   133  H    0.011985
   134  H    0.020473
   135  H    0.011097
   136  H    0.030148
   137  H    0.026883
   138  H    0.037160
   139  H    0.021692
   140  H    0.030085
 Sum of Mulliken charges =  -0.00000

 Dipole moment (field-independent basis, Debye):
    X=              3.8017    Y=              3.0165    Z=             -1.7997  Tot=              5.1760
 Quadrupole moment (field-independent basis, Debye-Ang):
   XX=           -366.9951   YY=           -440.9260   ZZ=           -398.1895
   XY=            -11.9225   XZ=              4.6448   YZ=              5.6470

 Normal termination of Gaussian 16 at Fri Apr 29 05:12:05 2022.
