 Gaussian 16, Revision A.03,
 Gaussian 16:  ES64L-G16RevA.03 25-Dec-2016

 --------------------
 #p ZINDO=(nstates=5)
 --------------------

 -----------------------------
 step_1851_chromophore_6 ZINDO
 -----------------------------
 Symbolic Z-matrix:
 Charge =  0 Multiplicity = 1

                         Standard orientation:
 ---------------------------------------------------------------------
 Center     Atomic      Atomic             Coordinates (Angstroms)
 Number     Number       Type             X           Y           Z
 ---------------------------------------------------------------------
      1         12           0       -5.237449    0.992824   -0.528785
      2          6           0       -3.971767   -2.248410   -0.370011
      3          6           0       -1.884659    2.134423   -0.314904
      4          6           0       -6.205444    4.185274    0.352283
      5          6           0       -8.452492   -0.268204    0.339058
      6          7           0       -3.229354    0.067273   -0.331714
      7          6           0       -2.975373   -1.262334   -0.367131
      8          6           0       -1.521716   -1.584924   -0.394807
      9          6           0       -0.818375   -0.182053   -0.126337
     10          6           0       -2.030229    0.767719   -0.286625
     11          6           0       -0.080678   -0.074568    1.285833
     12          6           0       -1.170761   -2.288556   -1.782093
     13          6           0       -0.196894   -3.505110   -1.736190
     14          6           0        0.737571   -3.712895   -0.540630
     15          8           0        0.662883   -4.619172    0.278523
     16          8           0        1.653881   -2.715422   -0.447629
     17          7           0       -4.208459    2.990681   -0.433503
     18          6           0       -2.853602    3.168659   -0.426306
     19          6           0       -2.637719    4.644403   -0.436030
     20          6           0       -3.974637    5.287552   -0.340561
     21          6           0       -4.894735    4.123170   -0.169971
     22          6           0       -1.256668    5.266437   -0.580521
     23          6           0       -4.456893    6.736736   -0.378322
     24          8           0       -5.650540    7.095824   -0.418703
     25          6           0       -3.427745    7.824658   -0.402191
     26          7           0       -7.034265    1.802783    0.329481
     27          6           0       -7.177526    3.187662    0.542093
     28          6           0       -8.554720    3.493036    0.915647
     29          6           0       -9.355512    2.169105    0.597189
     30          6           0       -8.239399    1.116477    0.405681
     31          6           0       -8.711947    3.986864    2.350365
     32          6           0      -10.296310    2.146096   -0.614592
     33          6           0      -11.540078    1.289277   -0.328091
     34          7           0       -6.107739   -0.861902   -0.319185
     35          6           0       -7.446622   -1.188052   -0.028115
     36          6           0       -7.562593   -2.670869   -0.160446
     37          6           0       -6.194588   -3.080869   -0.227216
     38          6           0       -5.361968   -1.960807   -0.374819
     39          6           0       -8.760249   -3.651735   -0.155495
     40          6           0       -5.391558   -4.289662   -0.346599
     41          8           0       -5.750140   -5.477873   -0.311486
     42          6           0       -3.914858   -3.783325   -0.452226
     43          6           0       -3.069679   -4.490460    0.648591
     44          8           0       -2.663264   -4.001496    1.658256
     45          8           0       -2.697332   -5.734937    0.146622
     46          6           0       -1.848819   -6.504056    1.049131
     47          6           0        2.485897   -2.675314    0.788470
     48          6           0        3.624491   -3.611217    0.829651
     49          6           0        4.833033   -3.410649    1.408948
     50          6           0        5.157470   -2.189913    2.267059
     51          6           0        6.098327   -4.270033    1.158125
     52          6           0        6.813092   -4.073107   -0.192913
     53          6           0        8.023882   -3.089116   -0.187487
     54          6           0        8.005721   -2.049392   -1.259252
     55          6           0        7.923320   -2.768518   -2.660266
     56          6           0        9.218132   -1.132648   -1.146489
     57          6           0        9.003054   -0.004506   -0.039201
     58          6           0        9.179012    1.450490   -0.587059
     59          6           0       10.240512    2.397261    0.175482
     60          6           0        9.656901    3.807917    0.294856
     61          6           0       11.582500    2.314436   -0.664568
     62          6           0       12.737917    1.716627    0.185552
     63          6           0       13.678085    2.668381    0.995512
     64          6           0       14.986086    3.002230    0.230510
     65          6           0       15.119121    4.501933    0.227946
     66          6           0       16.262479    2.234641    0.743351
     67          1           0       -0.868834    2.462155   -0.085601
     68          1           0       -6.721358    5.129279    0.534637
     69          1           0       -9.505452   -0.557737    0.338735
     70          1           0       -1.332801   -2.297741    0.407273
     71          1           0       -0.063514    0.112154   -0.855938
     72          1           0       -0.079451   -1.059398    1.753321
     73          1           0       -0.626959    0.614242    1.930285
     74          1           0        0.939488    0.291377    1.166082
     75          1           0       -0.807916   -1.450867   -2.377841
     76          1           0       -2.047501   -2.635849   -2.328100
     77          1           0        0.475557   -3.460894   -2.592893
     78          1           0       -0.814405   -4.397372   -1.837149
     79          1           0       -1.087644    5.736753    0.387170
     80          1           0       -1.236548    5.869301   -1.488977
     81          1           0       -0.514734    4.474035   -0.683541
     82          1           0       -2.857408    7.677806    0.514152
     83          1           0       -4.004165    8.748449   -0.348676
     84          1           0       -2.779980    7.819500   -1.279458
     85          1           0       -8.804154    4.279698    0.203089
     86          1           0       -9.884468    1.829765    1.487982
     87          1           0       -7.785036    4.374143    2.775347
     88          1           0       -9.077442    3.174384    2.978586
     89          1           0       -9.344003    4.870919    2.266666
     90          1           0       -9.784348    1.728543   -1.481168
     91          1           0      -10.526534    3.198145   -0.783780
     92          1           0      -11.429484    0.368827   -0.902121
     93          1           0      -12.501724    1.740228   -0.572703
     94          1           0      -11.649198    0.976107    0.710390
     95          1           0       -9.589639   -3.124991    0.316885
     96          1           0       -8.486462   -4.589512    0.328841
     97          1           0       -9.115472   -3.859301   -1.164299
     98          1           0       -3.631079   -4.090063   -1.459510
     99          1           0       -1.507489   -7.462226    0.657047
    100          1           0       -2.381793   -6.686610    1.982481
    101          1           0       -0.885447   -6.069045    1.315591
    102          1           0        1.933751   -2.933794    1.692448
    103          1           0        2.877389   -1.663039    0.895363
    104          1           0        3.631254   -4.462993    0.150507
    105          1           0        6.019161   -1.716536    1.796826
    106          1           0        5.530364   -2.610002    3.201379
    107          1           0        4.269930   -1.602152    2.501632
    108          1           0        5.818583   -5.314793    1.291526
    109          1           0        6.858899   -4.221878    1.937222
    110          1           0        5.980719   -3.738667   -0.811663
    111          1           0        7.239162   -5.024431   -0.512291
    112          1           0        8.899554   -3.719368   -0.346252
    113          1           0        8.151906   -2.674776    0.812246
    114          1           0        7.063260   -1.551660   -1.030962
    115          1           0        6.881213   -2.836524   -2.970869
    116          1           0        8.609135   -3.616009   -2.641553
    117          1           0        8.384529   -2.018910   -3.303004
    118          1           0        9.541712   -0.797914   -2.132196
    119          1           0       10.045354   -1.767018   -0.825365
    120          1           0        9.688190   -0.135782    0.798170
    121          1           0        8.026484   -0.058157    0.442388
    122          1           0        8.209812    1.948467   -0.572639
    123          1           0        9.445930    1.587071   -1.634754
    124          1           0       10.405492    2.041468    1.192278
    125          1           0        9.360049    3.998980    1.326357
    126          1           0        8.841075    3.955842   -0.412377
    127          1           0       10.256068    4.656949   -0.036632
    128          1           0       11.858227    3.306147   -1.022813
    129          1           0       11.546880    1.669438   -1.542953
    130          1           0       13.243599    1.033414   -0.496984
    131          1           0       12.268028    1.137856    0.981783
    132          1           0       13.924734    2.266809    1.978909
    133          1           0       13.054181    3.539825    1.194464
    134          1           0       14.721861    2.774779   -0.802393
    135          1           0       16.157596    4.816663    0.121455
    136          1           0       14.706933    4.867131    1.169022
    137          1           0       14.679573    5.030729   -0.616792
    138          1           0       16.067438    1.471884    1.497191
    139          1           0       17.005584    2.933197    1.126051
    140          1           0       16.799275    1.811446   -0.105549
 ---------------------------------------------------------------------

 SCF Done:  E(RZINDO/S) =  -473.934468036     A.U. after   20 cycles

 Excitation energies and oscillator strengths:

 Excited State   1:      Singlet-A      1.1736 eV 1056.43 nm  f=0.6677  <S**2>=0.000
     175 ->178        -0.18558
     176 ->177         0.66436
 This state for optimization and/or second-order correction.
 Total Energy, E(CIS/TDA) =  -473.891338453
 Copying the excited state density for this state as the 1-particle RhoCI density.

 Excited State   2:      Singlet-A      1.9100 eV  649.12 nm  f=0.0307  <S**2>=0.000
     175 ->177         0.53831
     176 ->178         0.43485

 Excited State   3:      Singlet-A      2.8900 eV  429.01 nm  f=0.3538  <S**2>=0.000
     169 ->179         0.10286
     174 ->177        -0.21246
     175 ->177        -0.24009
     176 ->178         0.34409
     176 ->179         0.42019
     176 ->180         0.10156

 Excited State   4:      Singlet-A      2.9336 eV  422.63 nm  f=0.0046  <S**2>=0.000
     176 ->179        -0.12338
     176 ->180         0.62304
     176 ->181        -0.27437

 Excited State   5:      Singlet-A      2.9492 eV  420.40 nm  f=0.3591  <S**2>=0.000
     171 ->177        -0.13213
     174 ->177         0.22210
     175 ->177         0.22590
     176 ->178        -0.31309
     176 ->179         0.44070
     176 ->180         0.12847

 The electronic state is 1-A.
 Alpha  occ. eigenvalues --   -1.83305  -1.79386  -1.77844  -1.73032  -1.70810
 Alpha  occ. eigenvalues --   -1.69305  -1.65070  -1.61260  -1.57058  -1.56829
 Alpha  occ. eigenvalues --   -1.54001  -1.51259  -1.48708  -1.46816  -1.45990
 Alpha  occ. eigenvalues --   -1.44319  -1.43386  -1.40101  -1.37908  -1.37077
 Alpha  occ. eigenvalues --   -1.35697  -1.32915  -1.31319  -1.30994  -1.27805
 Alpha  occ. eigenvalues --   -1.27288  -1.24999  -1.21988  -1.20068  -1.17507
 Alpha  occ. eigenvalues --   -1.16673  -1.16009  -1.14949  -1.14546  -1.13291
 Alpha  occ. eigenvalues --   -1.11914  -1.10935  -1.09824  -1.05323  -1.03299
 Alpha  occ. eigenvalues --   -1.02949  -1.01931  -0.98145  -0.97717  -0.97257
 Alpha  occ. eigenvalues --   -0.96943  -0.94081  -0.93722  -0.92544  -0.91530
 Alpha  occ. eigenvalues --   -0.91441  -0.90608  -0.89532  -0.87736  -0.87711
 Alpha  occ. eigenvalues --   -0.85340  -0.84446  -0.83838  -0.81692  -0.79672
 Alpha  occ. eigenvalues --   -0.78610  -0.77976  -0.76710  -0.76281  -0.75955
 Alpha  occ. eigenvalues --   -0.75447  -0.75067  -0.74421  -0.73277  -0.72946
 Alpha  occ. eigenvalues --   -0.72816  -0.72240  -0.71935  -0.71461  -0.70567
 Alpha  occ. eigenvalues --   -0.70417  -0.69046  -0.68338  -0.67911  -0.67784
 Alpha  occ. eigenvalues --   -0.67361  -0.66902  -0.66798  -0.66464  -0.65783
 Alpha  occ. eigenvalues --   -0.65330  -0.65128  -0.64549  -0.63998  -0.63647
 Alpha  occ. eigenvalues --   -0.63066  -0.62830  -0.62481  -0.61554  -0.61423
 Alpha  occ. eigenvalues --   -0.61157  -0.61048  -0.60439  -0.60355  -0.60186
 Alpha  occ. eigenvalues --   -0.59953  -0.59379  -0.58551  -0.58460  -0.58282
 Alpha  occ. eigenvalues --   -0.58007  -0.57868  -0.57460  -0.56833  -0.56363
 Alpha  occ. eigenvalues --   -0.56068  -0.55941  -0.55362  -0.55207  -0.54479
 Alpha  occ. eigenvalues --   -0.53895  -0.53853  -0.53667  -0.53256  -0.53130
 Alpha  occ. eigenvalues --   -0.52750  -0.52475  -0.52188  -0.52024  -0.51394
 Alpha  occ. eigenvalues --   -0.51170  -0.50980  -0.50697  -0.50583  -0.50477
 Alpha  occ. eigenvalues --   -0.50064  -0.49934  -0.49483  -0.49299  -0.48969
 Alpha  occ. eigenvalues --   -0.48690  -0.48583  -0.48444  -0.48340  -0.47669
 Alpha  occ. eigenvalues --   -0.47540  -0.47383  -0.46406  -0.46289  -0.45834
 Alpha  occ. eigenvalues --   -0.45739  -0.45670  -0.45271  -0.45222  -0.45093
 Alpha  occ. eigenvalues --   -0.44874  -0.44806  -0.44595  -0.44371  -0.43888
 Alpha  occ. eigenvalues --   -0.43835  -0.43672  -0.42511  -0.42220  -0.42069
 Alpha  occ. eigenvalues --   -0.41898  -0.41641  -0.41279  -0.38982  -0.38719
 Alpha  occ. eigenvalues --   -0.38328  -0.36880  -0.35214  -0.34923  -0.34614
 Alpha  occ. eigenvalues --   -0.32630  -0.32205  -0.31572  -0.31419  -0.26762
 Alpha  occ. eigenvalues --   -0.21225
 Alpha virt. eigenvalues --   -0.08680  -0.01787  -0.00498   0.01069   0.01155
 Alpha virt. eigenvalues --    0.01923   0.02756   0.02916   0.04596   0.04921
 Alpha virt. eigenvalues --    0.06180   0.07100   0.07150   0.07893   0.08065

 Mulliken charges:
               1
     1  Mg   0.417841
     2  C   -0.064913
     3  C   -0.069778
     4  C   -0.069555
     5  C   -0.072778
     6  N   -0.286619
     7  C    0.155327
     8  C    0.003800
     9  C   -0.002998
    10  C    0.115095
    11  C   -0.052891
    12  C   -0.022297
    13  C    0.006301
    14  C    0.474423
    15  O   -0.513582
    16  O   -0.273446
    17  N   -0.317492
    18  C    0.100892
    19  C   -0.004107
    20  C   -0.076557
    21  C    0.149905
    22  C   -0.043522
    23  C    0.330594
    24  O   -0.538022
    25  C   -0.031896
    26  N   -0.296678
    27  C    0.140751
    28  C    0.011180
    29  C   -0.001818
    30  C    0.133605
    31  C   -0.046649
    32  C   -0.019086
    33  C   -0.057414
    34  N   -0.321685
    35  C    0.107621
    36  C    0.022367
    37  C   -0.059077
    38  C    0.126647
    39  C   -0.032796
    40  C    0.323913
    41  O   -0.528471
    42  C    0.054764
    43  C    0.485893
    44  O   -0.492025
    45  O   -0.262161
    46  C    0.070008
    47  C    0.115238
    48  C   -0.078338
    49  C   -0.017556
    50  C   -0.052495
    51  C   -0.024231
    52  C   -0.037364
    53  C   -0.030501
    54  C   -0.011205
    55  C   -0.068354
    56  C   -0.031950
    57  C   -0.034294
    58  C   -0.046337
    59  C   -0.012600
    60  C   -0.060013
    61  C   -0.035311
    62  C   -0.046054
    63  C   -0.033817
    64  C   -0.008585
    65  C   -0.055089
    66  C   -0.054875
    67  H    0.022096
    68  H    0.044344
    69  H    0.036229
    70  H    0.051525
    71  H    0.029619
    72  H    0.029905
    73  H    0.025731
    74  H    0.020842
    75  H    0.022074
    76  H    0.026854
    77  H    0.036678
    78  H    0.038520
    79  H    0.037530
    80  H    0.038692
    81  H    0.021042
    82  H    0.034059
    83  H    0.037630
    84  H    0.041243
    85  H    0.033464
    86  H    0.028140
    87  H    0.023981
    88  H    0.029325
    89  H    0.022640
    90  H    0.029509
    91  H    0.022612
    92  H    0.016328
    93  H    0.020683
    94  H    0.018995
    95  H    0.020246
    96  H    0.047979
    97  H    0.035615
    98  H    0.060210
    99  H    0.029061
   100  H    0.038209
   101  H    0.051211
   102  H    0.058381
   103  H    0.035997
   104  H    0.033029
   105  H    0.035742
   106  H    0.022352
   107  H    0.027080
   108  H    0.014867
   109  H    0.014937
   110  H    0.025722
   111  H    0.020670
   112  H    0.009285
   113  H    0.013643
   114  H    0.019308
   115  H    0.032828
   116  H    0.035351
   117  H    0.007652
   118  H    0.025546
   119  H    0.014123
   120  H    0.019520
   121  H    0.021908
   122  H    0.008747
   123  H    0.022659
   124  H    0.028225
   125  H    0.019102
   126  H    0.015678
   127  H    0.015478
   128  H    0.019079
   129  H    0.021363
   130  H    0.017852
   131  H    0.009606
   132  H    0.017615
   133  H    0.018226
   134  H    0.020708
   135  H    0.006547
   136  H    0.019787
   137  H    0.017431
   138  H    0.027076
   139  H    0.018564
   140  H    0.016610
 Sum of Mulliken charges =  -0.00000

 Dipole moment (field-independent basis, Debye):
    X=              4.3034    Y=              4.1678    Z=             -2.8746  Tot=              6.6448
 N-N= 4.338420253213D+03 E-N= 0.000000000000D+00  KE=-9.351206550406D+03
 Leave Link  601 at Fri Apr 29 05:24:30 2022, MaxMem=  6710886400 cpu:               0.8 elap:               0.1
 (Enter /sw/apps/gaussian-16.0/g16/l9999.exe)
 1\1\GINC-BP1-COMPUTE070\SP\RZINDO CIS\STO-3G\C55H74Mg1N4O6\OF15641\29-
 Apr-2022\0\\#p ZINDO=(nstates=5)\\step_1851_chromophore_6 ZINDO\\0,1\M
 g,0,17.621,-1.816,27.677\C,0,16.915,0.374,30.292\C,0,19.593,-3.663,29.
 977\C,0,19.278,-3.498,25.161\C,0,16.542,0.668,25.365\N,0,18.195,-1.638
 ,29.814\C,0,17.718,-0.709,30.676\C,0,18.137,-0.942,32.086\C,0,19.214,-
 2.109,31.972\C,0,18.995,-2.542,30.502\C,0,20.709,-1.661,32.31\C,0,16.8
 47,-1.265,32.966\C,0,16.768,-0.611,34.379\C,0,18.033,-0.1,35.075\O,0,1

 Normal termination of Gaussian 16 at Fri Apr 29 05:24:30 2022.
