 Gaussian 16, Revision A.03,
 Gaussian 16:  ES64L-G16RevA.03 25-Dec-2016

 ------------------------------
 #p blyp/Def2SVP td=(nstates=5)
 ------------------------------

 ---------------------------------------------------
 step_1601_chromophore_13 TDDFT with blyp functional
 ---------------------------------------------------
 Symbolic Z-matrix:
 Charge =  0 Multiplicity = 1

                         Standard orientation:
 ---------------------------------------------------------------------
 Center     Atomic      Atomic             Coordinates (Angstroms)
 Number     Number       Type             X           Y           Z
 ---------------------------------------------------------------------
      1         12           0       -5.782184    0.357881   -0.431430
      2          6           0       -3.639937   -2.327846   -0.182911
      3          6           0       -3.265044    2.501565    0.312683
      4          6           0       -8.057147    2.742454    0.449998
      5          6           0       -8.418664   -2.009762   -0.514143
      6          7           0       -3.725786    0.133983   -0.163000
      7          6           0       -3.050718   -1.084436    0.019444
      8          6           0       -1.589945   -0.924462    0.519124
      9          6           0       -1.536776    0.601781    0.807748
     10          6           0       -2.923220    1.174893    0.197744
     11          6           0       -1.356008    1.062288    2.405310
     12          6           0       -0.555295   -1.453266   -0.529823
     13          6           0        0.837629   -1.720719    0.141039
     14          6           0        2.027620   -1.902978   -0.842724
     15          8           0        1.912903   -1.985152   -2.058037
     16          8           0        3.276845   -1.932668   -0.209987
     17          7           0       -5.618181    2.494479   -0.044280
     18          6           0       -4.482737    3.156386    0.158877
     19          6           0       -4.822223    4.567501    0.262153
     20          6           0       -6.199822    4.642209    0.275211
     21          6           0       -6.717287    3.288411    0.238542
     22          6           0       -3.799293    5.731356    0.269184
     23          6           0       -7.122810    5.849104    0.466403
     24          8           0       -8.313281    5.627133    0.426045
     25          6           0       -6.560173    7.219144    0.691807
     26          7           0       -7.851339    0.263510    0.045866
     27          6           0       -8.550627    1.433087    0.294987
     28          6           0       -9.953349    1.102094    0.703764
     29          6           0      -10.161052   -0.306683   -0.016699
     30          6           0       -8.770114   -0.728363   -0.260760
     31          6           0      -10.284701    1.124162    2.209055
     32          6           0      -11.024469   -0.415208   -1.287517
     33          6           0      -10.289385   -0.232500   -2.674346
     34          7           0       -5.969404   -1.714296   -0.600817
     35          6           0       -7.101368   -2.471815   -0.713563
     36          6           0       -6.754452   -3.853526   -0.996712
     37          6           0       -5.354923   -3.828255   -0.705217
     38          6           0       -4.974927   -2.568156   -0.420175
     39          6           0       -7.768057   -4.931053   -1.443494
     40          6           0       -4.167993   -4.692223   -0.453037
     41          8           0       -4.001529   -5.888104   -0.606872
     42          6           0       -3.030675   -3.731721   -0.088629
     43          6           0       -2.483017   -4.089999    1.265348
     44          8           0       -2.953385   -3.685892    2.338252
     45          8           0       -1.371063   -4.889978    1.096860
     46          6           0       -0.715059   -5.177971    2.392561
     47          6           0        4.457678   -1.728087   -1.081212
     48          6           0        5.297606   -0.801636   -0.185906
     49          6           0        6.630131   -0.802226   -0.121678
     50          6           0        7.615934   -1.674772   -0.918577
     51          6           0        7.436824    0.120129    0.780531
     52          6           0        6.961900    1.597429    0.789167
     53          6           0        8.145244    2.693092    0.879082
     54          6           0        8.411008    3.615051   -0.318493
     55          6           0        7.184958    4.488252   -0.525381
     56          6           0        8.782275    2.742477   -1.615379
     57          6           0       10.312429    2.705422   -1.966788
     58          6           0       10.882145    1.347729   -2.127064
     59          6           0       12.345457    1.147065   -1.589936
     60          6           0       13.476452    1.055241   -2.688198
     61          6           0       12.454462   -0.071912   -0.626876
     62          6           0       12.364618    0.334114    0.870439
     63          6           0       13.764616    0.113690    1.536477
     64          6           0       14.193644   -1.443953    1.716689
     65          6           0       14.641489   -1.667885    3.158581
     66          6           0       15.081697   -1.937414    0.634795
     67          1           0       -2.478272    3.208727    0.584816
     68          1           0       -8.845649    3.450952    0.713427
     69          1           0       -9.277051   -2.672279   -0.644061
     70          1           0       -1.486677   -1.309168    1.534022
     71          1           0       -0.612044    0.981259    0.372814
     72          1           0       -0.610872    1.831984    2.607228
     73          1           0       -1.284841    0.181920    3.044459
     74          1           0       -2.356989    1.431894    2.625038
     75          1           0       -0.429191   -0.611569   -1.211710
     76          1           0       -0.943307   -2.296542   -1.101186
     77          1           0        0.806604   -2.587454    0.800972
     78          1           0        1.120195   -0.845776    0.726765
     79          1           0       -2.780854    5.357947    0.167755
     80          1           0       -3.989692    6.290902    1.185688
     81          1           0       -4.066149    6.402613   -0.546723
     82          1           0       -6.041194    7.494532   -0.226922
     83          1           0       -5.919231    7.097460    1.565143
     84          1           0       -7.411162    7.867220    0.899142
     85          1           0      -10.590339    1.834602    0.207778
     86          1           0      -10.604509   -1.084351    0.605927
     87          1           0      -10.276792    0.148169    2.693636
     88          1           0      -11.213350    1.659801    2.406610
     89          1           0       -9.506972    1.648257    2.764516
     90          1           0      -11.908535    0.216768   -1.197561
     91          1           0      -11.278393   -1.472136   -1.357419
     92          1           0      -10.984819    0.331420   -3.296775
     93          1           0      -10.008896   -1.141212   -3.207204
     94          1           0       -9.367075    0.347700   -2.669247
     95          1           0       -8.533501   -4.385588   -1.996295
     96          1           0       -8.220394   -5.334739   -0.537448
     97          1           0       -7.417390   -5.724906   -2.102998
     98          1           0       -2.319131   -4.052037   -0.848959
     99          1           0       -0.154136   -6.102616    2.256213
    100          1           0       -1.351462   -5.143643    3.277062
    101          1           0        0.059950   -4.423506    2.528778
    102          1           0        4.370838   -1.232489   -2.048578
    103          1           0        4.858438   -2.717810   -1.301233
    104          1           0        4.718264   -0.122944    0.439895
    105          1           0        8.107407   -2.282499   -0.159116
    106          1           0        8.296095   -1.139532   -1.580301
    107          1           0        7.082778   -2.344352   -1.594037
    108          1           0        8.483902    0.127962    0.476735
    109          1           0        7.355169   -0.332893    1.769100
    110          1           0        6.260141    1.778250    1.601928
    111          1           0        6.279715    1.845230   -0.023361
    112          1           0        9.078754    2.164759    1.072738
    113          1           0        8.014837    3.378184    1.717355
    114          1           0        9.217523    4.314378   -0.096905
    115          1           0        6.785028    4.816305    0.434033
    116          1           0        6.373900    3.987351   -1.054721
    117          1           0        7.548184    5.374055   -1.045827
    118          1           0        8.366345    3.115137   -2.551567
    119          1           0        8.547968    1.680097   -1.552923
    120          1           0       10.698734    3.272138   -1.118916
    121          1           0       10.407467    3.301816   -2.874244
    122          1           0       10.928319    1.166759   -3.201619
    123          1           0       10.227383    0.542119   -1.795069
    124          1           0       12.511073    2.052542   -1.006351
    125          1           0       14.430734    1.437146   -2.325341
    126          1           0       13.257843    1.690087   -3.547652
    127          1           0       13.565002    0.061519   -3.125625
    128          1           0       13.335157   -0.663003   -0.876272
    129          1           0       11.655451   -0.791403   -0.805173
    130          1           0       11.522001   -0.166939    1.348578
    131          1           0       12.134593    1.371671    1.112088
    132          1           0       13.873220    0.751879    2.412487
    133          1           0       14.537847    0.483041    0.862711
    134          1           0       13.271081   -2.024300    1.700870
    135          1           0       14.443481   -0.821422    3.816658
    136          1           0       15.720913   -1.789325    3.251234
    137          1           0       14.236653   -2.608868    3.531136
    138          1           0       14.611429   -2.607390   -0.085798
    139          1           0       15.975748   -2.409624    1.042046
    140          1           0       15.380675   -1.219025   -0.128578
 ---------------------------------------------------------------------

 SCF Done:  E(RB-LYP) =  -3007.35721269     A.U. after   21 cycles

 Excitation energies and oscillator strengths:

 Excited State   1:      Singlet-A      1.8136 eV  683.65 nm  f=0.3199  <S**2>=0.000
     245 -> 248        0.17803
     246 -> 247        0.69612
     246 <- 247       -0.16079
 This state for optimization and/or second-order correction.
 Total Energy, E(TD-HF/TD-DFT) =  -3007.29056537
 Copying the excited state density for this state as the 1-particle RhoCI density.

 Excited State   2:      Singlet-A      1.9102 eV  649.06 nm  f=0.0032  <S**2>=0.000
     244 -> 247        0.68802
     245 -> 247        0.15183

 Excited State   3:      Singlet-A      2.0204 eV  613.66 nm  f=0.0283  <S**2>=0.000
     243 -> 247        0.51666
     244 -> 247        0.12291
     245 -> 247       -0.43201
     246 -> 248        0.15063

 Excited State   4:      Singlet-A      2.0726 eV  598.21 nm  f=0.0385  <S**2>=0.000
     243 -> 247        0.48072
     245 -> 247        0.45591
     246 -> 248       -0.19454

 Excited State   5:      Singlet-A      2.3794 eV  521.07 nm  f=0.0010  <S**2>=0.000
     241 -> 247        0.65082
     242 -> 247        0.27062

 The electronic state is 1-A.
 Alpha  occ. eigenvalues --  -46.26514 -18.82759 -18.81818 -18.76979 -18.76910
 Alpha  occ. eigenvalues --  -18.75737 -18.75307 -14.03723 -14.02523 -14.00511
 Alpha  occ. eigenvalues --  -13.99762 -10.04286 -10.04057  -9.99879  -9.99211
 Alpha  occ. eigenvalues --   -9.98184  -9.97553  -9.96866  -9.96649  -9.95899
 Alpha  occ. eigenvalues --   -9.95889  -9.95258  -9.95091  -9.94984  -9.94614
 Alpha  occ. eigenvalues --   -9.94528  -9.93938  -9.93660  -9.93602  -9.93559
 Alpha  occ. eigenvalues --   -9.93509  -9.93503  -9.93438  -9.93060  -9.93034
 Alpha  occ. eigenvalues --   -9.93016  -9.92996  -9.92757  -9.92743  -9.92735
 Alpha  occ. eigenvalues --   -9.92663  -9.92548  -9.92440  -9.92437  -9.92400
 Alpha  occ. eigenvalues --   -9.92172  -9.92066  -9.92060  -9.92057  -9.91988
 Alpha  occ. eigenvalues --   -9.91883  -9.91858  -9.91658  -9.91635  -9.91604
 Alpha  occ. eigenvalues --   -9.91405  -9.91180  -9.91098  -9.91074  -9.90991
 Alpha  occ. eigenvalues --   -9.90848  -9.90746  -9.90700  -9.90674  -9.90555
 Alpha  occ. eigenvalues --   -9.90495  -2.91199  -1.71632  -1.71059  -1.70922
 Alpha  occ. eigenvalues --   -0.97272  -0.96812  -0.92522  -0.91247  -0.89434
 Alpha  occ. eigenvalues --   -0.89410  -0.87016  -0.86052  -0.85030  -0.84508
 Alpha  occ. eigenvalues --   -0.75734  -0.73341  -0.72680  -0.72308  -0.72184
 Alpha  occ. eigenvalues --   -0.71755  -0.71155  -0.70665  -0.70615  -0.70312
 Alpha  occ. eigenvalues --   -0.69307  -0.68285  -0.67686  -0.67224  -0.66913
 Alpha  occ. eigenvalues --   -0.66243  -0.66072  -0.65315  -0.64768  -0.64693
 Alpha  occ. eigenvalues --   -0.64101  -0.62572  -0.61990  -0.61878  -0.60797
 Alpha  occ. eigenvalues --   -0.60784  -0.60081  -0.59827  -0.59502  -0.58626
 Alpha  occ. eigenvalues --   -0.58175  -0.57725  -0.56469  -0.55753  -0.55177
 Alpha  occ. eigenvalues --   -0.54256  -0.53457  -0.52898  -0.52382  -0.51132
 Alpha  occ. eigenvalues --   -0.50869  -0.50674  -0.50294  -0.50221  -0.50096
 Alpha  occ. eigenvalues --   -0.49476  -0.49156  -0.48299  -0.47960  -0.46334
 Alpha  occ. eigenvalues --   -0.45974  -0.45755  -0.45442  -0.44829  -0.44640
 Alpha  occ. eigenvalues --   -0.43791  -0.42870  -0.42755  -0.42617  -0.41896
 Alpha  occ. eigenvalues --   -0.41705  -0.41626  -0.41579  -0.41127  -0.40890
 Alpha  occ. eigenvalues --   -0.40767  -0.40693  -0.40497  -0.40301  -0.40208
 Alpha  occ. eigenvalues --   -0.39900  -0.39591  -0.39492  -0.39401  -0.39248
 Alpha  occ. eigenvalues --   -0.38974  -0.38944  -0.38631  -0.38363  -0.38350
 Alpha  occ. eigenvalues --   -0.37903  -0.37742  -0.37333  -0.37207  -0.36996
 Alpha  occ. eigenvalues --   -0.36916  -0.36827  -0.36666  -0.36580  -0.36383
 Alpha  occ. eigenvalues --   -0.36339  -0.36132  -0.35890  -0.35690  -0.35651
 Alpha  occ. eigenvalues --   -0.35360  -0.35100  -0.34963  -0.34805  -0.34696
 Alpha  occ. eigenvalues --   -0.34594  -0.34391  -0.34288  -0.33928  -0.33603
 Alpha  occ. eigenvalues --   -0.33507  -0.33467  -0.33252  -0.32985  -0.32828
 Alpha  occ. eigenvalues --   -0.32719  -0.32551  -0.32350  -0.32280  -0.32142
 Alpha  occ. eigenvalues --   -0.31910  -0.31860  -0.31763  -0.31719  -0.31494
 Alpha  occ. eigenvalues --   -0.31401  -0.31325  -0.31272  -0.31071  -0.30807
 Alpha  occ. eigenvalues --   -0.30661  -0.30536  -0.30383  -0.30102  -0.29938
 Alpha  occ. eigenvalues --   -0.29716  -0.29469  -0.29389  -0.29209  -0.28624
 Alpha  occ. eigenvalues --   -0.28567  -0.28460  -0.28302  -0.28070  -0.27527
 Alpha  occ. eigenvalues --   -0.27219  -0.27040  -0.26891  -0.26781  -0.26458
 Alpha  occ. eigenvalues --   -0.26240  -0.26023  -0.25638  -0.25422  -0.25107
 Alpha  occ. eigenvalues --   -0.25080  -0.24967  -0.24775  -0.23619  -0.23438
 Alpha  occ. eigenvalues --   -0.23187  -0.22219  -0.22060  -0.21839  -0.20348
 Alpha  occ. eigenvalues --   -0.20209  -0.19688  -0.18902  -0.18411  -0.17266
 Alpha  occ. eigenvalues --   -0.15626
 Alpha virt. eigenvalues --   -0.11462  -0.06454  -0.05509  -0.04369  -0.02936
 Alpha virt. eigenvalues --   -0.02706  -0.02050  -0.01893  -0.01033   0.00299
 Alpha virt. eigenvalues --    0.01163   0.01453   0.01669   0.02012   0.02426

 Mulliken charges:
               1
     1  Mg   0.690884
     2  C    0.065949
     3  C   -0.055957
     4  C   -0.020355
     5  C   -0.096540
     6  N   -0.262659
     7  C   -0.076932
     8  C    0.034316
     9  C   -0.065565
    10  C    0.093567
    11  C    0.088524
    12  C    0.137201
    13  C    0.092289
    14  C    0.096344
    15  O   -0.187458
    16  O   -0.297858
    17  N   -0.259623
    18  C    0.091797
    19  C   -0.161821
    20  C    0.046649
    21  C    0.068743
    22  C    0.190372
    23  C   -0.115681
    24  O   -0.152779
    25  C    0.161799
    26  N   -0.259482
    27  C    0.030343
    28  C    0.046097
    29  C    0.053196
    30  C    0.031892
    31  C    0.149123
    32  C    0.065928
    33  C    0.054965
    34  N   -0.230178
    35  C    0.133293
    36  C   -0.194946
    37  C    0.059654
    38  C    0.077077
    39  C    0.176348
    40  C   -0.072776
    41  O   -0.119988
    42  C    0.045079
    43  C    0.132483
    44  O   -0.201693
    45  O   -0.265413
    46  C    0.211984
    47  C    0.292618
    48  C   -0.077008
    49  C   -0.158698
    50  C    0.125961
    51  C    0.141221
    52  C    0.065084
    53  C    0.080314
    54  C   -0.042615
    55  C    0.106891
    56  C    0.074811
    57  C    0.048860
    58  C    0.128931
    59  C   -0.064883
    60  C    0.093858
    61  C    0.116339
    62  C    0.063674
    63  C    0.063286
    64  C   -0.063472
    65  C    0.097981
    66  C    0.128683
    67  H   -0.072108
    68  H   -0.038881
    69  H   -0.071740
    70  H   -0.013638
    71  H   -0.030452
    72  H    0.007632
    73  H   -0.002439
    74  H   -0.003940
    75  H   -0.020404
    76  H    0.002784
    77  H    0.013354
    78  H   -0.001821
    79  H   -0.001867
    80  H   -0.005622
    81  H    0.000621
    82  H    0.016835
    83  H    0.012871
    84  H   -0.004896
    85  H   -0.037248
    86  H   -0.034838
    87  H   -0.009839
    88  H   -0.002377
    89  H   -0.016697
    90  H   -0.008308
    91  H   -0.019148
    92  H   -0.012336
    93  H   -0.008166
    94  H   -0.002520
    95  H   -0.009120
    96  H    0.008474
    97  H    0.012229
    98  H    0.013423
    99  H    0.016604
   100  H    0.035321
   101  H   -0.001570
   102  H    0.019026
   103  H    0.006972
   104  H   -0.038838
   105  H    0.007431
   106  H    0.014232
   107  H   -0.034432
   108  H   -0.019370
   109  H   -0.004847
   110  H   -0.037177
   111  H   -0.028628
   112  H   -0.034776
   113  H   -0.036011
   114  H   -0.034335
   115  H   -0.030533
   116  H   -0.004191
   117  H   -0.020536
   118  H   -0.039969
   119  H   -0.031862
   120  H   -0.029818
   121  H   -0.026616
   122  H   -0.051352
   123  H   -0.036767
   124  H   -0.034548
   125  H   -0.009236
   126  H   -0.030450
   127  H   -0.011142
   128  H   -0.051159
   129  H   -0.045467
   130  H   -0.029307
   131  H   -0.025350
   132  H   -0.038724
   133  H   -0.036926
   134  H   -0.032530
   135  H   -0.015139
   136  H   -0.032045
   137  H   -0.014880
   138  H   -0.021879
   139  H   -0.023008
   140  H   -0.016018
 Sum of Mulliken charges =  -0.00000

 Dipole moment (field-independent basis, Debye):
    X=              2.1371    Y=              4.0991    Z=              1.0560  Tot=              4.7418
 Quadrupole moment (field-independent basis, Debye-Ang):
   XX=           -375.0923   YY=           -418.3128   ZZ=           -407.7273
   XY=             -0.7614   XZ=              5.2279   YZ=             -2.5763

 Normal termination of Gaussian 16 at Thu Apr 28 14:15:44 2022.
