 Gaussian 16, Revision A.03,
 Gaussian 16:  ES64L-G16RevA.03 25-Dec-2016

 -----------------------------------
 #p cam-b3lyp/Def2SVP td=(nstates=5)
 -----------------------------------

 --------------------------------------------------------
 step_1601_chromophore_13 TDDFT with cam-b3lyp functional
 --------------------------------------------------------
 Symbolic Z-matrix:
 Charge =  0 Multiplicity = 1

                         Standard orientation:
 ---------------------------------------------------------------------
 Center     Atomic      Atomic             Coordinates (Angstroms)
 Number     Number       Type             X           Y           Z
 ---------------------------------------------------------------------
      1         12           0       -5.782184    0.357881   -0.431430
      2          6           0       -3.639937   -2.327846   -0.182911
      3          6           0       -3.265044    2.501565    0.312683
      4          6           0       -8.057147    2.742454    0.449998
      5          6           0       -8.418664   -2.009762   -0.514143
      6          7           0       -3.725786    0.133983   -0.163000
      7          6           0       -3.050718   -1.084436    0.019444
      8          6           0       -1.589945   -0.924462    0.519124
      9          6           0       -1.536776    0.601781    0.807748
     10          6           0       -2.923220    1.174893    0.197744
     11          6           0       -1.356008    1.062288    2.405310
     12          6           0       -0.555295   -1.453266   -0.529823
     13          6           0        0.837629   -1.720719    0.141039
     14          6           0        2.027620   -1.902978   -0.842724
     15          8           0        1.912903   -1.985152   -2.058037
     16          8           0        3.276845   -1.932668   -0.209987
     17          7           0       -5.618181    2.494479   -0.044280
     18          6           0       -4.482737    3.156386    0.158877
     19          6           0       -4.822223    4.567501    0.262153
     20          6           0       -6.199822    4.642209    0.275211
     21          6           0       -6.717287    3.288411    0.238542
     22          6           0       -3.799293    5.731356    0.269184
     23          6           0       -7.122810    5.849104    0.466403
     24          8           0       -8.313281    5.627133    0.426045
     25          6           0       -6.560173    7.219144    0.691807
     26          7           0       -7.851339    0.263510    0.045866
     27          6           0       -8.550627    1.433087    0.294987
     28          6           0       -9.953349    1.102094    0.703764
     29          6           0      -10.161052   -0.306683   -0.016699
     30          6           0       -8.770114   -0.728363   -0.260760
     31          6           0      -10.284701    1.124162    2.209055
     32          6           0      -11.024469   -0.415208   -1.287517
     33          6           0      -10.289385   -0.232500   -2.674346
     34          7           0       -5.969404   -1.714296   -0.600817
     35          6           0       -7.101368   -2.471815   -0.713563
     36          6           0       -6.754452   -3.853526   -0.996712
     37          6           0       -5.354923   -3.828255   -0.705217
     38          6           0       -4.974927   -2.568156   -0.420175
     39          6           0       -7.768057   -4.931053   -1.443494
     40          6           0       -4.167993   -4.692223   -0.453037
     41          8           0       -4.001529   -5.888104   -0.606872
     42          6           0       -3.030675   -3.731721   -0.088629
     43          6           0       -2.483017   -4.089999    1.265348
     44          8           0       -2.953385   -3.685892    2.338252
     45          8           0       -1.371063   -4.889978    1.096860
     46          6           0       -0.715059   -5.177971    2.392561
     47          6           0        4.457678   -1.728087   -1.081212
     48          6           0        5.297606   -0.801636   -0.185906
     49          6           0        6.630131   -0.802226   -0.121678
     50          6           0        7.615934   -1.674772   -0.918577
     51          6           0        7.436824    0.120129    0.780531
     52          6           0        6.961900    1.597429    0.789167
     53          6           0        8.145244    2.693092    0.879082
     54          6           0        8.411008    3.615051   -0.318493
     55          6           0        7.184958    4.488252   -0.525381
     56          6           0        8.782275    2.742477   -1.615379
     57          6           0       10.312429    2.705422   -1.966788
     58          6           0       10.882145    1.347729   -2.127064
     59          6           0       12.345457    1.147065   -1.589936
     60          6           0       13.476452    1.055241   -2.688198
     61          6           0       12.454462   -0.071912   -0.626876
     62          6           0       12.364618    0.334114    0.870439
     63          6           0       13.764616    0.113690    1.536477
     64          6           0       14.193644   -1.443953    1.716689
     65          6           0       14.641489   -1.667885    3.158581
     66          6           0       15.081697   -1.937414    0.634795
     67          1           0       -2.478272    3.208727    0.584816
     68          1           0       -8.845649    3.450952    0.713427
     69          1           0       -9.277051   -2.672279   -0.644061
     70          1           0       -1.486677   -1.309168    1.534022
     71          1           0       -0.612044    0.981259    0.372814
     72          1           0       -0.610872    1.831984    2.607228
     73          1           0       -1.284841    0.181920    3.044459
     74          1           0       -2.356989    1.431894    2.625038
     75          1           0       -0.429191   -0.611569   -1.211710
     76          1           0       -0.943307   -2.296542   -1.101186
     77          1           0        0.806604   -2.587454    0.800972
     78          1           0        1.120195   -0.845776    0.726765
     79          1           0       -2.780854    5.357947    0.167755
     80          1           0       -3.989692    6.290902    1.185688
     81          1           0       -4.066149    6.402613   -0.546723
     82          1           0       -6.041194    7.494532   -0.226922
     83          1           0       -5.919231    7.097460    1.565143
     84          1           0       -7.411162    7.867220    0.899142
     85          1           0      -10.590339    1.834602    0.207778
     86          1           0      -10.604509   -1.084351    0.605927
     87          1           0      -10.276792    0.148169    2.693636
     88          1           0      -11.213350    1.659801    2.406610
     89          1           0       -9.506972    1.648257    2.764516
     90          1           0      -11.908535    0.216768   -1.197561
     91          1           0      -11.278393   -1.472136   -1.357419
     92          1           0      -10.984819    0.331420   -3.296775
     93          1           0      -10.008896   -1.141212   -3.207204
     94          1           0       -9.367075    0.347700   -2.669247
     95          1           0       -8.533501   -4.385588   -1.996295
     96          1           0       -8.220394   -5.334739   -0.537448
     97          1           0       -7.417390   -5.724906   -2.102998
     98          1           0       -2.319131   -4.052037   -0.848959
     99          1           0       -0.154136   -6.102616    2.256213
    100          1           0       -1.351462   -5.143643    3.277062
    101          1           0        0.059950   -4.423506    2.528778
    102          1           0        4.370838   -1.232489   -2.048578
    103          1           0        4.858438   -2.717810   -1.301233
    104          1           0        4.718264   -0.122944    0.439895
    105          1           0        8.107407   -2.282499   -0.159116
    106          1           0        8.296095   -1.139532   -1.580301
    107          1           0        7.082778   -2.344352   -1.594037
    108          1           0        8.483902    0.127962    0.476735
    109          1           0        7.355169   -0.332893    1.769100
    110          1           0        6.260141    1.778250    1.601928
    111          1           0        6.279715    1.845230   -0.023361
    112          1           0        9.078754    2.164759    1.072738
    113          1           0        8.014837    3.378184    1.717355
    114          1           0        9.217523    4.314378   -0.096905
    115          1           0        6.785028    4.816305    0.434033
    116          1           0        6.373900    3.987351   -1.054721
    117          1           0        7.548184    5.374055   -1.045827
    118          1           0        8.366345    3.115137   -2.551567
    119          1           0        8.547968    1.680097   -1.552923
    120          1           0       10.698734    3.272138   -1.118916
    121          1           0       10.407467    3.301816   -2.874244
    122          1           0       10.928319    1.166759   -3.201619
    123          1           0       10.227383    0.542119   -1.795069
    124          1           0       12.511073    2.052542   -1.006351
    125          1           0       14.430734    1.437146   -2.325341
    126          1           0       13.257843    1.690087   -3.547652
    127          1           0       13.565002    0.061519   -3.125625
    128          1           0       13.335157   -0.663003   -0.876272
    129          1           0       11.655451   -0.791403   -0.805173
    130          1           0       11.522001   -0.166939    1.348578
    131          1           0       12.134593    1.371671    1.112088
    132          1           0       13.873220    0.751879    2.412487
    133          1           0       14.537847    0.483041    0.862711
    134          1           0       13.271081   -2.024300    1.700870
    135          1           0       14.443481   -0.821422    3.816658
    136          1           0       15.720913   -1.789325    3.251234
    137          1           0       14.236653   -2.608868    3.531136
    138          1           0       14.611429   -2.607390   -0.085798
    139          1           0       15.975748   -2.409624    1.042046
    140          1           0       15.380675   -1.219025   -0.128578
 ---------------------------------------------------------------------

 SCF Done:  E(RCAM-B3LYP) =  -3007.14908700     A.U. after   17 cycles

 Excitation energies and oscillator strengths:

 Excited State   1:      Singlet-A      1.6814 eV  737.40 nm  f=0.3880  <S**2>=0.000
     245 -> 248        0.16924
     246 -> 247        0.68913
     245 <- 248        0.10676
 This state for optimization and/or second-order correction.
 Total Energy, E(TD-HF/TD-DFT) =  -3007.08729794
 Copying the excited state density for this state as the 1-particle RhoCI density.

 Excited State   2:      Singlet-A      2.2326 eV  555.33 nm  f=0.1123  <S**2>=0.000
     245 -> 247        0.64145
     246 -> 248       -0.28108

 Excited State   3:      Singlet-A      3.2039 eV  386.98 nm  f=0.0064  <S**2>=0.000
     243 -> 247       -0.15311
     244 -> 247        0.67674

 Excited State   4:      Singlet-A      3.3906 eV  365.68 nm  f=0.0211  <S**2>=0.000
     241 -> 247        0.10795
     243 -> 247        0.59939
     244 -> 247        0.12978
     246 -> 248        0.28659

 Excited State   5:      Singlet-A      3.5718 eV  347.12 nm  f=0.0187  <S**2>=0.000
     241 -> 247        0.57505
     241 -> 249        0.26173
     241 -> 250        0.21163
     243 -> 247       -0.13926

 The electronic state is 1-A.
 Alpha  occ. eigenvalues --  -46.88008 -19.25748 -19.24670 -19.20037 -19.19974
 Alpha  occ. eigenvalues --  -19.19171 -19.18385 -14.42663 -14.41331 -14.39040
 Alpha  occ. eigenvalues --  -14.37942 -10.39636 -10.39630 -10.35211 -10.34408
 Alpha  occ. eigenvalues --  -10.32242 -10.31589 -10.31527 -10.31051 -10.30561
 Alpha  occ. eigenvalues --  -10.30452 -10.29577 -10.29406 -10.28944 -10.28831
 Alpha  occ. eigenvalues --  -10.28586 -10.28421 -10.27996 -10.27821 -10.27788
 Alpha  occ. eigenvalues --  -10.27680 -10.27455 -10.27311 -10.27203 -10.26982
 Alpha  occ. eigenvalues --  -10.26961 -10.26806 -10.26783 -10.26703 -10.26677
 Alpha  occ. eigenvalues --  -10.26604 -10.26580 -10.26575 -10.26332 -10.26172
 Alpha  occ. eigenvalues --  -10.26145 -10.25884 -10.25853 -10.25819 -10.25758
 Alpha  occ. eigenvalues --  -10.25658 -10.25624 -10.25542 -10.25378 -10.25147
 Alpha  occ. eigenvalues --  -10.25079 -10.24914 -10.24817 -10.24735 -10.24688
 Alpha  occ. eigenvalues --  -10.24506 -10.24386 -10.24356 -10.24342 -10.24235
 Alpha  occ. eigenvalues --  -10.24130  -3.16596  -1.91507  -1.91040  -1.90900
 Alpha  occ. eigenvalues --   -1.15805  -1.15235  -1.11172  -1.09568  -1.07380
 Alpha  occ. eigenvalues --   -1.07257  -1.04551  -1.03838  -1.02626  -1.02051
 Alpha  occ. eigenvalues --   -0.92796  -0.90220  -0.89475  -0.89087  -0.88819
 Alpha  occ. eigenvalues --   -0.88451  -0.87696  -0.87419  -0.87188  -0.87044
 Alpha  occ. eigenvalues --   -0.85639  -0.84545  -0.83931  -0.83329  -0.83125
 Alpha  occ. eigenvalues --   -0.82493  -0.82192  -0.81183  -0.80646  -0.80556
 Alpha  occ. eigenvalues --   -0.79849  -0.78379  -0.77599  -0.77330  -0.76204
 Alpha  occ. eigenvalues --   -0.76165  -0.75402  -0.75109  -0.74807  -0.73845
 Alpha  occ. eigenvalues --   -0.73220  -0.72714  -0.71344  -0.70566  -0.69748
 Alpha  occ. eigenvalues --   -0.68849  -0.68016  -0.67383  -0.66987  -0.65413
 Alpha  occ. eigenvalues --   -0.65031  -0.64662  -0.64350  -0.64168  -0.64081
 Alpha  occ. eigenvalues --   -0.63182  -0.63072  -0.62038  -0.61751  -0.59993
 Alpha  occ. eigenvalues --   -0.59681  -0.59305  -0.59055  -0.58215  -0.58101
 Alpha  occ. eigenvalues --   -0.57241  -0.56245  -0.55888  -0.55765  -0.55087
 Alpha  occ. eigenvalues --   -0.54981  -0.54413  -0.54389  -0.54099  -0.53904
 Alpha  occ. eigenvalues --   -0.53844  -0.53482  -0.53095  -0.52890  -0.52766
 Alpha  occ. eigenvalues --   -0.52658  -0.52458  -0.52332  -0.52145  -0.51986
 Alpha  occ. eigenvalues --   -0.51522  -0.51389  -0.51146  -0.50976  -0.50717
 Alpha  occ. eigenvalues --   -0.50385  -0.50123  -0.50035  -0.49560  -0.49492
 Alpha  occ. eigenvalues --   -0.49259  -0.49026  -0.48959  -0.48834  -0.48529
 Alpha  occ. eigenvalues --   -0.48421  -0.48368  -0.48142  -0.47927  -0.47721
 Alpha  occ. eigenvalues --   -0.47400  -0.47229  -0.46924  -0.46678  -0.46527
 Alpha  occ. eigenvalues --   -0.46454  -0.46209  -0.46025  -0.45699  -0.45483
 Alpha  occ. eigenvalues --   -0.45314  -0.45123  -0.45036  -0.44760  -0.44680
 Alpha  occ. eigenvalues --   -0.44338  -0.44277  -0.44143  -0.44097  -0.43812
 Alpha  occ. eigenvalues --   -0.43696  -0.43526  -0.43394  -0.43355  -0.43169
 Alpha  occ. eigenvalues --   -0.43069  -0.42814  -0.42725  -0.42656  -0.42523
 Alpha  occ. eigenvalues --   -0.42190  -0.41924  -0.41707  -0.41567  -0.41197
 Alpha  occ. eigenvalues --   -0.41123  -0.40641  -0.40558  -0.40207  -0.39696
 Alpha  occ. eigenvalues --   -0.39649  -0.39458  -0.39198  -0.39004  -0.38315
 Alpha  occ. eigenvalues --   -0.38068  -0.37833  -0.37660  -0.37620  -0.37411
 Alpha  occ. eigenvalues --   -0.37307  -0.36938  -0.36659  -0.36495  -0.36347
 Alpha  occ. eigenvalues --   -0.35946  -0.35465  -0.35436  -0.34422  -0.34332
 Alpha  occ. eigenvalues --   -0.34079  -0.33538  -0.32966  -0.31531  -0.31103
 Alpha  occ. eigenvalues --   -0.30249  -0.30057  -0.29949  -0.28887  -0.24109
 Alpha  occ. eigenvalues --   -0.20909
 Alpha virt. eigenvalues --   -0.08623  -0.01159   0.01136   0.02711   0.02953
 Alpha virt. eigenvalues --    0.04784   0.05037   0.05389   0.06507   0.06912
 Alpha virt. eigenvalues --    0.07443   0.08071   0.08339   0.08564   0.08650

 Mulliken charges:
               1
     1  Mg   0.822861
     2  C    0.033714
     3  C   -0.075035
     4  C   -0.039852
     5  C   -0.099692
     6  N   -0.335242
     7  C   -0.033831
     8  C   -0.013500
     9  C   -0.108644
    10  C    0.111769
    11  C    0.031668
    12  C    0.082639
    13  C    0.027935
    14  C    0.181873
    15  O   -0.228233
    16  O   -0.363106
    17  N   -0.346017
    18  C    0.102524
    19  C   -0.164009
    20  C   -0.020787
    21  C    0.092258
    22  C    0.136512
    23  C   -0.031908
    24  O   -0.193482
    25  C    0.078050
    26  N   -0.325996
    27  C    0.051569
    28  C   -0.017719
    29  C   -0.006723
    30  C    0.043724
    31  C    0.089938
    32  C    0.016961
    33  C   -0.005442
    34  N   -0.320039
    35  C    0.130655
    36  C   -0.188167
    37  C   -0.016997
    38  C    0.110458
    39  C    0.126872
    40  C    0.030528
    41  O   -0.159413
    42  C   -0.029958
    43  C    0.219863
    44  O   -0.239406
    45  O   -0.327816
    46  C    0.172082
    47  C    0.259197
    48  C   -0.098693
    49  C   -0.181923
    50  C    0.068404
    51  C    0.091570
    52  C    0.003758
    53  C    0.033661
    54  C   -0.101105
    55  C    0.047206
    56  C    0.026939
    57  C   -0.000137
    58  C    0.075266
    59  C   -0.118590
    60  C    0.038471
    61  C    0.061825
    62  C    0.013084
    63  C    0.014231
    64  C   -0.125207
    65  C    0.041380
    66  C    0.060021
    67  H   -0.036801
    68  H    0.001066
    69  H   -0.035428
    70  H    0.018621
    71  H    0.002737
    72  H    0.030894
    73  H    0.022403
    74  H    0.022082
    75  H    0.011430
    76  H    0.032612
    77  H    0.040417
    78  H    0.026826
    79  H    0.025634
    80  H    0.020159
    81  H    0.026924
    82  H    0.043578
    83  H    0.038688
    84  H    0.031720
    85  H   -0.001014
    86  H    0.003293
    87  H    0.015771
    88  H    0.021989
    89  H    0.009491
    90  H    0.019170
    91  H    0.007723
    92  H    0.011994
    93  H    0.015508
    94  H    0.018490
    95  H    0.013132
    96  H    0.033490
    97  H    0.038564
    98  H    0.055553
    99  H    0.041046
   100  H    0.062194
   101  H    0.017236
   102  H    0.049056
   103  H    0.034088
   104  H   -0.003799
   105  H    0.031147
   106  H    0.035223
   107  H   -0.009052
   108  H    0.003940
   109  H    0.024670
   110  H   -0.007446
   111  H   -0.000429
   112  H   -0.009830
   113  H   -0.006327
   114  H   -0.001574
   115  H   -0.005005
   116  H    0.017714
   117  H    0.004779
   118  H   -0.009037
   119  H   -0.009879
   120  H   -0.004568
   121  H    0.001427
   122  H   -0.019749
   123  H   -0.014294
   124  H   -0.002952
   125  H    0.014023
   126  H   -0.005544
   127  H    0.011324
   128  H   -0.023051
   129  H   -0.016786
   130  H   -0.002927
   131  H    0.000475
   132  H   -0.009302
   133  H   -0.010173
   134  H   -0.000617
   135  H    0.009004
   136  H   -0.008039
   137  H    0.009189
   138  H    0.003221
   139  H    0.004386
   140  H    0.006722
 Sum of Mulliken charges =  -0.00000

 Dipole moment (field-independent basis, Debye):
    X=              2.3324    Y=              5.0657    Z=              1.2863  Tot=              5.7232
 Quadrupole moment (field-independent basis, Debye-Ang):
   XX=           -374.4984   YY=           -413.5480   ZZ=           -407.6194
   XY=             -5.1337   XZ=              4.4547   YZ=             -2.3440

 Normal termination of Gaussian 16 at Thu Apr 28 13:16:43 2022.
