 Gaussian 16, Revision A.03,
 Gaussian 16:  ES64L-G16RevA.03 25-Dec-2016

 ---------------------------------
 #p PBE1PBE/Def2SVP td=(nstates=5)
 ---------------------------------

 ------------------------------------------------------
 step_1601_chromophore_13 TDDFT with PBE1PBE functional
 ------------------------------------------------------
 Symbolic Z-matrix:
 Charge =  0 Multiplicity = 1

                         Standard orientation:
 ---------------------------------------------------------------------
 Center     Atomic      Atomic             Coordinates (Angstroms)
 Number     Number       Type             X           Y           Z
 ---------------------------------------------------------------------
      1         12           0       -5.782184    0.357881   -0.431430
      2          6           0       -3.639937   -2.327846   -0.182911
      3          6           0       -3.265044    2.501565    0.312683
      4          6           0       -8.057147    2.742454    0.449998
      5          6           0       -8.418664   -2.009762   -0.514143
      6          7           0       -3.725786    0.133983   -0.163000
      7          6           0       -3.050718   -1.084436    0.019444
      8          6           0       -1.589945   -0.924462    0.519124
      9          6           0       -1.536776    0.601781    0.807748
     10          6           0       -2.923220    1.174893    0.197744
     11          6           0       -1.356008    1.062288    2.405310
     12          6           0       -0.555295   -1.453266   -0.529823
     13          6           0        0.837629   -1.720719    0.141039
     14          6           0        2.027620   -1.902978   -0.842724
     15          8           0        1.912903   -1.985152   -2.058037
     16          8           0        3.276845   -1.932668   -0.209987
     17          7           0       -5.618181    2.494479   -0.044280
     18          6           0       -4.482737    3.156386    0.158877
     19          6           0       -4.822223    4.567501    0.262153
     20          6           0       -6.199822    4.642209    0.275211
     21          6           0       -6.717287    3.288411    0.238542
     22          6           0       -3.799293    5.731356    0.269184
     23          6           0       -7.122810    5.849104    0.466403
     24          8           0       -8.313281    5.627133    0.426045
     25          6           0       -6.560173    7.219144    0.691807
     26          7           0       -7.851339    0.263510    0.045866
     27          6           0       -8.550627    1.433087    0.294987
     28          6           0       -9.953349    1.102094    0.703764
     29          6           0      -10.161052   -0.306683   -0.016699
     30          6           0       -8.770114   -0.728363   -0.260760
     31          6           0      -10.284701    1.124162    2.209055
     32          6           0      -11.024469   -0.415208   -1.287517
     33          6           0      -10.289385   -0.232500   -2.674346
     34          7           0       -5.969404   -1.714296   -0.600817
     35          6           0       -7.101368   -2.471815   -0.713563
     36          6           0       -6.754452   -3.853526   -0.996712
     37          6           0       -5.354923   -3.828255   -0.705217
     38          6           0       -4.974927   -2.568156   -0.420175
     39          6           0       -7.768057   -4.931053   -1.443494
     40          6           0       -4.167993   -4.692223   -0.453037
     41          8           0       -4.001529   -5.888104   -0.606872
     42          6           0       -3.030675   -3.731721   -0.088629
     43          6           0       -2.483017   -4.089999    1.265348
     44          8           0       -2.953385   -3.685892    2.338252
     45          8           0       -1.371063   -4.889978    1.096860
     46          6           0       -0.715059   -5.177971    2.392561
     47          6           0        4.457678   -1.728087   -1.081212
     48          6           0        5.297606   -0.801636   -0.185906
     49          6           0        6.630131   -0.802226   -0.121678
     50          6           0        7.615934   -1.674772   -0.918577
     51          6           0        7.436824    0.120129    0.780531
     52          6           0        6.961900    1.597429    0.789167
     53          6           0        8.145244    2.693092    0.879082
     54          6           0        8.411008    3.615051   -0.318493
     55          6           0        7.184958    4.488252   -0.525381
     56          6           0        8.782275    2.742477   -1.615379
     57          6           0       10.312429    2.705422   -1.966788
     58          6           0       10.882145    1.347729   -2.127064
     59          6           0       12.345457    1.147065   -1.589936
     60          6           0       13.476452    1.055241   -2.688198
     61          6           0       12.454462   -0.071912   -0.626876
     62          6           0       12.364618    0.334114    0.870439
     63          6           0       13.764616    0.113690    1.536477
     64          6           0       14.193644   -1.443953    1.716689
     65          6           0       14.641489   -1.667885    3.158581
     66          6           0       15.081697   -1.937414    0.634795
     67          1           0       -2.478272    3.208727    0.584816
     68          1           0       -8.845649    3.450952    0.713427
     69          1           0       -9.277051   -2.672279   -0.644061
     70          1           0       -1.486677   -1.309168    1.534022
     71          1           0       -0.612044    0.981259    0.372814
     72          1           0       -0.610872    1.831984    2.607228
     73          1           0       -1.284841    0.181920    3.044459
     74          1           0       -2.356989    1.431894    2.625038
     75          1           0       -0.429191   -0.611569   -1.211710
     76          1           0       -0.943307   -2.296542   -1.101186
     77          1           0        0.806604   -2.587454    0.800972
     78          1           0        1.120195   -0.845776    0.726765
     79          1           0       -2.780854    5.357947    0.167755
     80          1           0       -3.989692    6.290902    1.185688
     81          1           0       -4.066149    6.402613   -0.546723
     82          1           0       -6.041194    7.494532   -0.226922
     83          1           0       -5.919231    7.097460    1.565143
     84          1           0       -7.411162    7.867220    0.899142
     85          1           0      -10.590339    1.834602    0.207778
     86          1           0      -10.604509   -1.084351    0.605927
     87          1           0      -10.276792    0.148169    2.693636
     88          1           0      -11.213350    1.659801    2.406610
     89          1           0       -9.506972    1.648257    2.764516
     90          1           0      -11.908535    0.216768   -1.197561
     91          1           0      -11.278393   -1.472136   -1.357419
     92          1           0      -10.984819    0.331420   -3.296775
     93          1           0      -10.008896   -1.141212   -3.207204
     94          1           0       -9.367075    0.347700   -2.669247
     95          1           0       -8.533501   -4.385588   -1.996295
     96          1           0       -8.220394   -5.334739   -0.537448
     97          1           0       -7.417390   -5.724906   -2.102998
     98          1           0       -2.319131   -4.052037   -0.848959
     99          1           0       -0.154136   -6.102616    2.256213
    100          1           0       -1.351462   -5.143643    3.277062
    101          1           0        0.059950   -4.423506    2.528778
    102          1           0        4.370838   -1.232489   -2.048578
    103          1           0        4.858438   -2.717810   -1.301233
    104          1           0        4.718264   -0.122944    0.439895
    105          1           0        8.107407   -2.282499   -0.159116
    106          1           0        8.296095   -1.139532   -1.580301
    107          1           0        7.082778   -2.344352   -1.594037
    108          1           0        8.483902    0.127962    0.476735
    109          1           0        7.355169   -0.332893    1.769100
    110          1           0        6.260141    1.778250    1.601928
    111          1           0        6.279715    1.845230   -0.023361
    112          1           0        9.078754    2.164759    1.072738
    113          1           0        8.014837    3.378184    1.717355
    114          1           0        9.217523    4.314378   -0.096905
    115          1           0        6.785028    4.816305    0.434033
    116          1           0        6.373900    3.987351   -1.054721
    117          1           0        7.548184    5.374055   -1.045827
    118          1           0        8.366345    3.115137   -2.551567
    119          1           0        8.547968    1.680097   -1.552923
    120          1           0       10.698734    3.272138   -1.118916
    121          1           0       10.407467    3.301816   -2.874244
    122          1           0       10.928319    1.166759   -3.201619
    123          1           0       10.227383    0.542119   -1.795069
    124          1           0       12.511073    2.052542   -1.006351
    125          1           0       14.430734    1.437146   -2.325341
    126          1           0       13.257843    1.690087   -3.547652
    127          1           0       13.565002    0.061519   -3.125625
    128          1           0       13.335157   -0.663003   -0.876272
    129          1           0       11.655451   -0.791403   -0.805173
    130          1           0       11.522001   -0.166939    1.348578
    131          1           0       12.134593    1.371671    1.112088
    132          1           0       13.873220    0.751879    2.412487
    133          1           0       14.537847    0.483041    0.862711
    134          1           0       13.271081   -2.024300    1.700870
    135          1           0       14.443481   -0.821422    3.816658
    136          1           0       15.720913   -1.789325    3.251234
    137          1           0       14.236653   -2.608868    3.531136
    138          1           0       14.611429   -2.607390   -0.085798
    139          1           0       15.975748   -2.409624    1.042046
    140          1           0       15.380675   -1.219025   -0.128578
 ---------------------------------------------------------------------

 SCF Done:  E(RPBE1PBE) =  -3005.33650051     A.U. after   15 cycles

 Excitation energies and oscillator strengths:

 Excited State   1:      Singlet-A      1.8430 eV  672.75 nm  f=0.3764  <S**2>=0.000
     245 -> 248        0.16309
     246 -> 247        0.69694
     246 <- 247       -0.11729
 This state for optimization and/or second-order correction.
 Total Energy, E(TD-HF/TD-DFT) =  -3005.26877301
 Copying the excited state density for this state as the 1-particle RhoCI density.

 Excited State   2:      Singlet-A      2.2505 eV  550.92 nm  f=0.1051  <S**2>=0.000
     245 -> 247        0.64979
     246 -> 248       -0.26089

 Excited State   3:      Singlet-A      2.8767 eV  431.00 nm  f=0.0049  <S**2>=0.000
     244 -> 247        0.69250

 Excited State   4:      Singlet-A      2.9954 eV  413.91 nm  f=0.0006  <S**2>=0.000
     243 -> 247        0.67732
     243 -> 249        0.13317

 Excited State   5:      Singlet-A      3.0919 eV  400.99 nm  f=0.0017  <S**2>=0.000
     241 -> 247        0.66658
     246 -> 248        0.16991

 The electronic state is 1-A.
 Alpha  occ. eigenvalues --  -46.91416 -19.26415 -19.25417 -19.20291 -19.20266
 Alpha  occ. eigenvalues --  -19.19265 -19.18704 -14.42189 -14.40889 -14.38622
 Alpha  occ. eigenvalues --  -14.37699 -10.36712 -10.36656 -10.32237 -10.31661
 Alpha  occ. eigenvalues --  -10.29684 -10.29162 -10.28935 -10.28833 -10.28122
 Alpha  occ. eigenvalues --  -10.28087 -10.27242 -10.27067 -10.26846 -10.26654
 Alpha  occ. eigenvalues --  -10.26091 -10.25921 -10.25840 -10.25614 -10.25523
 Alpha  occ. eigenvalues --  -10.25118 -10.25099 -10.25091 -10.25022 -10.24766
 Alpha  occ. eigenvalues --  -10.24662 -10.24473 -10.24372 -10.24253 -10.24244
 Alpha  occ. eigenvalues --  -10.24146 -10.24102 -10.24092 -10.23896 -10.23867
 Alpha  occ. eigenvalues --  -10.23570 -10.23556 -10.23462 -10.23445 -10.23401
 Alpha  occ. eigenvalues --  -10.23200 -10.23195 -10.23127 -10.22968 -10.22634
 Alpha  occ. eigenvalues --  -10.22618 -10.22509 -10.22397 -10.22266 -10.22248
 Alpha  occ. eigenvalues --  -10.22134 -10.22048 -10.21861 -10.21738 -10.21613
 Alpha  occ. eigenvalues --  -10.21508  -3.13582  -1.86433  -1.85946  -1.85808
 Alpha  occ. eigenvalues --   -1.10571  -1.10060  -1.05795  -1.04403  -1.02194
 Alpha  occ. eigenvalues --   -1.02154  -0.99361  -0.98430  -0.97220  -0.96673
 Alpha  occ. eigenvalues --   -0.87247  -0.84327  -0.83584  -0.83297  -0.83162
 Alpha  occ. eigenvalues --   -0.82543  -0.82025  -0.81629  -0.81296  -0.81259
 Alpha  occ. eigenvalues --   -0.80092  -0.78765  -0.78084  -0.77677  -0.77356
 Alpha  occ. eigenvalues --   -0.76585  -0.76403  -0.75500  -0.74932  -0.74778
 Alpha  occ. eigenvalues --   -0.74038  -0.72627  -0.71851  -0.71648  -0.70501
 Alpha  occ. eigenvalues --   -0.70289  -0.69624  -0.69404  -0.68939  -0.68009
 Alpha  occ. eigenvalues --   -0.67604  -0.67121  -0.65765  -0.64872  -0.64154
 Alpha  occ. eigenvalues --   -0.63061  -0.62521  -0.61580  -0.61382  -0.59596
 Alpha  occ. eigenvalues --   -0.59505  -0.59224  -0.58847  -0.58643  -0.58285
 Alpha  occ. eigenvalues --   -0.57723  -0.57250  -0.56654  -0.56002  -0.54481
 Alpha  occ. eigenvalues --   -0.54165  -0.53778  -0.53589  -0.52787  -0.52691
 Alpha  occ. eigenvalues --   -0.51829  -0.50748  -0.50424  -0.50248  -0.49587
 Alpha  occ. eigenvalues --   -0.49536  -0.48879  -0.48741  -0.48681  -0.48468
 Alpha  occ. eigenvalues --   -0.48052  -0.47930  -0.47658  -0.47475  -0.47247
 Alpha  occ. eigenvalues --   -0.47210  -0.46970  -0.46795  -0.46740  -0.46455
 Alpha  occ. eigenvalues --   -0.46168  -0.45961  -0.45734  -0.45498  -0.45399
 Alpha  occ. eigenvalues --   -0.44864  -0.44662  -0.44539  -0.44136  -0.43973
 Alpha  occ. eigenvalues --   -0.43827  -0.43594  -0.43546  -0.43446  -0.43122
 Alpha  occ. eigenvalues --   -0.43101  -0.42929  -0.42817  -0.42589  -0.42323
 Alpha  occ. eigenvalues --   -0.42059  -0.41891  -0.41662  -0.41417  -0.41227
 Alpha  occ. eigenvalues --   -0.41061  -0.40988  -0.40691  -0.40411  -0.40253
 Alpha  occ. eigenvalues --   -0.40079  -0.39782  -0.39703  -0.39543  -0.39361
 Alpha  occ. eigenvalues --   -0.39095  -0.39006  -0.38864  -0.38741  -0.38596
 Alpha  occ. eigenvalues --   -0.38440  -0.38278  -0.38173  -0.38160  -0.37971
 Alpha  occ. eigenvalues --   -0.37825  -0.37632  -0.37571  -0.37364  -0.37316
 Alpha  occ. eigenvalues --   -0.37072  -0.36698  -0.36607  -0.36318  -0.36033
 Alpha  occ. eigenvalues --   -0.35899  -0.35584  -0.35345  -0.35137  -0.34552
 Alpha  occ. eigenvalues --   -0.34444  -0.34437  -0.34198  -0.33789  -0.33126
 Alpha  occ. eigenvalues --   -0.32866  -0.32798  -0.32537  -0.32463  -0.32396
 Alpha  occ. eigenvalues --   -0.32165  -0.31963  -0.31632  -0.31529  -0.31327
 Alpha  occ. eigenvalues --   -0.30789  -0.30408  -0.30324  -0.29582  -0.29206
 Alpha  occ. eigenvalues --   -0.28917  -0.28587  -0.28481  -0.26965  -0.25937
 Alpha  occ. eigenvalues --   -0.25451  -0.25317  -0.25218  -0.24627  -0.21003
 Alpha  occ. eigenvalues --   -0.18551
 Alpha virt. eigenvalues --   -0.11076  -0.04722  -0.03138  -0.01734   0.00073
 Alpha virt. eigenvalues --    0.00288   0.00550   0.00848   0.02036   0.03246
 Alpha virt. eigenvalues --    0.04175   0.04235   0.04463   0.04834   0.05317

 Mulliken charges:
               1
     1  Mg   0.969813
     2  C    0.014705
     3  C   -0.079919
     4  C   -0.032007
     5  C   -0.081338
     6  N   -0.444092
     7  C    0.035032
     8  C   -0.077678
     9  C   -0.170788
    10  C    0.147984
    11  C   -0.029451
    12  C    0.027943
    13  C   -0.055288
    14  C    0.251208
    15  O   -0.260073
    16  O   -0.392050
    17  N   -0.455929
    18  C    0.133302
    19  C   -0.192489
    20  C   -0.074429
    21  C    0.124531
    22  C    0.074928
    23  C    0.025572
    24  O   -0.231158
    25  C    0.000961
    26  N   -0.423981
    27  C    0.076134
    28  C   -0.098906
    29  C   -0.080161
    30  C    0.077125
    31  C    0.034453
    32  C   -0.042516
    33  C   -0.078602
    34  N   -0.444356
    35  C    0.139841
    36  C   -0.189681
    37  C   -0.066272
    38  C    0.161841
    39  C    0.069839
    40  C    0.132305
    41  O   -0.205152
    42  C   -0.137011
    43  C    0.309205
    44  O   -0.273308
    45  O   -0.359186
    46  C    0.115170
    47  C    0.220443
    48  C   -0.115063
    49  C   -0.221151
    50  C   -0.004308
    51  C    0.025668
    52  C   -0.055090
    53  C   -0.025467
    54  C   -0.194312
    55  C   -0.011970
    56  C   -0.024235
    57  C   -0.060993
    58  C    0.013988
    59  C   -0.202039
    60  C   -0.025021
    61  C    0.004932
    62  C   -0.049956
    63  C   -0.045880
    64  C   -0.213096
    65  C   -0.016534
    66  C   -0.001898
    67  H   -0.002686
    68  H    0.032187
    69  H   -0.004649
    70  H    0.057528
    71  H    0.039000
    72  H    0.056794
    73  H    0.049124
    74  H    0.052099
    75  H    0.044916
    76  H    0.066011
    77  H    0.076897
    78  H    0.059200
    79  H    0.051898
    80  H    0.048218
    81  H    0.055153
    82  H    0.070358
    83  H    0.065973
    84  H    0.058741
    85  H    0.036795
    86  H    0.041620
    87  H    0.042551
    88  H    0.048892
    89  H    0.038001
    90  H    0.050924
    91  H    0.040828
    92  H    0.041018
    93  H    0.042694
    94  H    0.049501
    95  H    0.040316
    96  H    0.062474
    97  H    0.066434
    98  H    0.091087
    99  H    0.063075
   100  H    0.083050
   101  H    0.040219
   102  H    0.075547
   103  H    0.059461
   104  H    0.026204
   105  H    0.059459
   106  H    0.065550
   107  H    0.019785
   108  H    0.037836
   109  H    0.058049
   110  H    0.025346
   111  H    0.031172
   112  H    0.026602
   113  H    0.026869
   114  H    0.034778
   115  H    0.023170
   116  H    0.044130
   117  H    0.033821
   118  H    0.023542
   119  H    0.028269
   120  H    0.028158
   121  H    0.034040
   122  H    0.014618
   123  H    0.023081
   124  H    0.035781
   125  H    0.041821
   126  H    0.023114
   127  H    0.038316
   128  H    0.014469
   129  H    0.015279
   130  H    0.029241
   131  H    0.032116
   132  H    0.021523
   133  H    0.025388
   134  H    0.037877
   135  H    0.035609
   136  H    0.019528
   137  H    0.036330
   138  H    0.029989
   139  H    0.032471
   140  H    0.031332
 Sum of Mulliken charges =  -0.00000

 Dipole moment (field-independent basis, Debye):
    X=              2.2083    Y=              4.7599    Z=              1.2470  Tot=              5.3934
 Quadrupole moment (field-independent basis, Debye-Ang):
   XX=           -367.8602   YY=           -411.3983   ZZ=           -404.9020
   XY=             -2.5854   XZ=              4.8220   YZ=             -1.8815

 Normal termination of Gaussian 16 at Thu Apr 28 13:34:42 2022.
