 Gaussian 16, Revision A.03,
 Gaussian 16:  ES64L-G16RevA.03 25-Dec-2016

 --------------------------------
 #p wB97XD/Def2SVP td=(nstates=5)
 --------------------------------

 -----------------------------------------------------
 step_1601_chromophore_13 TDDFT with wB97XD functional
 -----------------------------------------------------
 Symbolic Z-matrix:
 Charge =  0 Multiplicity = 1

                         Standard orientation:
 ---------------------------------------------------------------------
 Center     Atomic      Atomic             Coordinates (Angstroms)
 Number     Number       Type             X           Y           Z
 ---------------------------------------------------------------------
      1         12           0       -5.782184    0.357881   -0.431430
      2          6           0       -3.639937   -2.327846   -0.182911
      3          6           0       -3.265044    2.501565    0.312683
      4          6           0       -8.057147    2.742454    0.449998
      5          6           0       -8.418664   -2.009762   -0.514143
      6          7           0       -3.725786    0.133983   -0.163000
      7          6           0       -3.050718   -1.084436    0.019444
      8          6           0       -1.589945   -0.924462    0.519124
      9          6           0       -1.536776    0.601781    0.807748
     10          6           0       -2.923220    1.174893    0.197744
     11          6           0       -1.356008    1.062288    2.405310
     12          6           0       -0.555295   -1.453266   -0.529823
     13          6           0        0.837629   -1.720719    0.141039
     14          6           0        2.027620   -1.902978   -0.842724
     15          8           0        1.912903   -1.985152   -2.058037
     16          8           0        3.276845   -1.932668   -0.209987
     17          7           0       -5.618181    2.494479   -0.044280
     18          6           0       -4.482737    3.156386    0.158877
     19          6           0       -4.822223    4.567501    0.262153
     20          6           0       -6.199822    4.642209    0.275211
     21          6           0       -6.717287    3.288411    0.238542
     22          6           0       -3.799293    5.731356    0.269184
     23          6           0       -7.122810    5.849104    0.466403
     24          8           0       -8.313281    5.627133    0.426045
     25          6           0       -6.560173    7.219144    0.691807
     26          7           0       -7.851339    0.263510    0.045866
     27          6           0       -8.550627    1.433087    0.294987
     28          6           0       -9.953349    1.102094    0.703764
     29          6           0      -10.161052   -0.306683   -0.016699
     30          6           0       -8.770114   -0.728363   -0.260760
     31          6           0      -10.284701    1.124162    2.209055
     32          6           0      -11.024469   -0.415208   -1.287517
     33          6           0      -10.289385   -0.232500   -2.674346
     34          7           0       -5.969404   -1.714296   -0.600817
     35          6           0       -7.101368   -2.471815   -0.713563
     36          6           0       -6.754452   -3.853526   -0.996712
     37          6           0       -5.354923   -3.828255   -0.705217
     38          6           0       -4.974927   -2.568156   -0.420175
     39          6           0       -7.768057   -4.931053   -1.443494
     40          6           0       -4.167993   -4.692223   -0.453037
     41          8           0       -4.001529   -5.888104   -0.606872
     42          6           0       -3.030675   -3.731721   -0.088629
     43          6           0       -2.483017   -4.089999    1.265348
     44          8           0       -2.953385   -3.685892    2.338252
     45          8           0       -1.371063   -4.889978    1.096860
     46          6           0       -0.715059   -5.177971    2.392561
     47          6           0        4.457678   -1.728087   -1.081212
     48          6           0        5.297606   -0.801636   -0.185906
     49          6           0        6.630131   -0.802226   -0.121678
     50          6           0        7.615934   -1.674772   -0.918577
     51          6           0        7.436824    0.120129    0.780531
     52          6           0        6.961900    1.597429    0.789167
     53          6           0        8.145244    2.693092    0.879082
     54          6           0        8.411008    3.615051   -0.318493
     55          6           0        7.184958    4.488252   -0.525381
     56          6           0        8.782275    2.742477   -1.615379
     57          6           0       10.312429    2.705422   -1.966788
     58          6           0       10.882145    1.347729   -2.127064
     59          6           0       12.345457    1.147065   -1.589936
     60          6           0       13.476452    1.055241   -2.688198
     61          6           0       12.454462   -0.071912   -0.626876
     62          6           0       12.364618    0.334114    0.870439
     63          6           0       13.764616    0.113690    1.536477
     64          6           0       14.193644   -1.443953    1.716689
     65          6           0       14.641489   -1.667885    3.158581
     66          6           0       15.081697   -1.937414    0.634795
     67          1           0       -2.478272    3.208727    0.584816
     68          1           0       -8.845649    3.450952    0.713427
     69          1           0       -9.277051   -2.672279   -0.644061
     70          1           0       -1.486677   -1.309168    1.534022
     71          1           0       -0.612044    0.981259    0.372814
     72          1           0       -0.610872    1.831984    2.607228
     73          1           0       -1.284841    0.181920    3.044459
     74          1           0       -2.356989    1.431894    2.625038
     75          1           0       -0.429191   -0.611569   -1.211710
     76          1           0       -0.943307   -2.296542   -1.101186
     77          1           0        0.806604   -2.587454    0.800972
     78          1           0        1.120195   -0.845776    0.726765
     79          1           0       -2.780854    5.357947    0.167755
     80          1           0       -3.989692    6.290902    1.185688
     81          1           0       -4.066149    6.402613   -0.546723
     82          1           0       -6.041194    7.494532   -0.226922
     83          1           0       -5.919231    7.097460    1.565143
     84          1           0       -7.411162    7.867220    0.899142
     85          1           0      -10.590339    1.834602    0.207778
     86          1           0      -10.604509   -1.084351    0.605927
     87          1           0      -10.276792    0.148169    2.693636
     88          1           0      -11.213350    1.659801    2.406610
     89          1           0       -9.506972    1.648257    2.764516
     90          1           0      -11.908535    0.216768   -1.197561
     91          1           0      -11.278393   -1.472136   -1.357419
     92          1           0      -10.984819    0.331420   -3.296775
     93          1           0      -10.008896   -1.141212   -3.207204
     94          1           0       -9.367075    0.347700   -2.669247
     95          1           0       -8.533501   -4.385588   -1.996295
     96          1           0       -8.220394   -5.334739   -0.537448
     97          1           0       -7.417390   -5.724906   -2.102998
     98          1           0       -2.319131   -4.052037   -0.848959
     99          1           0       -0.154136   -6.102616    2.256213
    100          1           0       -1.351462   -5.143643    3.277062
    101          1           0        0.059950   -4.423506    2.528778
    102          1           0        4.370838   -1.232489   -2.048578
    103          1           0        4.858438   -2.717810   -1.301233
    104          1           0        4.718264   -0.122944    0.439895
    105          1           0        8.107407   -2.282499   -0.159116
    106          1           0        8.296095   -1.139532   -1.580301
    107          1           0        7.082778   -2.344352   -1.594037
    108          1           0        8.483902    0.127962    0.476735
    109          1           0        7.355169   -0.332893    1.769100
    110          1           0        6.260141    1.778250    1.601928
    111          1           0        6.279715    1.845230   -0.023361
    112          1           0        9.078754    2.164759    1.072738
    113          1           0        8.014837    3.378184    1.717355
    114          1           0        9.217523    4.314378   -0.096905
    115          1           0        6.785028    4.816305    0.434033
    116          1           0        6.373900    3.987351   -1.054721
    117          1           0        7.548184    5.374055   -1.045827
    118          1           0        8.366345    3.115137   -2.551567
    119          1           0        8.547968    1.680097   -1.552923
    120          1           0       10.698734    3.272138   -1.118916
    121          1           0       10.407467    3.301816   -2.874244
    122          1           0       10.928319    1.166759   -3.201619
    123          1           0       10.227383    0.542119   -1.795069
    124          1           0       12.511073    2.052542   -1.006351
    125          1           0       14.430734    1.437146   -2.325341
    126          1           0       13.257843    1.690087   -3.547652
    127          1           0       13.565002    0.061519   -3.125625
    128          1           0       13.335157   -0.663003   -0.876272
    129          1           0       11.655451   -0.791403   -0.805173
    130          1           0       11.522001   -0.166939    1.348578
    131          1           0       12.134593    1.371671    1.112088
    132          1           0       13.873220    0.751879    2.412487
    133          1           0       14.537847    0.483041    0.862711
    134          1           0       13.271081   -2.024300    1.700870
    135          1           0       14.443481   -0.821422    3.816658
    136          1           0       15.720913   -1.789325    3.251234
    137          1           0       14.236653   -2.608868    3.531136
    138          1           0       14.611429   -2.607390   -0.085798
    139          1           0       15.975748   -2.409624    1.042046
    140          1           0       15.380675   -1.219025   -0.128578
 ---------------------------------------------------------------------

 SCF Done:  E(RwB97XD) =  -3007.85014606     A.U. after   19 cycles

 Excitation energies and oscillator strengths:

 Excited State   1:      Singlet-A      1.6256 eV  762.70 nm  f=0.3872  <S**2>=0.000
     245 -> 248        0.17422
     246 -> 247        0.68680
     245 <- 248        0.11527
 This state for optimization and/or second-order correction.
 Total Energy, E(TD-HF/TD-DFT) =  -3007.79040634
 Copying the excited state density for this state as the 1-particle RhoCI density.

 Excited State   2:      Singlet-A      2.1772 eV  569.47 nm  f=0.1093  <S**2>=0.000
     245 -> 247        0.63933
     246 -> 248       -0.28338

 Excited State   3:      Singlet-A      3.2259 eV  384.34 nm  f=0.0059  <S**2>=0.000
     242 -> 247       -0.16866
     244 -> 247        0.66494

 Excited State   4:      Singlet-A      3.4007 eV  364.58 nm  f=0.0300  <S**2>=0.000
     241 -> 247        0.30697
     242 -> 247        0.50201
     244 -> 247        0.14702
     246 -> 248        0.30541

 Excited State   5:      Singlet-A      3.6221 eV  342.30 nm  f=0.0240  <S**2>=0.000
     241 -> 247        0.46521
     241 -> 249        0.25251
     241 -> 250        0.20888
     242 -> 247       -0.33184
     242 -> 249       -0.13345
     242 -> 250       -0.10798

 The electronic state is 1-A.
 Alpha  occ. eigenvalues --  -46.94356 -19.30965 -19.29941 -19.24977 -19.24911
 Alpha  occ. eigenvalues --  -19.24208 -19.23419 -14.47299 -14.45943 -14.43655
 Alpha  occ. eigenvalues --  -14.42522 -10.43480 -10.43462 -10.39183 -10.38408
 Alpha  occ. eigenvalues --  -10.36159 -10.35594 -10.35330 -10.35083 -10.34670
 Alpha  occ. eigenvalues --  -10.34510 -10.33630 -10.33361 -10.32916 -10.32914
 Alpha  occ. eigenvalues --  -10.32605 -10.32509 -10.32072 -10.31875 -10.31784
 Alpha  occ. eigenvalues --  -10.31759 -10.31448 -10.31357 -10.31304 -10.30900
 Alpha  occ. eigenvalues --  -10.30849 -10.30812 -10.30811 -10.30752 -10.30691
 Alpha  occ. eigenvalues --  -10.30683 -10.30610 -10.30498 -10.30192 -10.30155
 Alpha  occ. eigenvalues --  -10.29996 -10.29855 -10.29828 -10.29786 -10.29749
 Alpha  occ. eigenvalues --  -10.29574 -10.29512 -10.29482 -10.29331 -10.28987
 Alpha  occ. eigenvalues --  -10.28976 -10.28843 -10.28761 -10.28628 -10.28574
 Alpha  occ. eigenvalues --  -10.28429 -10.28396 -10.28243 -10.28188 -10.28053
 Alpha  occ. eigenvalues --  -10.27934  -3.20375  -1.93976  -1.93490  -1.93348
 Alpha  occ. eigenvalues --   -1.17965  -1.17418  -1.13400  -1.11785  -1.09560
 Alpha  occ. eigenvalues --   -1.09473  -1.06564  -1.05913  -1.04622  -1.04081
 Alpha  occ. eigenvalues --   -0.94770  -0.92012  -0.91256  -0.90936  -0.90721
 Alpha  occ. eigenvalues --   -0.90218  -0.89608  -0.89381  -0.88991  -0.88958
 Alpha  occ. eigenvalues --   -0.87564  -0.86420  -0.85748  -0.85244  -0.85046
 Alpha  occ. eigenvalues --   -0.84409  -0.84073  -0.83089  -0.82548  -0.82442
 Alpha  occ. eigenvalues --   -0.81705  -0.80357  -0.79497  -0.79230  -0.78082
 Alpha  occ. eigenvalues --   -0.77981  -0.77267  -0.77037  -0.76628  -0.75676
 Alpha  occ. eigenvalues --   -0.75165  -0.74670  -0.73314  -0.72494  -0.71664
 Alpha  occ. eigenvalues --   -0.70720  -0.70026  -0.69230  -0.69016  -0.67257
 Alpha  occ. eigenvalues --   -0.67013  -0.66647  -0.66326  -0.66050  -0.65970
 Alpha  occ. eigenvalues --   -0.65170  -0.64886  -0.64024  -0.63618  -0.61942
 Alpha  occ. eigenvalues --   -0.61690  -0.61252  -0.61022  -0.60167  -0.60093
 Alpha  occ. eigenvalues --   -0.59241  -0.58196  -0.57771  -0.57747  -0.57015
 Alpha  occ. eigenvalues --   -0.56955  -0.56307  -0.56256  -0.56049  -0.55837
 Alpha  occ. eigenvalues --   -0.55780  -0.55360  -0.55003  -0.54804  -0.54634
 Alpha  occ. eigenvalues --   -0.54583  -0.54402  -0.54180  -0.54085  -0.53856
 Alpha  occ. eigenvalues --   -0.53441  -0.53291  -0.53076  -0.52850  -0.52642
 Alpha  occ. eigenvalues --   -0.52361  -0.52026  -0.52002  -0.51485  -0.51418
 Alpha  occ. eigenvalues --   -0.51145  -0.50901  -0.50858  -0.50745  -0.50454
 Alpha  occ. eigenvalues --   -0.50352  -0.50237  -0.50057  -0.49846  -0.49634
 Alpha  occ. eigenvalues --   -0.49319  -0.49173  -0.48861  -0.48594  -0.48435
 Alpha  occ. eigenvalues --   -0.48319  -0.48110  -0.47892  -0.47581  -0.47405
 Alpha  occ. eigenvalues --   -0.47227  -0.46954  -0.46934  -0.46666  -0.46577
 Alpha  occ. eigenvalues --   -0.46242  -0.46202  -0.46069  -0.45960  -0.45741
 Alpha  occ. eigenvalues --   -0.45593  -0.45457  -0.45327  -0.45290  -0.45122
 Alpha  occ. eigenvalues --   -0.45058  -0.44778  -0.44635  -0.44530  -0.44413
 Alpha  occ. eigenvalues --   -0.44118  -0.43798  -0.43672  -0.43450  -0.43057
 Alpha  occ. eigenvalues --   -0.42987  -0.42546  -0.42433  -0.42129  -0.41565
 Alpha  occ. eigenvalues --   -0.41530  -0.41385  -0.41109  -0.40847  -0.40165
 Alpha  occ. eigenvalues --   -0.39913  -0.39726  -0.39537  -0.39479  -0.39320
 Alpha  occ. eigenvalues --   -0.39202  -0.38895  -0.38695  -0.38550  -0.38322
 Alpha  occ. eigenvalues --   -0.37802  -0.37315  -0.37287  -0.36396  -0.36285
 Alpha  occ. eigenvalues --   -0.36003  -0.35376  -0.35231  -0.33648  -0.33156
 Alpha  occ. eigenvalues --   -0.32222  -0.32136  -0.32088  -0.31026  -0.26051
 Alpha  occ. eigenvalues --   -0.22717
 Alpha virt. eigenvalues --   -0.06964   0.00756   0.03181   0.04834   0.06092
 Alpha virt. eigenvalues --    0.06962   0.07358   0.07642   0.08786   0.09728
 Alpha virt. eigenvalues --    0.10699   0.10847   0.11222   0.11617   0.11969

 Mulliken charges:
               1
     1  Mg   0.958791
     2  C    0.016905
     3  C   -0.091864
     4  C   -0.049858
     5  C   -0.102992
     6  N   -0.409902
     7  C    0.006171
     8  C   -0.052117
     9  C   -0.153516
    10  C    0.134699
    11  C   -0.014269
    12  C    0.041334
    13  C   -0.033935
    14  C    0.241158
    15  O   -0.258252
    16  O   -0.391704
    17  N   -0.424947
    18  C    0.123968
    19  C   -0.181570
    20  C   -0.065492
    21  C    0.116222
    22  C    0.090463
    23  C    0.019501
    24  O   -0.225356
    25  C    0.013531
    26  N   -0.392977
    27  C    0.068727
    28  C   -0.072210
    29  C   -0.057987
    30  C    0.068584
    31  C    0.041983
    32  C   -0.029641
    33  C   -0.060145
    34  N   -0.407255
    35  C    0.135302
    36  C   -0.193498
    37  C   -0.062711
    38  C    0.144022
    39  C    0.084256
    40  C    0.110650
    41  O   -0.196681
    42  C   -0.097690
    43  C    0.284170
    44  O   -0.267911
    45  O   -0.358376
    46  C    0.131701
    47  C    0.229557
    48  C   -0.122518
    49  C   -0.208775
    50  C    0.016620
    51  C    0.049304
    52  C   -0.041072
    53  C   -0.003425
    54  C   -0.161878
    55  C   -0.002370
    56  C   -0.005479
    57  C   -0.042110
    58  C    0.038633
    59  C   -0.173368
    60  C   -0.009766
    61  C    0.027111
    62  C   -0.034895
    63  C   -0.021064
    64  C   -0.188859
    65  C   -0.004306
    66  C    0.008791
    67  H   -0.010226
    68  H    0.028610
    69  H   -0.011060
    70  H    0.041323
    71  H    0.028329
    72  H    0.052718
    73  H    0.044251
    74  H    0.042705
    75  H    0.036198
    76  H    0.056730
    77  H    0.068295
    78  H    0.050993
    79  H    0.048979
    80  H    0.041725
    81  H    0.049127
    82  H    0.065239
    83  H    0.059495
    84  H    0.058455
    85  H    0.026998
    86  H    0.031384
    87  H    0.037672
    88  H    0.044522
    89  H    0.031123
    90  H    0.044548
    91  H    0.031949
    92  H    0.035341
    93  H    0.037100
    94  H    0.038656
    95  H    0.032208
    96  H    0.056636
    97  H    0.062520
    98  H    0.084740
    99  H    0.059913
   100  H    0.079567
   101  H    0.034366
   102  H    0.071532
   103  H    0.055343
   104  H    0.023164
   105  H    0.053180
   106  H    0.059118
   107  H    0.013187
   108  H    0.021825
   109  H    0.051200
   110  H    0.018429
   111  H    0.018111
   112  H    0.013474
   113  H    0.018464
   114  H    0.025144
   115  H    0.016886
   116  H    0.038003
   117  H    0.028391
   118  H    0.016743
   119  H    0.005479
   120  H    0.013424
   121  H    0.027381
   122  H    0.006476
   123  H    0.001014
   124  H    0.020339
   125  H    0.036025
   126  H    0.016456
   127  H    0.032209
   128  H   -0.004300
   129  H    0.006845
   130  H    0.021755
   131  H    0.022808
   132  H    0.014544
   133  H    0.010762
   134  H    0.025965
   135  H    0.029430
   136  H    0.012522
   137  H    0.031272
   138  H    0.025086
   139  H    0.027778
   140  H    0.023996
 Sum of Mulliken charges =  -0.00000

 Dipole moment (field-independent basis, Debye):
    X=              2.3334    Y=              5.2518    Z=              1.3205  Tot=              5.8966
 Quadrupole moment (field-independent basis, Debye-Ang):
   XX=           -369.5062   YY=           -409.1290   ZZ=           -404.5579
   XY=             -5.7129   XZ=              4.5235   YZ=             -2.1082

 Normal termination of Gaussian 16 at Thu Apr 28 14:03:00 2022.
