 Gaussian 16, Revision A.03,
 Gaussian 16:  ES64L-G16RevA.03 25-Dec-2016

 --------------------
 #p ZINDO=(nstates=5)
 --------------------

 ------------------------------
 step_1601_chromophore_13 ZINDO
 ------------------------------
 Symbolic Z-matrix:
 Charge =  0 Multiplicity = 1

                         Standard orientation:
 ---------------------------------------------------------------------
 Center     Atomic      Atomic             Coordinates (Angstroms)
 Number     Number       Type             X           Y           Z
 ---------------------------------------------------------------------
      1         12           0       -5.782184    0.357881   -0.431430
      2          6           0       -3.639937   -2.327846   -0.182911
      3          6           0       -3.265044    2.501565    0.312683
      4          6           0       -8.057147    2.742454    0.449998
      5          6           0       -8.418664   -2.009762   -0.514143
      6          7           0       -3.725786    0.133983   -0.163000
      7          6           0       -3.050718   -1.084436    0.019444
      8          6           0       -1.589945   -0.924462    0.519124
      9          6           0       -1.536776    0.601781    0.807748
     10          6           0       -2.923220    1.174893    0.197744
     11          6           0       -1.356008    1.062288    2.405310
     12          6           0       -0.555295   -1.453266   -0.529823
     13          6           0        0.837629   -1.720719    0.141039
     14          6           0        2.027620   -1.902978   -0.842724
     15          8           0        1.912903   -1.985152   -2.058037
     16          8           0        3.276845   -1.932668   -0.209987
     17          7           0       -5.618181    2.494479   -0.044280
     18          6           0       -4.482737    3.156386    0.158877
     19          6           0       -4.822223    4.567501    0.262153
     20          6           0       -6.199822    4.642209    0.275211
     21          6           0       -6.717287    3.288411    0.238542
     22          6           0       -3.799293    5.731356    0.269184
     23          6           0       -7.122810    5.849104    0.466403
     24          8           0       -8.313281    5.627133    0.426045
     25          6           0       -6.560173    7.219144    0.691807
     26          7           0       -7.851339    0.263510    0.045866
     27          6           0       -8.550627    1.433087    0.294987
     28          6           0       -9.953349    1.102094    0.703764
     29          6           0      -10.161052   -0.306683   -0.016699
     30          6           0       -8.770114   -0.728363   -0.260760
     31          6           0      -10.284701    1.124162    2.209055
     32          6           0      -11.024469   -0.415208   -1.287517
     33          6           0      -10.289385   -0.232500   -2.674346
     34          7           0       -5.969404   -1.714296   -0.600817
     35          6           0       -7.101368   -2.471815   -0.713563
     36          6           0       -6.754452   -3.853526   -0.996712
     37          6           0       -5.354923   -3.828255   -0.705217
     38          6           0       -4.974927   -2.568156   -0.420175
     39          6           0       -7.768057   -4.931053   -1.443494
     40          6           0       -4.167993   -4.692223   -0.453037
     41          8           0       -4.001529   -5.888104   -0.606872
     42          6           0       -3.030675   -3.731721   -0.088629
     43          6           0       -2.483017   -4.089999    1.265348
     44          8           0       -2.953385   -3.685892    2.338252
     45          8           0       -1.371063   -4.889978    1.096860
     46          6           0       -0.715059   -5.177971    2.392561
     47          6           0        4.457678   -1.728087   -1.081212
     48          6           0        5.297606   -0.801636   -0.185906
     49          6           0        6.630131   -0.802226   -0.121678
     50          6           0        7.615934   -1.674772   -0.918577
     51          6           0        7.436824    0.120129    0.780531
     52          6           0        6.961900    1.597429    0.789167
     53          6           0        8.145244    2.693092    0.879082
     54          6           0        8.411008    3.615051   -0.318493
     55          6           0        7.184958    4.488252   -0.525381
     56          6           0        8.782275    2.742477   -1.615379
     57          6           0       10.312429    2.705422   -1.966788
     58          6           0       10.882145    1.347729   -2.127064
     59          6           0       12.345457    1.147065   -1.589936
     60          6           0       13.476452    1.055241   -2.688198
     61          6           0       12.454462   -0.071912   -0.626876
     62          6           0       12.364618    0.334114    0.870439
     63          6           0       13.764616    0.113690    1.536477
     64          6           0       14.193644   -1.443953    1.716689
     65          6           0       14.641489   -1.667885    3.158581
     66          6           0       15.081697   -1.937414    0.634795
     67          1           0       -2.478272    3.208727    0.584816
     68          1           0       -8.845649    3.450952    0.713427
     69          1           0       -9.277051   -2.672279   -0.644061
     70          1           0       -1.486677   -1.309168    1.534022
     71          1           0       -0.612044    0.981259    0.372814
     72          1           0       -0.610872    1.831984    2.607228
     73          1           0       -1.284841    0.181920    3.044459
     74          1           0       -2.356989    1.431894    2.625038
     75          1           0       -0.429191   -0.611569   -1.211710
     76          1           0       -0.943307   -2.296542   -1.101186
     77          1           0        0.806604   -2.587454    0.800972
     78          1           0        1.120195   -0.845776    0.726765
     79          1           0       -2.780854    5.357947    0.167755
     80          1           0       -3.989692    6.290902    1.185688
     81          1           0       -4.066149    6.402613   -0.546723
     82          1           0       -6.041194    7.494532   -0.226922
     83          1           0       -5.919231    7.097460    1.565143
     84          1           0       -7.411162    7.867220    0.899142
     85          1           0      -10.590339    1.834602    0.207778
     86          1           0      -10.604509   -1.084351    0.605927
     87          1           0      -10.276792    0.148169    2.693636
     88          1           0      -11.213350    1.659801    2.406610
     89          1           0       -9.506972    1.648257    2.764516
     90          1           0      -11.908535    0.216768   -1.197561
     91          1           0      -11.278393   -1.472136   -1.357419
     92          1           0      -10.984819    0.331420   -3.296775
     93          1           0      -10.008896   -1.141212   -3.207204
     94          1           0       -9.367075    0.347700   -2.669247
     95          1           0       -8.533501   -4.385588   -1.996295
     96          1           0       -8.220394   -5.334739   -0.537448
     97          1           0       -7.417390   -5.724906   -2.102998
     98          1           0       -2.319131   -4.052037   -0.848959
     99          1           0       -0.154136   -6.102616    2.256213
    100          1           0       -1.351462   -5.143643    3.277062
    101          1           0        0.059950   -4.423506    2.528778
    102          1           0        4.370838   -1.232489   -2.048578
    103          1           0        4.858438   -2.717810   -1.301233
    104          1           0        4.718264   -0.122944    0.439895
    105          1           0        8.107407   -2.282499   -0.159116
    106          1           0        8.296095   -1.139532   -1.580301
    107          1           0        7.082778   -2.344352   -1.594037
    108          1           0        8.483902    0.127962    0.476735
    109          1           0        7.355169   -0.332893    1.769100
    110          1           0        6.260141    1.778250    1.601928
    111          1           0        6.279715    1.845230   -0.023361
    112          1           0        9.078754    2.164759    1.072738
    113          1           0        8.014837    3.378184    1.717355
    114          1           0        9.217523    4.314378   -0.096905
    115          1           0        6.785028    4.816305    0.434033
    116          1           0        6.373900    3.987351   -1.054721
    117          1           0        7.548184    5.374055   -1.045827
    118          1           0        8.366345    3.115137   -2.551567
    119          1           0        8.547968    1.680097   -1.552923
    120          1           0       10.698734    3.272138   -1.118916
    121          1           0       10.407467    3.301816   -2.874244
    122          1           0       10.928319    1.166759   -3.201619
    123          1           0       10.227383    0.542119   -1.795069
    124          1           0       12.511073    2.052542   -1.006351
    125          1           0       14.430734    1.437146   -2.325341
    126          1           0       13.257843    1.690087   -3.547652
    127          1           0       13.565002    0.061519   -3.125625
    128          1           0       13.335157   -0.663003   -0.876272
    129          1           0       11.655451   -0.791403   -0.805173
    130          1           0       11.522001   -0.166939    1.348578
    131          1           0       12.134593    1.371671    1.112088
    132          1           0       13.873220    0.751879    2.412487
    133          1           0       14.537847    0.483041    0.862711
    134          1           0       13.271081   -2.024300    1.700870
    135          1           0       14.443481   -0.821422    3.816658
    136          1           0       15.720913   -1.789325    3.251234
    137          1           0       14.236653   -2.608868    3.531136
    138          1           0       14.611429   -2.607390   -0.085798
    139          1           0       15.975748   -2.409624    1.042046
    140          1           0       15.380675   -1.219025   -0.128578
 ---------------------------------------------------------------------

 SCF Done:  E(RZINDO/S) =  -474.150837773     A.U. after   20 cycles

 Excitation energies and oscillator strengths:

 Excited State   1:      Singlet-A      1.2307 eV 1007.39 nm  f=0.6234  <S**2>=0.000
     175 ->178         0.17647
     176 ->177         0.66693
 This state for optimization and/or second-order correction.
 Total Energy, E(CIS/TDA) =  -474.105608878
 Copying the excited state density for this state as the 1-particle RhoCI density.

 Excited State   2:      Singlet-A      1.9392 eV  639.34 nm  f=0.0360  <S**2>=0.000
     175 ->177         0.54329
     176 ->178        -0.42362

 Excited State   3:      Singlet-A      2.9971 eV  413.68 nm  f=0.0022  <S**2>=0.000
     168 ->177         0.26948
     168 ->179        -0.40291
     168 ->180        -0.29752
     168 ->183         0.12366
     168 ->186        -0.24318
     171 ->177         0.11792

 Excited State   4:      Singlet-A      3.0071 eV  412.30 nm  f=0.7708  <S**2>=0.000
     171 ->177         0.17047
     174 ->177        -0.18761
     175 ->177         0.33057
     176 ->178         0.48797
     176 ->179        -0.18405
     176 ->180         0.10011

 Excited State   5:      Singlet-A      3.0538 eV  406.00 nm  f=0.0074  <S**2>=0.000
     169 ->177        -0.15593
     169 ->179        -0.19793
     169 ->180         0.14650
     169 ->183        -0.12258
     169 ->187        -0.13024
     170 ->177        -0.24409
     170 ->178         0.12904
     170 ->179        -0.23498
     170 ->180         0.20899
     170 ->183        -0.16330
     170 ->186        -0.12786
     170 ->187        -0.14755
     176 ->179        -0.23208

 The electronic state is 1-A.
 Alpha  occ. eigenvalues --   -1.86684  -1.81980  -1.79951  -1.71932  -1.71336
 Alpha  occ. eigenvalues --   -1.69833  -1.64660  -1.60766  -1.60130  -1.59145
 Alpha  occ. eigenvalues --   -1.53971  -1.51060  -1.48660  -1.48041  -1.45515
 Alpha  occ. eigenvalues --   -1.43683  -1.42674  -1.39148  -1.38983  -1.38678
 Alpha  occ. eigenvalues --   -1.35509  -1.32152  -1.30979  -1.30428  -1.28596
 Alpha  occ. eigenvalues --   -1.27534  -1.23818  -1.22548  -1.21197  -1.18611
 Alpha  occ. eigenvalues --   -1.17908  -1.17803  -1.15132  -1.13960  -1.13297
 Alpha  occ. eigenvalues --   -1.12836  -1.10161  -1.09834  -1.04957  -1.03414
 Alpha  occ. eigenvalues --   -1.02170  -1.01587  -0.99681  -0.97479  -0.96338
 Alpha  occ. eigenvalues --   -0.96303  -0.95172  -0.93800  -0.93272  -0.92985
 Alpha  occ. eigenvalues --   -0.92250  -0.89731  -0.88944  -0.87315  -0.85022
 Alpha  occ. eigenvalues --   -0.84121  -0.84009  -0.82940  -0.81429  -0.79560
 Alpha  occ. eigenvalues --   -0.78889  -0.78421  -0.76706  -0.76133  -0.75648
 Alpha  occ. eigenvalues --   -0.75406  -0.74607  -0.74234  -0.73713  -0.73342
 Alpha  occ. eigenvalues --   -0.73035  -0.72574  -0.72249  -0.71489  -0.70965
 Alpha  occ. eigenvalues --   -0.70554  -0.69118  -0.68999  -0.68409  -0.68288
 Alpha  occ. eigenvalues --   -0.67997  -0.67876  -0.66920  -0.66125  -0.65383
 Alpha  occ. eigenvalues --   -0.64618  -0.64367  -0.63912  -0.63584  -0.63045
 Alpha  occ. eigenvalues --   -0.62730  -0.62471  -0.62405  -0.61959  -0.61462
 Alpha  occ. eigenvalues --   -0.61429  -0.61024  -0.60949  -0.60670  -0.60294
 Alpha  occ. eigenvalues --   -0.60129  -0.59698  -0.59614  -0.59203  -0.58631
 Alpha  occ. eigenvalues --   -0.58113  -0.58008  -0.57762  -0.57360  -0.57103
 Alpha  occ. eigenvalues --   -0.55671  -0.55267  -0.55133  -0.54828  -0.54435
 Alpha  occ. eigenvalues --   -0.54066  -0.53701  -0.53602  -0.52906  -0.52858
 Alpha  occ. eigenvalues --   -0.52701  -0.52173  -0.51753  -0.51679  -0.51396
 Alpha  occ. eigenvalues --   -0.51291  -0.51066  -0.50575  -0.50389  -0.50049
 Alpha  occ. eigenvalues --   -0.49814  -0.49742  -0.49399  -0.49012  -0.48783
 Alpha  occ. eigenvalues --   -0.48642  -0.48277  -0.48137  -0.47901  -0.47618
 Alpha  occ. eigenvalues --   -0.47268  -0.47101  -0.46821  -0.46675  -0.46325
 Alpha  occ. eigenvalues --   -0.46286  -0.46059  -0.45993  -0.45669  -0.45580
 Alpha  occ. eigenvalues --   -0.45095  -0.44717  -0.44653  -0.44066  -0.44053
 Alpha  occ. eigenvalues --   -0.43834  -0.43223  -0.43128  -0.42503  -0.42129
 Alpha  occ. eigenvalues --   -0.42002  -0.41562  -0.41260  -0.39163  -0.38601
 Alpha  occ. eigenvalues --   -0.38241  -0.36881  -0.35471  -0.34621  -0.33928
 Alpha  occ. eigenvalues --   -0.33167  -0.32661  -0.32418  -0.31338  -0.26735
 Alpha  occ. eigenvalues --   -0.21354
 Alpha virt. eigenvalues --   -0.08327  -0.01557   0.00086   0.01380   0.01900
 Alpha virt. eigenvalues --    0.02465   0.02710   0.02975   0.05020   0.05142
 Alpha virt. eigenvalues --    0.06502   0.07096   0.07443   0.07638   0.08485

 Mulliken charges:
               1
     1  Mg   0.419111
     2  C   -0.030976
     3  C   -0.068383
     4  C   -0.075430
     5  C   -0.071209
     6  N   -0.268040
     7  C    0.098159
     8  C   -0.005521
     9  C   -0.017591
    10  C    0.141862
    11  C   -0.069126
    12  C   -0.019157
    13  C    0.007789
    14  C    0.454709
    15  O   -0.511467
    16  O   -0.278780
    17  N   -0.326515
    18  C    0.134983
    19  C    0.010250
    20  C   -0.032368
    21  C    0.140855
    22  C   -0.047383
    23  C    0.323123
    24  O   -0.516491
    25  C   -0.029822
    26  N   -0.293503
    27  C    0.154188
    28  C    0.013938
    29  C    0.000037
    30  C    0.127192
    31  C   -0.044150
    32  C   -0.026851
    33  C   -0.059468
    34  N   -0.328090
    35  C    0.102018
    36  C    0.000643
    37  C   -0.052199
    38  C    0.122856
    39  C   -0.034912
    40  C    0.331172
    41  O   -0.525039
    42  C    0.052295
    43  C    0.488393
    44  O   -0.532279
    45  O   -0.257521
    46  C    0.071485
    47  C    0.105533
    48  C   -0.083982
    49  C   -0.011990
    50  C   -0.046967
    51  C   -0.019748
    52  C   -0.036863
    53  C   -0.035508
    54  C   -0.004517
    55  C   -0.054708
    56  C   -0.054729
    57  C   -0.038751
    58  C   -0.027713
    59  C   -0.015842
    60  C   -0.058164
    61  C   -0.033174
    62  C   -0.035941
    63  C   -0.044582
    64  C   -0.002529
    65  C   -0.056088
    66  C   -0.050314
    67  H    0.016481
    68  H    0.047366
    69  H    0.024818
    70  H    0.042452
    71  H    0.023809
    72  H    0.033153
    73  H    0.028186
    74  H    0.020369
    75  H    0.028807
    76  H    0.040817
    77  H    0.048651
    78  H    0.039029
    79  H    0.032812
    80  H    0.031879
    81  H    0.030988
    82  H    0.046661
    83  H    0.042065
    84  H    0.040734
    85  H    0.023359
    86  H    0.024814
    87  H    0.025120
    88  H    0.024255
    89  H    0.019041
    90  H    0.027045
    91  H    0.018342
    92  H    0.009890
    93  H    0.024624
    94  H    0.023367
    95  H    0.018719
    96  H    0.035018
    97  H    0.037846
    98  H    0.063233
    99  H    0.035342
   100  H    0.063051
   101  H    0.024984
   102  H    0.059974
   103  H    0.047205
   104  H    0.038602
   105  H    0.031208
   106  H    0.035270
   107  H    0.010632
   108  H    0.023330
   109  H    0.030128
   110  H    0.013404
   111  H    0.023646
   112  H    0.008883
   113  H    0.013586
   114  H    0.025175
   115  H    0.013470
   116  H    0.023527
   117  H    0.012837
   118  H    0.016555
   119  H    0.025575
   120  H    0.019524
   121  H    0.019452
   122  H    0.009164
   123  H    0.022914
   124  H    0.020361
   125  H    0.021106
   126  H    0.008789
   127  H    0.022790
   128  H    0.025321
   129  H    0.010645
   130  H    0.018036
   131  H    0.016520
   132  H    0.019881
   133  H    0.013349
   134  H    0.015261
   135  H    0.021893
   136  H    0.010064
   137  H    0.017210
   138  H    0.014403
   139  H    0.019108
   140  H    0.017864
 Sum of Mulliken charges =  -0.00000

 Dipole moment (field-independent basis, Debye):
    X=              4.0163    Y=              8.1134    Z=              2.3608  Tot=              9.3558
 N-N= 4.297390028554D+03 E-N= 0.000000000000D+00  KE=-9.269228142261D+03
 Leave Link  601 at Thu Apr 28 14:15:50 2022, MaxMem=  6710886400 cpu:               1.3 elap:               0.1
 (Enter /sw/apps/gaussian-16.0/g16/l9999.exe)
 1\1\GINC-BP1-COMPUTE139\SP\RZINDO CIS\STO-3G\C55H74Mg1N4O6\OF15641\28-
 Apr-2022\0\\#p ZINDO=(nstates=5)\\step_1601_chromophore_13 ZINDO\\0,1\
 Mg,0,47.437,24.614,28.949\C,0,48.102,26.797,31.529\C,0,46.387,22.256,3
 1.145\C,0,47.903,22.193,26.591\C,0,49.182,26.877,26.852\N,0,47.116,24.
 6,31.01\C,0,47.57,25.572,31.917\C,0,47.472,25.138,33.404\C,0,47.063,23
 .646,33.255\C,0,46.737,23.474,31.678\C,0,48.176,22.504,33.759\C,0,46.4
 75,26.038,34.208\C,0,46.723,25.91,35.752\C,0,45.588,26.465,36.658\O,0,

 Normal termination of Gaussian 16 at Thu Apr 28 14:15:50 2022.
