 Gaussian 16, Revision A.03,
 Gaussian 16:  ES64L-G16RevA.03 25-Dec-2016

 ------------------------------
 #p blyp/Def2SVP td=(nstates=5)
 ------------------------------

 --------------------------------------------------
 step_301_chromophore_16 TDDFT with blyp functional
 --------------------------------------------------
 Symbolic Z-matrix:
 Charge =  0 Multiplicity = 1

                         Standard orientation:
 ---------------------------------------------------------------------
 Center     Atomic      Atomic             Coordinates (Angstroms)
 Number     Number       Type             X           Y           Z
 ---------------------------------------------------------------------
      1         12           0        5.997329    0.672355    0.152770
      2          6           0        3.670732   -2.171051    0.006831
      3          6           0        3.377798    2.539452   -1.206853
      4          6           0        8.075120    3.037410    0.064357
      5          6           0        8.463819   -1.643952    1.335849
      6          7           0        3.808868    0.227534   -0.436046
      7          6           0        3.116168   -0.943393   -0.385321
      8          6           0        1.602328   -0.771526   -0.725315
      9          6           0        1.673096    0.625329   -1.338297
     10          6           0        3.066049    1.193094   -1.016750
     11          6           0        1.278783    0.706189   -2.864982
     12          6           0        0.665599   -0.952924    0.482676
     13          6           0       -0.874979   -0.700066    0.317475
     14          6           0       -1.806368   -1.818419    0.674666
     15          8           0       -2.362405   -1.966825    1.767091
     16          8           0       -1.968476   -2.558950   -0.521486
     17          7           0        5.735597    2.578829   -0.388484
     18          6           0        4.651700    3.197720   -0.964281
     19          6           0        4.998464    4.576994   -1.265881
     20          6           0        6.367457    4.751749   -0.963396
     21          6           0        6.846737    3.454267   -0.403010
     22          6           0        3.955488    5.506612   -1.921574
     23          6           0        7.282599    6.028155   -1.156818
     24          8           0        8.469175    6.132173   -0.944935
     25          6           0        6.573065    7.201805   -1.688732
     26          7           0        8.034185    0.642182    0.490757
     27          6           0        8.727135    1.820878    0.418386
     28          6           0       10.180833    1.689518    0.931421
     29          6           0       10.249227    0.248329    1.421255
     30          6           0        8.802369   -0.317217    1.200084
     31          6           0       11.296284    1.981188   -0.164938
     32          6           0       10.547251    0.150545    2.902641
     33          6           0        9.499416    0.712089    3.893592
     34          7           0        6.082388   -1.452269    0.640660
     35          6           0        7.173390   -2.221965    0.988152
     36          6           0        6.771633   -3.616960    1.040524
     37          6           0        5.424425   -3.595784    0.689986
     38          6           0        5.048049   -2.320837    0.392212
     39          6           0        7.636421   -4.761542    1.405141
     40          6           0        4.353558   -4.517420    0.546431
     41          8           0        4.308740   -5.704736    0.679129
     42          6           0        3.113023   -3.581362    0.122310
     43          6           0        2.445952   -4.069218   -1.098873
     44          8           0        3.040704   -4.240496   -2.196206
     45          8           0        1.126836   -4.508430   -0.822062
     46          6           0        0.422116   -4.969844   -2.037468
     47          6           0       -3.047779   -3.551575   -0.416210
     48          6           0       -4.282433   -2.812822   -0.857727
     49          6           0       -5.564257   -3.035081   -0.586736
     50          6           0       -6.066529   -4.257070    0.196665
     51          6           0       -6.630129   -2.234842   -1.283636
     52          6           0       -6.772900   -0.726840   -0.812221
     53          6           0       -7.996223   -0.381914    0.012008
     54          6           0       -8.815555    0.780312   -0.603115
     55          6           0       -8.401724    2.113001    0.154806
     56          6           0      -10.375288    0.477770   -0.496779
     57          6           0      -11.011079    0.080951   -1.798199
     58          6           0      -12.429214    0.664483   -1.882699
     59          6           0      -13.499750   -0.029294   -0.941523
     60          6           0      -14.412890   -1.087850   -1.752787
     61          6           0      -14.177972    1.048418   -0.097345
     62          6           0      -13.781963    1.032273    1.439838
     63          6           0      -14.588826    2.101878    2.247699
     64          6           0      -13.706058    3.184777    2.891709
     65          6           0      -13.401517    4.239816    1.891433
     66          6           0      -14.511114    3.898571    4.118016
     67          1           0        2.517460    3.099543   -1.577260
     68          1           0        8.696979    3.934861    0.054859
     69          1           0        9.244014   -2.344960    1.641306
     70          1           0        1.254173   -1.600833   -1.341427
     71          1           0        0.931471    1.281692   -0.883732
     72          1           0        1.419528   -0.267675   -3.332575
     73          1           0        1.908592    1.320327   -3.509658
     74          1           0        0.265255    1.090841   -2.985342
     75          1           0        0.928471   -0.361027    1.359435
     76          1           0        0.780011   -1.944814    0.918022
     77          1           0       -1.083322   -0.287886   -0.670192
     78          1           0       -1.172576    0.092961    1.003061
     79          1           0        4.367341    6.084149   -2.749229
     80          1           0        3.556820    6.166170   -1.150490
     81          1           0        3.160964    4.890363   -2.341395
     82          1           0        6.363145    6.930680   -2.723918
     83          1           0        7.269376    8.037847   -1.747778
     84          1           0        5.762398    7.496958   -1.022852
     85          1           0       10.240270    2.327031    1.814352
     86          1           0       10.902046   -0.353593    0.788222
     87          1           0       12.135880    2.426964    0.368006
     88          1           0       10.889334    2.638946   -0.933976
     89          1           0       11.655946    1.089648   -0.678021
     90          1           0       11.509321    0.646258    3.032542
     91          1           0       10.735131   -0.896828    3.138241
     92          1           0        8.614270    1.113820    3.401564
     93          1           0       10.005764    1.445633    4.520950
     94          1           0        9.159170   -0.009289    4.636486
     95          1           0        8.567241   -4.414298    1.852906
     96          1           0        7.840936   -5.359523    0.516715
     97          1           0        7.028718   -5.418981    2.027877
     98          1           0        2.368351   -3.509042    0.916067
     99          1           0        1.074093   -5.311680   -2.840985
    100          1           0       -0.170108   -4.158270   -2.459017
    101          1           0       -0.202180   -5.800876   -1.708589
    102          1           0       -3.315602   -3.852305    0.597053
    103          1           0       -2.927655   -4.471414   -0.988503
    104          1           0       -3.970518   -1.969463   -1.473916
    105          1           0       -6.748617   -4.932445   -0.321386
    106          1           0       -6.805013   -3.864939    0.896525
    107          1           0       -5.294144   -4.756236    0.782001
    108          1           0       -7.635002   -2.649708   -1.207060
    109          1           0       -6.508344   -2.308697   -2.364483
    110          1           0       -6.809682   -0.243978   -1.789307
    111          1           0       -5.852861   -0.398455   -0.328663
    112          1           0       -7.695621    0.019545    0.978792
    113          1           0       -8.574662   -1.280056    0.230799
    114          1           0       -8.644120    0.955383   -1.665413
    115          1           0       -8.079369    2.005971    1.190031
    116          1           0       -9.256534    2.781051    0.262595
    117          1           0       -7.565357    2.518149   -0.414951
    118          1           0      -10.816512    1.423417   -0.181279
    119          1           0      -10.587569   -0.174481    0.350478
    120          1           0      -11.169291   -0.997435   -1.814114
    121          1           0      -10.483922    0.299567   -2.726656
    122          1           0      -12.804897    0.687639   -2.904759
    123          1           0      -12.467249    1.741817   -1.722889
    124          1           0      -12.969435   -0.674098   -0.241205
    125          1           0      -14.469046   -2.033483   -1.213552
    126          1           0      -14.065312   -1.361874   -2.748858
    127          1           0      -15.436660   -0.716663   -1.703427
    128          1           0      -15.265517    0.981578   -0.064403
    129          1           0      -14.055603    2.079121   -0.429823
    130          1           0      -12.714465    1.241338    1.377564
    131          1           0      -13.907111    0.084552    1.964315
    132          1           0      -15.135619    1.608944    3.051038
    133          1           0      -15.336522    2.695781    1.721647
    134          1           0      -12.741465    2.838722    3.264984
    135          1           0      -14.199661    4.433429    1.175334
    136          1           0      -12.493672    3.924249    1.377618
    137          1           0      -13.134191    5.157199    2.416313
    138          1           0      -14.016914    3.582441    5.036881
    139          1           0      -15.558679    3.604779    4.175932
    140          1           0      -14.732912    4.965041    4.118709
 ---------------------------------------------------------------------

 SCF Done:  E(RB-LYP) =  -3007.37723802     A.U. after   20 cycles

 Excitation energies and oscillator strengths:

 Excited State   1:      Singlet-A      1.8143 eV  683.39 nm  f=0.3077  <S**2>=0.000
     245 -> 248        0.19003
     246 -> 247        0.68911
     246 <- 247       -0.15114
 This state for optimization and/or second-order correction.
 Total Energy, E(TD-HF/TD-DFT) =  -3007.31056503
 Copying the excited state density for this state as the 1-particle RhoCI density.

 Excited State   2:      Singlet-A      1.9923 eV  622.32 nm  f=0.0511  <S**2>=0.000
     243 -> 247       -0.10912
     244 -> 247        0.39659
     245 -> 247        0.53536
     246 -> 248       -0.18986

 Excited State   3:      Singlet-A      2.0370 eV  608.67 nm  f=0.0264  <S**2>=0.000
     243 -> 247        0.12389
     244 -> 247        0.57921
     245 -> 247       -0.34250
     246 -> 248        0.14295

 Excited State   4:      Singlet-A      2.1228 eV  584.05 nm  f=0.0057  <S**2>=0.000
     243 -> 247        0.68623
     245 -> 247        0.13491

 Excited State   5:      Singlet-A      2.1599 eV  574.02 nm  f=0.0000  <S**2>=0.000
     242 -> 247        0.70710

 The electronic state is 1-A.
 Alpha  occ. eigenvalues --  -46.27019 -18.82780 -18.82055 -18.78162 -18.76774
 Alpha  occ. eigenvalues --  -18.76498 -18.76099 -14.03463 -14.03419 -14.01398
 Alpha  occ. eigenvalues --  -14.00565 -10.04786 -10.03722 -10.00667  -9.99428
 Alpha  occ. eigenvalues --   -9.97571  -9.97402  -9.96876  -9.96810  -9.96688
 Alpha  occ. eigenvalues --   -9.96563  -9.96544  -9.96356  -9.95375  -9.94674
 Alpha  occ. eigenvalues --   -9.94368  -9.94253  -9.94208  -9.94004  -9.93920
 Alpha  occ. eigenvalues --   -9.93892  -9.93729  -9.93642  -9.93616  -9.93576
 Alpha  occ. eigenvalues --   -9.93554  -9.93497  -9.93217  -9.92936  -9.92734
 Alpha  occ. eigenvalues --   -9.92678  -9.92568  -9.92498  -9.92456  -9.92252
 Alpha  occ. eigenvalues --   -9.92201  -9.92194  -9.92090  -9.92072  -9.92016
 Alpha  occ. eigenvalues --   -9.92013  -9.91738  -9.91552  -9.91259  -9.91250
 Alpha  occ. eigenvalues --   -9.91206  -9.91120  -9.91083  -9.91013  -9.90899
 Alpha  occ. eigenvalues --   -9.90872  -9.90836  -9.90759  -9.90627  -9.90148
 Alpha  occ. eigenvalues --   -9.89873  -2.91665  -1.72099  -1.71565  -1.71361
 Alpha  occ. eigenvalues --   -0.96956  -0.95481  -0.93151  -0.92817  -0.90442
 Alpha  occ. eigenvalues --   -0.87970  -0.86518  -0.85429  -0.84979  -0.84252
 Alpha  occ. eigenvalues --   -0.75349  -0.73383  -0.72974  -0.72941  -0.72555
 Alpha  occ. eigenvalues --   -0.71844  -0.71526  -0.70734  -0.70531  -0.70337
 Alpha  occ. eigenvalues --   -0.69783  -0.69214  -0.67908  -0.67390  -0.67104
 Alpha  occ. eigenvalues --   -0.66296  -0.66033  -0.65408  -0.64680  -0.64322
 Alpha  occ. eigenvalues --   -0.63743  -0.62617  -0.62489  -0.61616  -0.60478
 Alpha  occ. eigenvalues --   -0.60289  -0.59882  -0.59808  -0.59405  -0.58800
 Alpha  occ. eigenvalues --   -0.58242  -0.57657  -0.56844  -0.56083  -0.55431
 Alpha  occ. eigenvalues --   -0.54033  -0.53903  -0.52705  -0.52317  -0.51549
 Alpha  occ. eigenvalues --   -0.51284  -0.51010  -0.50433  -0.50203  -0.50158
 Alpha  occ. eigenvalues --   -0.49830  -0.49452  -0.48803  -0.47835  -0.46632
 Alpha  occ. eigenvalues --   -0.46458  -0.46426  -0.45822  -0.45073  -0.44342
 Alpha  occ. eigenvalues --   -0.43995  -0.43799  -0.43070  -0.42847  -0.42409
 Alpha  occ. eigenvalues --   -0.41917  -0.41599  -0.41300  -0.41227  -0.41135
 Alpha  occ. eigenvalues --   -0.40888  -0.40748  -0.40600  -0.39994  -0.39847
 Alpha  occ. eigenvalues --   -0.39539  -0.39485  -0.39348  -0.39014  -0.38983
 Alpha  occ. eigenvalues --   -0.38514  -0.38411  -0.38330  -0.38128  -0.37979
 Alpha  occ. eigenvalues --   -0.37921  -0.37426  -0.37293  -0.37107  -0.36925
 Alpha  occ. eigenvalues --   -0.36893  -0.36762  -0.36538  -0.36476  -0.36442
 Alpha  occ. eigenvalues --   -0.36234  -0.36042  -0.35992  -0.35753  -0.35577
 Alpha  occ. eigenvalues --   -0.35359  -0.35216  -0.35140  -0.34909  -0.34819
 Alpha  occ. eigenvalues --   -0.34654  -0.34391  -0.34307  -0.34117  -0.33932
 Alpha  occ. eigenvalues --   -0.33763  -0.33707  -0.33595  -0.33364  -0.33319
 Alpha  occ. eigenvalues --   -0.33220  -0.33113  -0.32972  -0.32618  -0.32471
 Alpha  occ. eigenvalues --   -0.32309  -0.32147  -0.31803  -0.31766  -0.31689
 Alpha  occ. eigenvalues --   -0.31510  -0.31232  -0.31059  -0.30950  -0.30796
 Alpha  occ. eigenvalues --   -0.30728  -0.30446  -0.30255  -0.29902  -0.29872
 Alpha  occ. eigenvalues --   -0.29715  -0.29644  -0.29397  -0.29043  -0.28783
 Alpha  occ. eigenvalues --   -0.28485  -0.28449  -0.28387  -0.28201  -0.27903
 Alpha  occ. eigenvalues --   -0.27766  -0.27087  -0.26653  -0.26637  -0.26465
 Alpha  occ. eigenvalues --   -0.26445  -0.26117  -0.25682  -0.25646  -0.25449
 Alpha  occ. eigenvalues --   -0.25066  -0.24398  -0.24067  -0.23923  -0.23876
 Alpha  occ. eigenvalues --   -0.23419  -0.22857  -0.22545  -0.21540  -0.21192
 Alpha  occ. eigenvalues --   -0.20185  -0.19767  -0.19531  -0.19173  -0.17436
 Alpha  occ. eigenvalues --   -0.16099
 Alpha virt. eigenvalues --   -0.11830  -0.07163  -0.05921  -0.04586  -0.04029
 Alpha virt. eigenvalues --   -0.03620  -0.01961  -0.01592  -0.01322  -0.00096
 Alpha virt. eigenvalues --    0.00964   0.01236   0.02007   0.02520   0.02840

 Mulliken charges:
               1
     1  Mg   0.691105
     2  C   -0.018659
     3  C   -0.073183
     4  C   -0.015044
     5  C   -0.065561
     6  N   -0.161219
     7  C   -0.090436
     8  C    0.048804
     9  C    0.015312
    10  C    0.044144
    11  C    0.103624
    12  C    0.091264
    13  C    0.143385
    14  C    0.096526
    15  O   -0.180107
    16  O   -0.299410
    17  N   -0.359465
    18  C    0.149157
    19  C   -0.150524
    20  C    0.012493
    21  C    0.078705
    22  C    0.172663
    23  C   -0.073792
    24  O   -0.131680
    25  C    0.147296
    26  N   -0.276441
    27  C    0.014684
    28  C    0.063202
    29  C    0.029528
    30  C    0.036254
    31  C    0.128684
    32  C    0.078017
    33  C    0.068090
    34  N   -0.238842
    35  C    0.081225
    36  C   -0.181150
    37  C    0.092406
    38  C    0.068421
    39  C    0.190833
    40  C   -0.043765
    41  O   -0.088126
    42  C    0.089099
    43  C    0.120165
    44  O   -0.213429
    45  O   -0.294193
    46  C    0.204835
    47  C    0.334454
    48  C   -0.176718
    49  C   -0.069017
    50  C    0.139133
    51  C    0.103781
    52  C    0.078447
    53  C    0.144321
    54  C   -0.091995
    55  C    0.083406
    56  C    0.087341
    57  C    0.111599
    58  C    0.071302
    59  C   -0.036224
    60  C    0.102100
    61  C    0.067935
    62  C    0.059525
    63  C    0.119234
    64  C   -0.100641
    65  C    0.110478
    66  C    0.070882
    67  H   -0.059595
    68  H   -0.047754
    69  H   -0.055321
    70  H   -0.013141
    71  H   -0.026855
    72  H   -0.004688
    73  H   -0.016282
    74  H   -0.004293
    75  H   -0.030403
    76  H   -0.016065
    77  H   -0.009672
    78  H   -0.013704
    79  H   -0.002859
    80  H    0.009503
    81  H   -0.008917
    82  H    0.017454
    83  H   -0.017579
    84  H    0.015729
    85  H   -0.019004
    86  H   -0.024997
    87  H   -0.000313
    88  H    0.006695
    89  H   -0.008733
    90  H   -0.026607
    91  H   -0.026661
    92  H    0.015527
    93  H   -0.012351
    94  H   -0.009653
    95  H   -0.013742
    96  H    0.006628
    97  H    0.007025
    98  H   -0.000631
    99  H    0.022539
   100  H    0.013430
   101  H    0.015893
   102  H    0.006285
   103  H    0.009243
   104  H   -0.036519
   105  H   -0.003849
   106  H   -0.021892
   107  H   -0.012549
   108  H   -0.055573
   109  H   -0.023001
   110  H   -0.034480
   111  H   -0.024213
   112  H   -0.037848
   113  H   -0.029847
   114  H   -0.031940
   115  H   -0.015773
   116  H   -0.015538
   117  H   -0.009243
   118  H   -0.030292
   119  H   -0.022418
   120  H   -0.037382
   121  H   -0.032375
   122  H   -0.053083
   123  H   -0.042562
   124  H   -0.028947
   125  H   -0.024993
   126  H   -0.006526
   127  H   -0.017436
   128  H   -0.043655
   129  H   -0.027521
   130  H   -0.026069
   131  H   -0.022799
   132  H   -0.036384
   133  H   -0.033769
   134  H   -0.032659
   135  H   -0.013101
   136  H   -0.024735
   137  H   -0.021162
   138  H   -0.007542
   139  H   -0.032255
   140  H   -0.020441
 Sum of Mulliken charges =  -0.00000

 Dipole moment (field-independent basis, Debye):
    X=             -1.4607    Y=              3.5659    Z=             -0.7011  Tot=              3.9167
 Quadrupole moment (field-independent basis, Debye-Ang):
   XX=           -381.2647   YY=           -425.5074   ZZ=           -405.5718
   XY=              9.5451   XZ=             21.1403   YZ=             -2.4968

 Normal termination of Gaussian 16 at Fri Apr 29 13:12:07 2022.
