 Gaussian 16, Revision A.03,
 Gaussian 16:  ES64L-G16RevA.03 25-Dec-2016

 -----------------------------------
 #p cam-b3lyp/Def2SVP td=(nstates=5)
 -----------------------------------

 -------------------------------------------------------
 step_301_chromophore_16 TDDFT with cam-b3lyp functional
 -------------------------------------------------------
 Symbolic Z-matrix:
 Charge =  0 Multiplicity = 1

                         Standard orientation:
 ---------------------------------------------------------------------
 Center     Atomic      Atomic             Coordinates (Angstroms)
 Number     Number       Type             X           Y           Z
 ---------------------------------------------------------------------
      1         12           0        5.997329    0.672355    0.152770
      2          6           0        3.670732   -2.171051    0.006831
      3          6           0        3.377798    2.539452   -1.206853
      4          6           0        8.075120    3.037410    0.064357
      5          6           0        8.463819   -1.643952    1.335849
      6          7           0        3.808868    0.227534   -0.436046
      7          6           0        3.116168   -0.943393   -0.385321
      8          6           0        1.602328   -0.771526   -0.725315
      9          6           0        1.673096    0.625329   -1.338297
     10          6           0        3.066049    1.193094   -1.016750
     11          6           0        1.278783    0.706189   -2.864982
     12          6           0        0.665599   -0.952924    0.482676
     13          6           0       -0.874979   -0.700066    0.317475
     14          6           0       -1.806368   -1.818419    0.674666
     15          8           0       -2.362405   -1.966825    1.767091
     16          8           0       -1.968476   -2.558950   -0.521486
     17          7           0        5.735597    2.578829   -0.388484
     18          6           0        4.651700    3.197720   -0.964281
     19          6           0        4.998464    4.576994   -1.265881
     20          6           0        6.367457    4.751749   -0.963396
     21          6           0        6.846737    3.454267   -0.403010
     22          6           0        3.955488    5.506612   -1.921574
     23          6           0        7.282599    6.028155   -1.156818
     24          8           0        8.469175    6.132173   -0.944935
     25          6           0        6.573065    7.201805   -1.688732
     26          7           0        8.034185    0.642182    0.490757
     27          6           0        8.727135    1.820878    0.418386
     28          6           0       10.180833    1.689518    0.931421
     29          6           0       10.249227    0.248329    1.421255
     30          6           0        8.802369   -0.317217    1.200084
     31          6           0       11.296284    1.981188   -0.164938
     32          6           0       10.547251    0.150545    2.902641
     33          6           0        9.499416    0.712089    3.893592
     34          7           0        6.082388   -1.452269    0.640660
     35          6           0        7.173390   -2.221965    0.988152
     36          6           0        6.771633   -3.616960    1.040524
     37          6           0        5.424425   -3.595784    0.689986
     38          6           0        5.048049   -2.320837    0.392212
     39          6           0        7.636421   -4.761542    1.405141
     40          6           0        4.353558   -4.517420    0.546431
     41          8           0        4.308740   -5.704736    0.679129
     42          6           0        3.113023   -3.581362    0.122310
     43          6           0        2.445952   -4.069218   -1.098873
     44          8           0        3.040704   -4.240496   -2.196206
     45          8           0        1.126836   -4.508430   -0.822062
     46          6           0        0.422116   -4.969844   -2.037468
     47          6           0       -3.047779   -3.551575   -0.416210
     48          6           0       -4.282433   -2.812822   -0.857727
     49          6           0       -5.564257   -3.035081   -0.586736
     50          6           0       -6.066529   -4.257070    0.196665
     51          6           0       -6.630129   -2.234842   -1.283636
     52          6           0       -6.772900   -0.726840   -0.812221
     53          6           0       -7.996223   -0.381914    0.012008
     54          6           0       -8.815555    0.780312   -0.603115
     55          6           0       -8.401724    2.113001    0.154806
     56          6           0      -10.375288    0.477770   -0.496779
     57          6           0      -11.011079    0.080951   -1.798199
     58          6           0      -12.429214    0.664483   -1.882699
     59          6           0      -13.499750   -0.029294   -0.941523
     60          6           0      -14.412890   -1.087850   -1.752787
     61          6           0      -14.177972    1.048418   -0.097345
     62          6           0      -13.781963    1.032273    1.439838
     63          6           0      -14.588826    2.101878    2.247699
     64          6           0      -13.706058    3.184777    2.891709
     65          6           0      -13.401517    4.239816    1.891433
     66          6           0      -14.511114    3.898571    4.118016
     67          1           0        2.517460    3.099543   -1.577260
     68          1           0        8.696979    3.934861    0.054859
     69          1           0        9.244014   -2.344960    1.641306
     70          1           0        1.254173   -1.600833   -1.341427
     71          1           0        0.931471    1.281692   -0.883732
     72          1           0        1.419528   -0.267675   -3.332575
     73          1           0        1.908592    1.320327   -3.509658
     74          1           0        0.265255    1.090841   -2.985342
     75          1           0        0.928471   -0.361027    1.359435
     76          1           0        0.780011   -1.944814    0.918022
     77          1           0       -1.083322   -0.287886   -0.670192
     78          1           0       -1.172576    0.092961    1.003061
     79          1           0        4.367341    6.084149   -2.749229
     80          1           0        3.556820    6.166170   -1.150490
     81          1           0        3.160964    4.890363   -2.341395
     82          1           0        6.363145    6.930680   -2.723918
     83          1           0        7.269376    8.037847   -1.747778
     84          1           0        5.762398    7.496958   -1.022852
     85          1           0       10.240270    2.327031    1.814352
     86          1           0       10.902046   -0.353593    0.788222
     87          1           0       12.135880    2.426964    0.368006
     88          1           0       10.889334    2.638946   -0.933976
     89          1           0       11.655946    1.089648   -0.678021
     90          1           0       11.509321    0.646258    3.032542
     91          1           0       10.735131   -0.896828    3.138241
     92          1           0        8.614270    1.113820    3.401564
     93          1           0       10.005764    1.445633    4.520950
     94          1           0        9.159170   -0.009289    4.636486
     95          1           0        8.567241   -4.414298    1.852906
     96          1           0        7.840936   -5.359523    0.516715
     97          1           0        7.028718   -5.418981    2.027877
     98          1           0        2.368351   -3.509042    0.916067
     99          1           0        1.074093   -5.311680   -2.840985
    100          1           0       -0.170108   -4.158270   -2.459017
    101          1           0       -0.202180   -5.800876   -1.708589
    102          1           0       -3.315602   -3.852305    0.597053
    103          1           0       -2.927655   -4.471414   -0.988503
    104          1           0       -3.970518   -1.969463   -1.473916
    105          1           0       -6.748617   -4.932445   -0.321386
    106          1           0       -6.805013   -3.864939    0.896525
    107          1           0       -5.294144   -4.756236    0.782001
    108          1           0       -7.635002   -2.649708   -1.207060
    109          1           0       -6.508344   -2.308697   -2.364483
    110          1           0       -6.809682   -0.243978   -1.789307
    111          1           0       -5.852861   -0.398455   -0.328663
    112          1           0       -7.695621    0.019545    0.978792
    113          1           0       -8.574662   -1.280056    0.230799
    114          1           0       -8.644120    0.955383   -1.665413
    115          1           0       -8.079369    2.005971    1.190031
    116          1           0       -9.256534    2.781051    0.262595
    117          1           0       -7.565357    2.518149   -0.414951
    118          1           0      -10.816512    1.423417   -0.181279
    119          1           0      -10.587569   -0.174481    0.350478
    120          1           0      -11.169291   -0.997435   -1.814114
    121          1           0      -10.483922    0.299567   -2.726656
    122          1           0      -12.804897    0.687639   -2.904759
    123          1           0      -12.467249    1.741817   -1.722889
    124          1           0      -12.969435   -0.674098   -0.241205
    125          1           0      -14.469046   -2.033483   -1.213552
    126          1           0      -14.065312   -1.361874   -2.748858
    127          1           0      -15.436660   -0.716663   -1.703427
    128          1           0      -15.265517    0.981578   -0.064403
    129          1           0      -14.055603    2.079121   -0.429823
    130          1           0      -12.714465    1.241338    1.377564
    131          1           0      -13.907111    0.084552    1.964315
    132          1           0      -15.135619    1.608944    3.051038
    133          1           0      -15.336522    2.695781    1.721647
    134          1           0      -12.741465    2.838722    3.264984
    135          1           0      -14.199661    4.433429    1.175334
    136          1           0      -12.493672    3.924249    1.377618
    137          1           0      -13.134191    5.157199    2.416313
    138          1           0      -14.016914    3.582441    5.036881
    139          1           0      -15.558679    3.604779    4.175932
    140          1           0      -14.732912    4.965041    4.118709
 ---------------------------------------------------------------------

 SCF Done:  E(RCAM-B3LYP) =  -3007.15974914     A.U. after   18 cycles

 Excitation energies and oscillator strengths:

 Excited State   1:      Singlet-A      1.7178 eV  721.76 nm  f=0.3838  <S**2>=0.000
     245 -> 248        0.17149
     246 -> 247        0.68724
     245 <- 248        0.10420
 This state for optimization and/or second-order correction.
 Total Energy, E(TD-HF/TD-DFT) =  -3007.09662102
 Copying the excited state density for this state as the 1-particle RhoCI density.

 Excited State   2:      Singlet-A      2.2127 eV  560.32 nm  f=0.1231  <S**2>=0.000
     245 -> 247        0.64366
     246 -> 248       -0.27668

 Excited State   3:      Singlet-A      3.2553 eV  380.87 nm  f=0.0079  <S**2>=0.000
     241 -> 247       -0.12455
     244 -> 247        0.68236

 Excited State   4:      Singlet-A      3.5246 eV  351.77 nm  f=0.3912  <S**2>=0.000
     239 -> 247       -0.16307
     240 -> 247        0.12996
     241 -> 247        0.34736
     245 -> 247        0.19552
     246 -> 248        0.53361

 Excited State   5:      Singlet-A      3.6838 eV  336.56 nm  f=0.4204  <S**2>=0.000
     239 -> 247       -0.10145
     240 -> 247        0.19257
     241 -> 247        0.43787
     242 -> 247       -0.26049
     244 -> 247        0.10386
     245 -> 247       -0.21430
     246 -> 248       -0.34646

 The electronic state is 1-A.
 Alpha  occ. eigenvalues --  -46.88540 -19.25620 -19.24952 -19.21172 -19.20351
 Alpha  occ. eigenvalues --  -19.19557 -19.18825 -14.42511 -14.42201 -14.40118
 Alpha  occ. eigenvalues --  -14.38677 -10.40186 -10.39279 -10.36224 -10.34388
 Alpha  occ. eigenvalues --  -10.32361 -10.31573 -10.31495 -10.31486 -10.31396
 Alpha  occ. eigenvalues --  -10.31013 -10.30798 -10.30492 -10.29855 -10.29028
 Alpha  occ. eigenvalues --  -10.28941 -10.28339 -10.28333 -10.28251 -10.28024
 Alpha  occ. eigenvalues --  -10.27921 -10.27877 -10.27831 -10.27721 -10.27522
 Alpha  occ. eigenvalues --  -10.27483 -10.27422 -10.27214 -10.26820 -10.26712
 Alpha  occ. eigenvalues --  -10.26550 -10.26535 -10.26362 -10.26317 -10.26294
 Alpha  occ. eigenvalues --  -10.26047 -10.25966 -10.25826 -10.25750 -10.25638
 Alpha  occ. eigenvalues --  -10.25439 -10.25351 -10.25268 -10.24894 -10.24851
 Alpha  occ. eigenvalues --  -10.24851 -10.24821 -10.24782 -10.24773 -10.24630
 Alpha  occ. eigenvalues --  -10.24512 -10.24505 -10.24434 -10.24285 -10.23730
 Alpha  occ. eigenvalues --  -10.23315  -3.17094  -1.92005  -1.91565  -1.91388
 Alpha  occ. eigenvalues --   -1.15341  -1.13861  -1.11954  -1.10869  -1.08280
 Alpha  occ. eigenvalues --   -1.05797  -1.04199  -1.03007  -1.02575  -1.01846
 Alpha  occ. eigenvalues --   -0.92216  -0.90218  -0.89735  -0.89680  -0.89330
 Alpha  occ. eigenvalues --   -0.88541  -0.88378  -0.87494  -0.87133  -0.87061
 Alpha  occ. eigenvalues --   -0.85955  -0.85571  -0.84167  -0.83629  -0.83169
 Alpha  occ. eigenvalues --   -0.82770  -0.82046  -0.81290  -0.80490  -0.80115
 Alpha  occ. eigenvalues --   -0.79481  -0.78505  -0.78108  -0.77029  -0.75763
 Alpha  occ. eigenvalues --   -0.75603  -0.75189  -0.75173  -0.74686  -0.74028
 Alpha  occ. eigenvalues --   -0.73240  -0.72518  -0.71776  -0.70952  -0.70062
 Alpha  occ. eigenvalues --   -0.68611  -0.68362  -0.67300  -0.66735  -0.65662
 Alpha  occ. eigenvalues --   -0.65489  -0.65240  -0.64402  -0.64262  -0.64019
 Alpha  occ. eigenvalues --   -0.63602  -0.63417  -0.62703  -0.61464  -0.60356
 Alpha  occ. eigenvalues --   -0.60181  -0.59944  -0.59192  -0.58481  -0.57664
 Alpha  occ. eigenvalues --   -0.57474  -0.57141  -0.56185  -0.55865  -0.55725
 Alpha  occ. eigenvalues --   -0.55267  -0.54699  -0.54375  -0.54049  -0.53839
 Alpha  occ. eigenvalues --   -0.53597  -0.53552  -0.53452  -0.52918  -0.52699
 Alpha  occ. eigenvalues --   -0.52361  -0.51924  -0.51805  -0.51784  -0.51571
 Alpha  occ. eigenvalues --   -0.51000  -0.50976  -0.50876  -0.50541  -0.50407
 Alpha  occ. eigenvalues --   -0.50325  -0.50240  -0.49776  -0.49582  -0.49373
 Alpha  occ. eigenvalues --   -0.49326  -0.48982  -0.48941  -0.48721  -0.48588
 Alpha  occ. eigenvalues --   -0.48455  -0.48386  -0.48126  -0.47923  -0.47696
 Alpha  occ. eigenvalues --   -0.47550  -0.47090  -0.47057  -0.46815  -0.46637
 Alpha  occ. eigenvalues --   -0.46467  -0.46309  -0.46087  -0.45879  -0.45594
 Alpha  occ. eigenvalues --   -0.45493  -0.45324  -0.45228  -0.45215  -0.45051
 Alpha  occ. eigenvalues --   -0.44921  -0.44757  -0.44699  -0.44210  -0.44024
 Alpha  occ. eigenvalues --   -0.43846  -0.43774  -0.43563  -0.43356  -0.43223
 Alpha  occ. eigenvalues --   -0.43060  -0.42988  -0.42849  -0.42512  -0.42116
 Alpha  occ. eigenvalues --   -0.42057  -0.41991  -0.41571  -0.41415  -0.41178
 Alpha  occ. eigenvalues --   -0.40988  -0.40946  -0.40568  -0.40130  -0.39795
 Alpha  occ. eigenvalues --   -0.39632  -0.39557  -0.39368  -0.39113  -0.38853
 Alpha  occ. eigenvalues --   -0.38733  -0.37937  -0.37924  -0.37440  -0.37306
 Alpha  occ. eigenvalues --   -0.37068  -0.36928  -0.36677  -0.36610  -0.36268
 Alpha  occ. eigenvalues --   -0.35842  -0.35687  -0.35011  -0.34439  -0.34297
 Alpha  occ. eigenvalues --   -0.34255  -0.33974  -0.33019  -0.32020  -0.31835
 Alpha  occ. eigenvalues --   -0.30910  -0.30619  -0.29377  -0.28966  -0.24229
 Alpha  occ. eigenvalues --   -0.21455
 Alpha virt. eigenvalues --   -0.08972  -0.01936   0.00674   0.02554   0.03519
 Alpha virt. eigenvalues --    0.03817   0.04044   0.05194   0.05715   0.06250
 Alpha virt. eigenvalues --    0.07573   0.07921   0.08568   0.08946   0.09227

 Mulliken charges:
               1
     1  Mg   0.823148
     2  C   -0.039027
     3  C   -0.091433
     4  C   -0.045433
     5  C   -0.061929
     6  N   -0.232294
     7  C   -0.050944
     8  C    0.004481
     9  C   -0.050686
    10  C    0.068199
    11  C    0.048176
    12  C    0.046027
    13  C    0.072576
    14  C    0.178778
    15  O   -0.220836
    16  O   -0.363913
    17  N   -0.450091
    18  C    0.164251
    19  C   -0.157308
    20  C   -0.052848
    21  C    0.109035
    22  C    0.119054
    23  C    0.016093
    24  O   -0.170207
    25  C    0.054769
    26  N   -0.344063
    27  C    0.045912
    28  C   -0.001952
    29  C   -0.021999
    30  C    0.042232
    31  C    0.074576
    32  C    0.025135
    33  C    0.002783
    34  N   -0.323204
    35  C    0.079283
    36  C   -0.179305
    37  C    0.006142
    38  C    0.101791
    39  C    0.140245
    40  C    0.057487
    41  O   -0.130725
    42  C    0.007867
    43  C    0.208050
    44  O   -0.250617
    45  O   -0.356951
    46  C    0.166765
    47  C    0.294662
    48  C   -0.188165
    49  C   -0.099577
    50  C    0.077708
    51  C    0.046872
    52  C    0.024288
    53  C    0.088009
    54  C   -0.147253
    55  C    0.031753
    56  C    0.037386
    57  C    0.054892
    58  C    0.018556
    59  C   -0.099682
    60  C    0.049434
    61  C    0.019766
    62  C    0.013093
    63  C    0.058550
    64  C   -0.157425
    65  C    0.052330
    66  C    0.010036
    67  H   -0.024746
    68  H   -0.009383
    69  H   -0.020888
    70  H    0.017873
    71  H    0.007929
    72  H    0.021398
    73  H    0.010383
    74  H    0.018871
    75  H    0.002397
    76  H    0.011731
    77  H    0.021545
    78  H    0.020361
    79  H    0.024803
    80  H    0.037981
    81  H    0.019613
    82  H    0.044331
    83  H    0.020573
    84  H    0.043608
    85  H    0.017443
    86  H    0.011383
    87  H    0.024155
    88  H    0.030572
    89  H    0.016804
    90  H    0.001671
    91  H    0.002970
    92  H    0.034628
    93  H    0.012059
    94  H    0.017094
    95  H    0.007074
    96  H    0.031703
    97  H    0.031775
    98  H    0.043442
    99  H    0.050299
   100  H    0.032866
   101  H    0.037440
   102  H    0.037543
   103  H    0.035948
   104  H   -0.003782
   105  H    0.021534
   106  H    0.002043
   107  H    0.011698
   108  H   -0.023684
   109  H    0.008137
   110  H   -0.005725
   111  H    0.004167
   112  H   -0.007580
   113  H   -0.002758
   114  H   -0.001291
   115  H    0.007120
   116  H    0.006847
   117  H    0.014096
   118  H   -0.007225
   119  H    0.003754
   120  H   -0.010266
   121  H   -0.002206
   122  H   -0.021759
   123  H   -0.013445
   124  H    0.002162
   125  H   -0.000981
   126  H    0.016722
   127  H    0.006120
   128  H   -0.014719
   129  H   -0.001306
   130  H   -0.003463
   131  H    0.005382
   132  H   -0.004949
   133  H   -0.006091
   134  H   -0.000411
   135  H    0.009294
   136  H   -0.002980
   137  H    0.004951
   138  H    0.016288
   139  H   -0.007770
   140  H    0.004508
 Sum of Mulliken charges =  -0.00000

 Dipole moment (field-independent basis, Debye):
    X=             -1.6029    Y=              5.0420    Z=             -1.1295  Tot=              5.4099
 Quadrupole moment (field-independent basis, Debye-Ang):
   XX=           -377.9276   YY=           -420.9714   ZZ=           -405.2225
   XY=             17.3491   XZ=             20.0891   YZ=             -3.7116

 Normal termination of Gaussian 16 at Fri Apr 29 12:04:26 2022.
