 Gaussian 16, Revision A.03,
 Gaussian 16:  ES64L-G16RevA.03 25-Dec-2016

 ---------------------------------
 #p PBE1PBE/Def2SVP td=(nstates=5)
 ---------------------------------

 -----------------------------------------------------
 step_301_chromophore_16 TDDFT with PBE1PBE functional
 -----------------------------------------------------
 Symbolic Z-matrix:
 Charge =  0 Multiplicity = 1

                         Standard orientation:
 ---------------------------------------------------------------------
 Center     Atomic      Atomic             Coordinates (Angstroms)
 Number     Number       Type             X           Y           Z
 ---------------------------------------------------------------------
      1         12           0        5.997329    0.672355    0.152770
      2          6           0        3.670732   -2.171051    0.006831
      3          6           0        3.377798    2.539452   -1.206853
      4          6           0        8.075120    3.037410    0.064357
      5          6           0        8.463819   -1.643952    1.335849
      6          7           0        3.808868    0.227534   -0.436046
      7          6           0        3.116168   -0.943393   -0.385321
      8          6           0        1.602328   -0.771526   -0.725315
      9          6           0        1.673096    0.625329   -1.338297
     10          6           0        3.066049    1.193094   -1.016750
     11          6           0        1.278783    0.706189   -2.864982
     12          6           0        0.665599   -0.952924    0.482676
     13          6           0       -0.874979   -0.700066    0.317475
     14          6           0       -1.806368   -1.818419    0.674666
     15          8           0       -2.362405   -1.966825    1.767091
     16          8           0       -1.968476   -2.558950   -0.521486
     17          7           0        5.735597    2.578829   -0.388484
     18          6           0        4.651700    3.197720   -0.964281
     19          6           0        4.998464    4.576994   -1.265881
     20          6           0        6.367457    4.751749   -0.963396
     21          6           0        6.846737    3.454267   -0.403010
     22          6           0        3.955488    5.506612   -1.921574
     23          6           0        7.282599    6.028155   -1.156818
     24          8           0        8.469175    6.132173   -0.944935
     25          6           0        6.573065    7.201805   -1.688732
     26          7           0        8.034185    0.642182    0.490757
     27          6           0        8.727135    1.820878    0.418386
     28          6           0       10.180833    1.689518    0.931421
     29          6           0       10.249227    0.248329    1.421255
     30          6           0        8.802369   -0.317217    1.200084
     31          6           0       11.296284    1.981188   -0.164938
     32          6           0       10.547251    0.150545    2.902641
     33          6           0        9.499416    0.712089    3.893592
     34          7           0        6.082388   -1.452269    0.640660
     35          6           0        7.173390   -2.221965    0.988152
     36          6           0        6.771633   -3.616960    1.040524
     37          6           0        5.424425   -3.595784    0.689986
     38          6           0        5.048049   -2.320837    0.392212
     39          6           0        7.636421   -4.761542    1.405141
     40          6           0        4.353558   -4.517420    0.546431
     41          8           0        4.308740   -5.704736    0.679129
     42          6           0        3.113023   -3.581362    0.122310
     43          6           0        2.445952   -4.069218   -1.098873
     44          8           0        3.040704   -4.240496   -2.196206
     45          8           0        1.126836   -4.508430   -0.822062
     46          6           0        0.422116   -4.969844   -2.037468
     47          6           0       -3.047779   -3.551575   -0.416210
     48          6           0       -4.282433   -2.812822   -0.857727
     49          6           0       -5.564257   -3.035081   -0.586736
     50          6           0       -6.066529   -4.257070    0.196665
     51          6           0       -6.630129   -2.234842   -1.283636
     52          6           0       -6.772900   -0.726840   -0.812221
     53          6           0       -7.996223   -0.381914    0.012008
     54          6           0       -8.815555    0.780312   -0.603115
     55          6           0       -8.401724    2.113001    0.154806
     56          6           0      -10.375288    0.477770   -0.496779
     57          6           0      -11.011079    0.080951   -1.798199
     58          6           0      -12.429214    0.664483   -1.882699
     59          6           0      -13.499750   -0.029294   -0.941523
     60          6           0      -14.412890   -1.087850   -1.752787
     61          6           0      -14.177972    1.048418   -0.097345
     62          6           0      -13.781963    1.032273    1.439838
     63          6           0      -14.588826    2.101878    2.247699
     64          6           0      -13.706058    3.184777    2.891709
     65          6           0      -13.401517    4.239816    1.891433
     66          6           0      -14.511114    3.898571    4.118016
     67          1           0        2.517460    3.099543   -1.577260
     68          1           0        8.696979    3.934861    0.054859
     69          1           0        9.244014   -2.344960    1.641306
     70          1           0        1.254173   -1.600833   -1.341427
     71          1           0        0.931471    1.281692   -0.883732
     72          1           0        1.419528   -0.267675   -3.332575
     73          1           0        1.908592    1.320327   -3.509658
     74          1           0        0.265255    1.090841   -2.985342
     75          1           0        0.928471   -0.361027    1.359435
     76          1           0        0.780011   -1.944814    0.918022
     77          1           0       -1.083322   -0.287886   -0.670192
     78          1           0       -1.172576    0.092961    1.003061
     79          1           0        4.367341    6.084149   -2.749229
     80          1           0        3.556820    6.166170   -1.150490
     81          1           0        3.160964    4.890363   -2.341395
     82          1           0        6.363145    6.930680   -2.723918
     83          1           0        7.269376    8.037847   -1.747778
     84          1           0        5.762398    7.496958   -1.022852
     85          1           0       10.240270    2.327031    1.814352
     86          1           0       10.902046   -0.353593    0.788222
     87          1           0       12.135880    2.426964    0.368006
     88          1           0       10.889334    2.638946   -0.933976
     89          1           0       11.655946    1.089648   -0.678021
     90          1           0       11.509321    0.646258    3.032542
     91          1           0       10.735131   -0.896828    3.138241
     92          1           0        8.614270    1.113820    3.401564
     93          1           0       10.005764    1.445633    4.520950
     94          1           0        9.159170   -0.009289    4.636486
     95          1           0        8.567241   -4.414298    1.852906
     96          1           0        7.840936   -5.359523    0.516715
     97          1           0        7.028718   -5.418981    2.027877
     98          1           0        2.368351   -3.509042    0.916067
     99          1           0        1.074093   -5.311680   -2.840985
    100          1           0       -0.170108   -4.158270   -2.459017
    101          1           0       -0.202180   -5.800876   -1.708589
    102          1           0       -3.315602   -3.852305    0.597053
    103          1           0       -2.927655   -4.471414   -0.988503
    104          1           0       -3.970518   -1.969463   -1.473916
    105          1           0       -6.748617   -4.932445   -0.321386
    106          1           0       -6.805013   -3.864939    0.896525
    107          1           0       -5.294144   -4.756236    0.782001
    108          1           0       -7.635002   -2.649708   -1.207060
    109          1           0       -6.508344   -2.308697   -2.364483
    110          1           0       -6.809682   -0.243978   -1.789307
    111          1           0       -5.852861   -0.398455   -0.328663
    112          1           0       -7.695621    0.019545    0.978792
    113          1           0       -8.574662   -1.280056    0.230799
    114          1           0       -8.644120    0.955383   -1.665413
    115          1           0       -8.079369    2.005971    1.190031
    116          1           0       -9.256534    2.781051    0.262595
    117          1           0       -7.565357    2.518149   -0.414951
    118          1           0      -10.816512    1.423417   -0.181279
    119          1           0      -10.587569   -0.174481    0.350478
    120          1           0      -11.169291   -0.997435   -1.814114
    121          1           0      -10.483922    0.299567   -2.726656
    122          1           0      -12.804897    0.687639   -2.904759
    123          1           0      -12.467249    1.741817   -1.722889
    124          1           0      -12.969435   -0.674098   -0.241205
    125          1           0      -14.469046   -2.033483   -1.213552
    126          1           0      -14.065312   -1.361874   -2.748858
    127          1           0      -15.436660   -0.716663   -1.703427
    128          1           0      -15.265517    0.981578   -0.064403
    129          1           0      -14.055603    2.079121   -0.429823
    130          1           0      -12.714465    1.241338    1.377564
    131          1           0      -13.907111    0.084552    1.964315
    132          1           0      -15.135619    1.608944    3.051038
    133          1           0      -15.336522    2.695781    1.721647
    134          1           0      -12.741465    2.838722    3.264984
    135          1           0      -14.199661    4.433429    1.175334
    136          1           0      -12.493672    3.924249    1.377618
    137          1           0      -13.134191    5.157199    2.416313
    138          1           0      -14.016914    3.582441    5.036881
    139          1           0      -15.558679    3.604779    4.175932
    140          1           0      -14.732912    4.965041    4.118709
 ---------------------------------------------------------------------

 SCF Done:  E(RPBE1PBE) =  -3005.34785465     A.U. after   16 cycles

 Excitation energies and oscillator strengths:

 Excited State   1:      Singlet-A      1.8563 eV  667.91 nm  f=0.3730  <S**2>=0.000
     245 -> 248        0.16935
     246 -> 247        0.69354
     246 <- 247       -0.10877
 This state for optimization and/or second-order correction.
 Total Energy, E(TD-HF/TD-DFT) =  -3005.27963717
 Copying the excited state density for this state as the 1-particle RhoCI density.

 Excited State   2:      Singlet-A      2.2206 eV  558.33 nm  f=0.1167  <S**2>=0.000
     245 -> 247        0.65245
     246 -> 248       -0.25843

 Excited State   3:      Singlet-A      2.8925 eV  428.65 nm  f=0.0068  <S**2>=0.000
     243 -> 247        0.69466

 Excited State   4:      Singlet-A      3.1011 eV  399.80 nm  f=0.0019  <S**2>=0.000
     242 -> 247        0.68172
     242 -> 249       -0.11877

 Excited State   5:      Singlet-A      3.2322 eV  383.60 nm  f=0.0033  <S**2>=0.000
     240 -> 247        0.66836
     240 -> 249        0.13542

 The electronic state is 1-A.
 Alpha  occ. eigenvalues --  -46.91931 -19.26364 -19.25696 -19.21472 -19.20304
 Alpha  occ. eigenvalues --  -19.19898 -19.19322 -14.41968 -14.41745 -14.39647
 Alpha  occ. eigenvalues --  -14.38549 -10.37250 -10.36397 -10.33111 -10.31751
 Alpha  occ. eigenvalues --  -10.29826 -10.29000 -10.28971 -10.28914 -10.28863
 Alpha  occ. eigenvalues --  -10.28835 -10.28502 -10.28094 -10.27182 -10.27160
 Alpha  occ. eigenvalues --  -10.26324 -10.26183 -10.26052 -10.26001 -10.25985
 Alpha  occ. eigenvalues --  -10.25832 -10.25669 -10.25325 -10.25270 -10.25196
 Alpha  occ. eigenvalues --  -10.25121 -10.25027 -10.24923 -10.24805 -10.24305
 Alpha  occ. eigenvalues --  -10.24187 -10.23978 -10.23968 -10.23800 -10.23773
 Alpha  occ. eigenvalues --  -10.23723 -10.23421 -10.23389 -10.23228 -10.23081
 Alpha  occ. eigenvalues --  -10.23037 -10.23009 -10.22823 -10.22458 -10.22387
 Alpha  occ. eigenvalues --  -10.22375 -10.22344 -10.22325 -10.22265 -10.22086
 Alpha  occ. eigenvalues --  -10.22077 -10.22068 -10.22027 -10.21733 -10.21364
 Alpha  occ. eigenvalues --  -10.21097  -3.14067  -1.86919  -1.86457  -1.86284
 Alpha  occ. eigenvalues --   -1.10147  -1.08685  -1.06458  -1.05896  -1.03169
 Alpha  occ. eigenvalues --   -1.00686  -0.98826  -0.97621  -0.97234  -0.96444
 Alpha  occ. eigenvalues --   -0.86755  -0.84376  -0.83944  -0.83926  -0.83447
 Alpha  occ. eigenvalues --   -0.82655  -0.82560  -0.81671  -0.81321  -0.81205
 Alpha  occ. eigenvalues --   -0.80505  -0.79827  -0.78362  -0.77857  -0.77492
 Alpha  occ. eigenvalues --   -0.76775  -0.76240  -0.75624  -0.74744  -0.74415
 Alpha  occ. eigenvalues --   -0.73660  -0.72658  -0.72399  -0.71333  -0.70132
 Alpha  occ. eigenvalues --   -0.69790  -0.69508  -0.69258  -0.68817  -0.68194
 Alpha  occ. eigenvalues --   -0.67615  -0.67024  -0.66153  -0.65235  -0.64459
 Alpha  occ. eigenvalues --   -0.63036  -0.62795  -0.61619  -0.60993  -0.60154
 Alpha  occ. eigenvalues --   -0.59785  -0.59617  -0.58861  -0.58611  -0.58412
 Alpha  occ. eigenvalues --   -0.58091  -0.57573  -0.56905  -0.56117  -0.54701
 Alpha  occ. eigenvalues --   -0.54643  -0.54408  -0.53881  -0.53089  -0.52355
 Alpha  occ. eigenvalues --   -0.51981  -0.51585  -0.50721  -0.50441  -0.50304
 Alpha  occ. eigenvalues --   -0.49881  -0.49309  -0.48666  -0.48460  -0.48219
 Alpha  occ. eigenvalues --   -0.48150  -0.48023  -0.47935  -0.47547  -0.47234
 Alpha  occ. eigenvalues --   -0.46850  -0.46523  -0.46421  -0.46387  -0.46064
 Alpha  occ. eigenvalues --   -0.45555  -0.45431  -0.45290  -0.45047  -0.45023
 Alpha  occ. eigenvalues --   -0.44940  -0.44835  -0.44382  -0.44285  -0.43996
 Alpha  occ. eigenvalues --   -0.43845  -0.43588  -0.43546  -0.43319  -0.43198
 Alpha  occ. eigenvalues --   -0.43075  -0.42963  -0.42678  -0.42521  -0.42316
 Alpha  occ. eigenvalues --   -0.42175  -0.41844  -0.41672  -0.41446  -0.41225
 Alpha  occ. eigenvalues --   -0.41030  -0.40993  -0.40759  -0.40575  -0.40412
 Alpha  occ. eigenvalues --   -0.40300  -0.40168  -0.39924  -0.39886  -0.39815
 Alpha  occ. eigenvalues --   -0.39716  -0.39525  -0.39432  -0.38998  -0.38709
 Alpha  occ. eigenvalues --   -0.38576  -0.38447  -0.38299  -0.38253  -0.38088
 Alpha  occ. eigenvalues --   -0.37959  -0.37739  -0.37553  -0.37395  -0.37062
 Alpha  occ. eigenvalues --   -0.36836  -0.36797  -0.36526  -0.36278  -0.35957
 Alpha  occ. eigenvalues --   -0.35783  -0.35752  -0.35310  -0.34910  -0.34560
 Alpha  occ. eigenvalues --   -0.34550  -0.34410  -0.34393  -0.33858  -0.33650
 Alpha  occ. eigenvalues --   -0.33575  -0.32922  -0.32715  -0.32269  -0.32167
 Alpha  occ. eigenvalues --   -0.32095  -0.31832  -0.31694  -0.31554  -0.31094
 Alpha  occ. eigenvalues --   -0.30850  -0.30602  -0.29934  -0.29499  -0.29448
 Alpha  occ. eigenvalues --   -0.29248  -0.29042  -0.28460  -0.27391  -0.26502
 Alpha  occ. eigenvalues --   -0.26389  -0.25834  -0.24885  -0.24652  -0.21130
 Alpha  occ. eigenvalues --   -0.19047
 Alpha virt. eigenvalues --   -0.11437  -0.05471  -0.03570  -0.01938  -0.00826
 Alpha virt. eigenvalues --   -0.00667   0.00676   0.01073   0.01406   0.02774
 Alpha virt. eigenvalues --    0.03567   0.04390   0.04731   0.05426   0.05789

 Mulliken charges:
               1
     1  Mg   0.976211
     2  C   -0.044830
     3  C   -0.079305
     4  C   -0.055114
     5  C   -0.052612
     6  N   -0.341364
     7  C    0.018996
     8  C   -0.064503
     9  C   -0.133495
    10  C    0.103746
    11  C   -0.005381
    12  C   -0.002013
    13  C   -0.003825
    14  C    0.242065
    15  O   -0.253327
    16  O   -0.389551
    17  N   -0.562443
    18  C    0.189379
    19  C   -0.188255
    20  C   -0.098629
    21  C    0.136869
    22  C    0.058884
    23  C    0.071641
    24  O   -0.211263
    25  C   -0.023422
    26  N   -0.444754
    27  C    0.085129
    28  C   -0.080589
    29  C   -0.100289
    30  C    0.076871
    31  C    0.018431
    32  C   -0.034565
    33  C   -0.072369
    34  N   -0.445712
    35  C    0.109903
    36  C   -0.195883
    37  C   -0.053585
    38  C    0.160579
    39  C    0.085132
    40  C    0.159023
    41  O   -0.178500
    42  C   -0.104506
    43  C    0.292186
    44  O   -0.282959
    45  O   -0.387142
    46  C    0.112239
    47  C    0.243290
    48  C   -0.186801
    49  C   -0.152752
    50  C    0.013256
    51  C   -0.011887
    52  C   -0.034427
    53  C    0.033879
    54  C   -0.231659
    55  C   -0.026276
    56  C   -0.016979
    57  C   -0.012958
    58  C   -0.036625
    59  C   -0.182903
    60  C   -0.009941
    61  C   -0.032356
    62  C   -0.052782
    63  C    0.001940
    64  C   -0.252023
    65  C   -0.005297
    66  C   -0.048353
    67  H    0.006498
    68  H    0.023653
    69  H    0.010123
    70  H    0.059988
    71  H    0.045857
    72  H    0.048048
    73  H    0.037843
    74  H    0.044815
    75  H    0.035020
    76  H    0.047958
    77  H    0.054183
    78  H    0.053601
    79  H    0.050936
    80  H    0.064824
    81  H    0.045456
    82  H    0.071172
    83  H    0.048263
    84  H    0.070005
    85  H    0.054467
    86  H    0.047574
    87  H    0.051237
    88  H    0.058415
    89  H    0.042447
    90  H    0.036490
    91  H    0.036056
    92  H    0.065186
    93  H    0.040341
    94  H    0.045029
    95  H    0.035863
    96  H    0.061632
    97  H    0.060736
    98  H    0.083327
    99  H    0.071564
   100  H    0.055645
   101  H    0.059101
   102  H    0.065757
   103  H    0.062976
   104  H    0.026332
   105  H    0.048840
   106  H    0.031715
   107  H    0.038128
   108  H    0.008623
   109  H    0.040179
   110  H    0.026588
   111  H    0.036178
   112  H    0.026111
   113  H    0.027939
   114  H    0.034962
   115  H    0.033258
   116  H    0.033445
   117  H    0.042255
   118  H    0.028120
   119  H    0.033867
   120  H    0.025098
   121  H    0.028568
   122  H    0.011253
   123  H    0.018880
   124  H    0.040963
   125  H    0.026588
   126  H    0.042398
   127  H    0.033570
   128  H    0.018988
   129  H    0.031356
   130  H    0.033929
   131  H    0.036978
   132  H    0.028757
   133  H    0.024989
   134  H    0.035770
   135  H    0.035088
   136  H    0.025822
   137  H    0.033698
   138  H    0.044044
   139  H    0.018755
   140  H    0.030439
 Sum of Mulliken charges =  -0.00000

 Dipole moment (field-independent basis, Debye):
    X=             -1.6361    Y=              4.3487    Z=             -0.9098  Tot=              4.7346
 Quadrupole moment (field-independent basis, Debye-Ang):
   XX=           -372.1754   YY=           -418.8291   ZZ=           -402.5074
   XY=             12.6674   XZ=             21.9284   YZ=             -3.6806

 Normal termination of Gaussian 16 at Fri Apr 29 12:27:32 2022.
