 Gaussian 16, Revision A.03,
 Gaussian 16:  ES64L-G16RevA.03 25-Dec-2016

 --------------------------------
 #p wB97XD/Def2SVP td=(nstates=5)
 --------------------------------

 ----------------------------------------------------
 step_301_chromophore_16 TDDFT with wB97XD functional
 ----------------------------------------------------
 Symbolic Z-matrix:
 Charge =  0 Multiplicity = 1

                         Standard orientation:
 ---------------------------------------------------------------------
 Center     Atomic      Atomic             Coordinates (Angstroms)
 Number     Number       Type             X           Y           Z
 ---------------------------------------------------------------------
      1         12           0        5.997329    0.672355    0.152770
      2          6           0        3.670732   -2.171051    0.006831
      3          6           0        3.377798    2.539452   -1.206853
      4          6           0        8.075120    3.037410    0.064357
      5          6           0        8.463819   -1.643952    1.335849
      6          7           0        3.808868    0.227534   -0.436046
      7          6           0        3.116168   -0.943393   -0.385321
      8          6           0        1.602328   -0.771526   -0.725315
      9          6           0        1.673096    0.625329   -1.338297
     10          6           0        3.066049    1.193094   -1.016750
     11          6           0        1.278783    0.706189   -2.864982
     12          6           0        0.665599   -0.952924    0.482676
     13          6           0       -0.874979   -0.700066    0.317475
     14          6           0       -1.806368   -1.818419    0.674666
     15          8           0       -2.362405   -1.966825    1.767091
     16          8           0       -1.968476   -2.558950   -0.521486
     17          7           0        5.735597    2.578829   -0.388484
     18          6           0        4.651700    3.197720   -0.964281
     19          6           0        4.998464    4.576994   -1.265881
     20          6           0        6.367457    4.751749   -0.963396
     21          6           0        6.846737    3.454267   -0.403010
     22          6           0        3.955488    5.506612   -1.921574
     23          6           0        7.282599    6.028155   -1.156818
     24          8           0        8.469175    6.132173   -0.944935
     25          6           0        6.573065    7.201805   -1.688732
     26          7           0        8.034185    0.642182    0.490757
     27          6           0        8.727135    1.820878    0.418386
     28          6           0       10.180833    1.689518    0.931421
     29          6           0       10.249227    0.248329    1.421255
     30          6           0        8.802369   -0.317217    1.200084
     31          6           0       11.296284    1.981188   -0.164938
     32          6           0       10.547251    0.150545    2.902641
     33          6           0        9.499416    0.712089    3.893592
     34          7           0        6.082388   -1.452269    0.640660
     35          6           0        7.173390   -2.221965    0.988152
     36          6           0        6.771633   -3.616960    1.040524
     37          6           0        5.424425   -3.595784    0.689986
     38          6           0        5.048049   -2.320837    0.392212
     39          6           0        7.636421   -4.761542    1.405141
     40          6           0        4.353558   -4.517420    0.546431
     41          8           0        4.308740   -5.704736    0.679129
     42          6           0        3.113023   -3.581362    0.122310
     43          6           0        2.445952   -4.069218   -1.098873
     44          8           0        3.040704   -4.240496   -2.196206
     45          8           0        1.126836   -4.508430   -0.822062
     46          6           0        0.422116   -4.969844   -2.037468
     47          6           0       -3.047779   -3.551575   -0.416210
     48          6           0       -4.282433   -2.812822   -0.857727
     49          6           0       -5.564257   -3.035081   -0.586736
     50          6           0       -6.066529   -4.257070    0.196665
     51          6           0       -6.630129   -2.234842   -1.283636
     52          6           0       -6.772900   -0.726840   -0.812221
     53          6           0       -7.996223   -0.381914    0.012008
     54          6           0       -8.815555    0.780312   -0.603115
     55          6           0       -8.401724    2.113001    0.154806
     56          6           0      -10.375288    0.477770   -0.496779
     57          6           0      -11.011079    0.080951   -1.798199
     58          6           0      -12.429214    0.664483   -1.882699
     59          6           0      -13.499750   -0.029294   -0.941523
     60          6           0      -14.412890   -1.087850   -1.752787
     61          6           0      -14.177972    1.048418   -0.097345
     62          6           0      -13.781963    1.032273    1.439838
     63          6           0      -14.588826    2.101878    2.247699
     64          6           0      -13.706058    3.184777    2.891709
     65          6           0      -13.401517    4.239816    1.891433
     66          6           0      -14.511114    3.898571    4.118016
     67          1           0        2.517460    3.099543   -1.577260
     68          1           0        8.696979    3.934861    0.054859
     69          1           0        9.244014   -2.344960    1.641306
     70          1           0        1.254173   -1.600833   -1.341427
     71          1           0        0.931471    1.281692   -0.883732
     72          1           0        1.419528   -0.267675   -3.332575
     73          1           0        1.908592    1.320327   -3.509658
     74          1           0        0.265255    1.090841   -2.985342
     75          1           0        0.928471   -0.361027    1.359435
     76          1           0        0.780011   -1.944814    0.918022
     77          1           0       -1.083322   -0.287886   -0.670192
     78          1           0       -1.172576    0.092961    1.003061
     79          1           0        4.367341    6.084149   -2.749229
     80          1           0        3.556820    6.166170   -1.150490
     81          1           0        3.160964    4.890363   -2.341395
     82          1           0        6.363145    6.930680   -2.723918
     83          1           0        7.269376    8.037847   -1.747778
     84          1           0        5.762398    7.496958   -1.022852
     85          1           0       10.240270    2.327031    1.814352
     86          1           0       10.902046   -0.353593    0.788222
     87          1           0       12.135880    2.426964    0.368006
     88          1           0       10.889334    2.638946   -0.933976
     89          1           0       11.655946    1.089648   -0.678021
     90          1           0       11.509321    0.646258    3.032542
     91          1           0       10.735131   -0.896828    3.138241
     92          1           0        8.614270    1.113820    3.401564
     93          1           0       10.005764    1.445633    4.520950
     94          1           0        9.159170   -0.009289    4.636486
     95          1           0        8.567241   -4.414298    1.852906
     96          1           0        7.840936   -5.359523    0.516715
     97          1           0        7.028718   -5.418981    2.027877
     98          1           0        2.368351   -3.509042    0.916067
     99          1           0        1.074093   -5.311680   -2.840985
    100          1           0       -0.170108   -4.158270   -2.459017
    101          1           0       -0.202180   -5.800876   -1.708589
    102          1           0       -3.315602   -3.852305    0.597053
    103          1           0       -2.927655   -4.471414   -0.988503
    104          1           0       -3.970518   -1.969463   -1.473916
    105          1           0       -6.748617   -4.932445   -0.321386
    106          1           0       -6.805013   -3.864939    0.896525
    107          1           0       -5.294144   -4.756236    0.782001
    108          1           0       -7.635002   -2.649708   -1.207060
    109          1           0       -6.508344   -2.308697   -2.364483
    110          1           0       -6.809682   -0.243978   -1.789307
    111          1           0       -5.852861   -0.398455   -0.328663
    112          1           0       -7.695621    0.019545    0.978792
    113          1           0       -8.574662   -1.280056    0.230799
    114          1           0       -8.644120    0.955383   -1.665413
    115          1           0       -8.079369    2.005971    1.190031
    116          1           0       -9.256534    2.781051    0.262595
    117          1           0       -7.565357    2.518149   -0.414951
    118          1           0      -10.816512    1.423417   -0.181279
    119          1           0      -10.587569   -0.174481    0.350478
    120          1           0      -11.169291   -0.997435   -1.814114
    121          1           0      -10.483922    0.299567   -2.726656
    122          1           0      -12.804897    0.687639   -2.904759
    123          1           0      -12.467249    1.741817   -1.722889
    124          1           0      -12.969435   -0.674098   -0.241205
    125          1           0      -14.469046   -2.033483   -1.213552
    126          1           0      -14.065312   -1.361874   -2.748858
    127          1           0      -15.436660   -0.716663   -1.703427
    128          1           0      -15.265517    0.981578   -0.064403
    129          1           0      -14.055603    2.079121   -0.429823
    130          1           0      -12.714465    1.241338    1.377564
    131          1           0      -13.907111    0.084552    1.964315
    132          1           0      -15.135619    1.608944    3.051038
    133          1           0      -15.336522    2.695781    1.721647
    134          1           0      -12.741465    2.838722    3.264984
    135          1           0      -14.199661    4.433429    1.175334
    136          1           0      -12.493672    3.924249    1.377618
    137          1           0      -13.134191    5.157199    2.416313
    138          1           0      -14.016914    3.582441    5.036881
    139          1           0      -15.558679    3.604779    4.175932
    140          1           0      -14.732912    4.965041    4.118709
 ---------------------------------------------------------------------

 SCF Done:  E(RwB97XD) =  -3007.85889732     A.U. after   19 cycles

 Excitation energies and oscillator strengths:

 Excited State   1:      Singlet-A      1.6719 eV  741.59 nm  f=0.3832  <S**2>=0.000
     245 -> 248        0.17471
     246 -> 247        0.68539
     245 <- 248        0.11213
 This state for optimization and/or second-order correction.
 Total Energy, E(TD-HF/TD-DFT) =  -3007.79745684
 Copying the excited state density for this state as the 1-particle RhoCI density.

 Excited State   2:      Singlet-A      2.1600 eV  574.00 nm  f=0.1199  <S**2>=0.000
     245 -> 247        0.64147
     246 -> 248       -0.27863

 Excited State   3:      Singlet-A      3.3034 eV  375.32 nm  f=0.0078  <S**2>=0.000
     241 -> 247       -0.16846
     244 -> 247        0.66897

 Excited State   4:      Singlet-A      3.5299 eV  351.24 nm  f=0.3636  <S**2>=0.000
     239 -> 247        0.21328
     241 -> 247        0.36582
     245 -> 247        0.18252
     246 -> 248        0.51822

 Excited State   5:      Singlet-A      3.7250 eV  332.84 nm  f=0.5080  <S**2>=0.000
     239 -> 247        0.17980
     240 -> 247        0.18032
     241 -> 247        0.44710
     244 -> 247        0.12679
     245 -> 247       -0.23683
     246 -> 248       -0.37003

 The electronic state is 1-A.
 Alpha  occ. eigenvalues --  -46.94877 -19.30846 -19.30158 -19.26107 -19.25427
 Alpha  occ. eigenvalues --  -19.24495 -19.23804 -14.47162 -14.46790 -14.44782
 Alpha  occ. eigenvalues --  -14.43246 -10.44007 -10.43125 -10.40245 -10.38331
 Alpha  occ. eigenvalues --  -10.36473 -10.35644 -10.35639 -10.35468 -10.35441
 Alpha  occ. eigenvalues --  -10.35003 -10.34516 -10.34497 -10.34098 -10.33142
 Alpha  occ. eigenvalues --  -10.32974 -10.32397 -10.32384 -10.32304 -10.32116
 Alpha  occ. eigenvalues --  -10.31932 -10.31878 -10.31817 -10.31764 -10.31490
 Alpha  occ. eigenvalues --  -10.31450 -10.31392 -10.31236 -10.30928 -10.30733
 Alpha  occ. eigenvalues --  -10.30519 -10.30440 -10.30246 -10.30237 -10.30210
 Alpha  occ. eigenvalues --  -10.30051 -10.29977 -10.29688 -10.29653 -10.29464
 Alpha  occ. eigenvalues --  -10.29368 -10.29196 -10.29162 -10.28814 -10.28754
 Alpha  occ. eigenvalues --  -10.28746 -10.28701 -10.28693 -10.28686 -10.28473
 Alpha  occ. eigenvalues --  -10.28450 -10.28429 -10.28367 -10.28125 -10.27531
 Alpha  occ. eigenvalues --  -10.27258  -3.20873  -1.94475  -1.94014  -1.93833
 Alpha  occ. eigenvalues --   -1.17496  -1.15999  -1.14231  -1.13052  -1.10476
 Alpha  occ. eigenvalues --   -1.07969  -1.06196  -1.05037  -1.04615  -1.03883
 Alpha  occ. eigenvalues --   -0.94147  -0.92017  -0.91559  -0.91541  -0.91106
 Alpha  occ. eigenvalues --   -0.90363  -0.90308  -0.89488  -0.89055  -0.88860
 Alpha  occ. eigenvalues --   -0.87855  -0.87451  -0.86025  -0.85527  -0.85063
 Alpha  occ. eigenvalues --   -0.84733  -0.83897  -0.83188  -0.82376  -0.82033
 Alpha  occ. eigenvalues --   -0.81310  -0.80514  -0.79984  -0.78923  -0.77676
 Alpha  occ. eigenvalues --   -0.77444  -0.77154  -0.76952  -0.76497  -0.75858
 Alpha  occ. eigenvalues --   -0.75155  -0.74468  -0.73742  -0.72873  -0.71995
 Alpha  occ. eigenvalues --   -0.70502  -0.70330  -0.69329  -0.68618  -0.67591
 Alpha  occ. eigenvalues --   -0.67378  -0.67234  -0.66344  -0.66078  -0.66016
 Alpha  occ. eigenvalues --   -0.65550  -0.65228  -0.64530  -0.63442  -0.62415
 Alpha  occ. eigenvalues --   -0.62089  -0.61864  -0.61194  -0.60480  -0.59630
 Alpha  occ. eigenvalues --   -0.59414  -0.59021  -0.58206  -0.57812  -0.57685
 Alpha  occ. eigenvalues --   -0.57261  -0.56626  -0.56345  -0.55986  -0.55680
 Alpha  occ. eigenvalues --   -0.55472  -0.55425  -0.55335  -0.54890  -0.54627
 Alpha  occ. eigenvalues --   -0.54247  -0.53803  -0.53729  -0.53681  -0.53442
 Alpha  occ. eigenvalues --   -0.53013  -0.52874  -0.52784  -0.52507  -0.52283
 Alpha  occ. eigenvalues --   -0.52226  -0.52143  -0.51674  -0.51548  -0.51283
 Alpha  occ. eigenvalues --   -0.51272  -0.50886  -0.50854  -0.50604  -0.50496
 Alpha  occ. eigenvalues --   -0.50376  -0.50281  -0.50064  -0.49812  -0.49577
 Alpha  occ. eigenvalues --   -0.49476  -0.48993  -0.48935  -0.48715  -0.48485
 Alpha  occ. eigenvalues --   -0.48302  -0.48251  -0.48020  -0.47773  -0.47514
 Alpha  occ. eigenvalues --   -0.47380  -0.47228  -0.47126  -0.47088  -0.46933
 Alpha  occ. eigenvalues --   -0.46811  -0.46699  -0.46582  -0.46124  -0.45920
 Alpha  occ. eigenvalues --   -0.45778  -0.45723  -0.45482  -0.45329  -0.45110
 Alpha  occ. eigenvalues --   -0.45041  -0.44929  -0.44776  -0.44456  -0.44035
 Alpha  occ. eigenvalues --   -0.43917  -0.43905  -0.43534  -0.43314  -0.43057
 Alpha  occ. eigenvalues --   -0.42847  -0.42830  -0.42421  -0.41997  -0.41632
 Alpha  occ. eigenvalues --   -0.41537  -0.41454  -0.41263  -0.40950  -0.40675
 Alpha  occ. eigenvalues --   -0.40628  -0.39851  -0.39782  -0.39307  -0.39226
 Alpha  occ. eigenvalues --   -0.39141  -0.38833  -0.38557  -0.38555  -0.38111
 Alpha  occ. eigenvalues --   -0.37833  -0.37544  -0.36920  -0.36291  -0.36235
 Alpha  occ. eigenvalues --   -0.36132  -0.35936  -0.35209  -0.34189  -0.33902
 Alpha  occ. eigenvalues --   -0.33127  -0.32576  -0.31380  -0.31088  -0.26167
 Alpha  occ. eigenvalues --   -0.23273
 Alpha virt. eigenvalues --   -0.07316  -0.00020   0.02702   0.04671   0.06055
 Alpha virt. eigenvalues --    0.06209   0.06582   0.07668   0.08103   0.09015
 Alpha virt. eigenvalues --    0.10010   0.11347   0.11360   0.12139   0.12595

 Mulliken charges:
               1
     1  Mg   0.964258
     2  C   -0.047717
     3  C   -0.103242
     4  C   -0.063682
     5  C   -0.067772
     6  N   -0.303852
     7  C   -0.013849
     8  C   -0.035570
     9  C   -0.107637
    10  C    0.094578
    11  C    0.003346
    12  C    0.008738
    13  C    0.013720
    14  C    0.231261
    15  O   -0.250895
    16  O   -0.390881
    17  N   -0.535471
    18  C    0.184854
    19  C   -0.176496
    20  C   -0.093579
    21  C    0.133642
    22  C    0.072675
    23  C    0.069113
    24  O   -0.203212
    25  C   -0.012018
    26  N   -0.414757
    27  C    0.072380
    28  C   -0.058697
    29  C   -0.072199
    30  C    0.063145
    31  C    0.029370
    32  C   -0.020075
    33  C   -0.054875
    34  N   -0.408670
    35  C    0.094832
    36  C   -0.193830
    37  C   -0.044659
    38  C    0.138198
    39  C    0.096808
    40  C    0.138014
    41  O   -0.170263
    42  C   -0.063349
    43  C    0.269633
    44  O   -0.278727
    45  O   -0.386284
    46  C    0.127471
    47  C    0.266021
    48  C   -0.202723
    49  C   -0.134890
    50  C    0.028362
    51  C    0.004273
    52  C   -0.020175
    53  C    0.049342
    54  C   -0.203315
    55  C   -0.012145
    56  C    0.004059
    57  C    0.006292
    58  C   -0.018776
    59  C   -0.157152
    60  C    0.003368
    61  C   -0.015451
    62  C   -0.029331
    63  C    0.016982
    64  C   -0.220915
    65  C    0.004986
    66  C   -0.037860
    67  H    0.000286
    68  H    0.016761
    69  H    0.004223
    70  H    0.043670
    71  H    0.034783
    72  H    0.043280
    73  H    0.031753
    74  H    0.040166
    75  H    0.028340
    76  H    0.035052
    77  H    0.046195
    78  H    0.048074
    79  H    0.046682
    80  H    0.062015
    81  H    0.042129
    82  H    0.065329
    83  H    0.048004
    84  H    0.065451
    85  H    0.044251
    86  H    0.038352
    87  H    0.046384
    88  H    0.052066
    89  H    0.038036
    90  H    0.027103
    91  H    0.028354
    92  H    0.053745
    93  H    0.034817
    94  H    0.040713
    95  H    0.028419
    96  H    0.055087
    97  H    0.054779
    98  H    0.074685
    99  H    0.067672
   100  H    0.051205
   101  H    0.055331
   102  H    0.056141
   103  H    0.059674
   104  H    0.021220
   105  H    0.043931
   106  H    0.023589
   107  H    0.033656
   108  H   -0.000485
   109  H    0.033665
   110  H    0.017590
   111  H    0.028218
   112  H    0.016623
   113  H    0.017793
   114  H    0.021503
   115  H    0.026856
   116  H    0.027533
   117  H    0.036207
   118  H    0.007995
   119  H    0.025288
   120  H    0.014283
   121  H    0.022601
   122  H    0.003525
   123  H    0.008155
   124  H    0.025255
   125  H    0.020966
   126  H    0.037260
   127  H    0.027039
   128  H    0.008755
   129  H    0.019061
   130  H    0.015050
   131  H    0.030892
   132  H    0.020652
   133  H    0.013949
   134  H    0.026912
   135  H    0.028855
   136  H    0.018613
   137  H    0.027253
   138  H    0.038697
   139  H    0.012112
   140  H    0.025196
 Sum of Mulliken charges =  -0.00000

 Dipole moment (field-independent basis, Debye):
    X=             -1.6047    Y=              5.2946    Z=             -1.1884  Tot=              5.6587
 Quadrupole moment (field-independent basis, Debye-Ang):
   XX=           -372.5119   YY=           -416.3215   ZZ=           -402.1859
   XY=             18.6483   XZ=             20.5275   YZ=             -4.1406

 Normal termination of Gaussian 16 at Fri Apr 29 12:59:52 2022.
