 Gaussian 16, Revision A.03,
 Gaussian 16:  ES64L-G16RevA.03 25-Dec-2016

 --------------------
 #p ZINDO=(nstates=5)
 --------------------

 -----------------------------
 step_301_chromophore_16 ZINDO
 -----------------------------
 Symbolic Z-matrix:
 Charge =  0 Multiplicity = 1

                         Standard orientation:
 ---------------------------------------------------------------------
 Center     Atomic      Atomic             Coordinates (Angstroms)
 Number     Number       Type             X           Y           Z
 ---------------------------------------------------------------------
      1         12           0        5.997329    0.672355    0.152770
      2          6           0        3.670732   -2.171051    0.006831
      3          6           0        3.377798    2.539452   -1.206853
      4          6           0        8.075120    3.037410    0.064357
      5          6           0        8.463819   -1.643952    1.335849
      6          7           0        3.808868    0.227534   -0.436046
      7          6           0        3.116168   -0.943393   -0.385321
      8          6           0        1.602328   -0.771526   -0.725315
      9          6           0        1.673096    0.625329   -1.338297
     10          6           0        3.066049    1.193094   -1.016750
     11          6           0        1.278783    0.706189   -2.864982
     12          6           0        0.665599   -0.952924    0.482676
     13          6           0       -0.874979   -0.700066    0.317475
     14          6           0       -1.806368   -1.818419    0.674666
     15          8           0       -2.362405   -1.966825    1.767091
     16          8           0       -1.968476   -2.558950   -0.521486
     17          7           0        5.735597    2.578829   -0.388484
     18          6           0        4.651700    3.197720   -0.964281
     19          6           0        4.998464    4.576994   -1.265881
     20          6           0        6.367457    4.751749   -0.963396
     21          6           0        6.846737    3.454267   -0.403010
     22          6           0        3.955488    5.506612   -1.921574
     23          6           0        7.282599    6.028155   -1.156818
     24          8           0        8.469175    6.132173   -0.944935
     25          6           0        6.573065    7.201805   -1.688732
     26          7           0        8.034185    0.642182    0.490757
     27          6           0        8.727135    1.820878    0.418386
     28          6           0       10.180833    1.689518    0.931421
     29          6           0       10.249227    0.248329    1.421255
     30          6           0        8.802369   -0.317217    1.200084
     31          6           0       11.296284    1.981188   -0.164938
     32          6           0       10.547251    0.150545    2.902641
     33          6           0        9.499416    0.712089    3.893592
     34          7           0        6.082388   -1.452269    0.640660
     35          6           0        7.173390   -2.221965    0.988152
     36          6           0        6.771633   -3.616960    1.040524
     37          6           0        5.424425   -3.595784    0.689986
     38          6           0        5.048049   -2.320837    0.392212
     39          6           0        7.636421   -4.761542    1.405141
     40          6           0        4.353558   -4.517420    0.546431
     41          8           0        4.308740   -5.704736    0.679129
     42          6           0        3.113023   -3.581362    0.122310
     43          6           0        2.445952   -4.069218   -1.098873
     44          8           0        3.040704   -4.240496   -2.196206
     45          8           0        1.126836   -4.508430   -0.822062
     46          6           0        0.422116   -4.969844   -2.037468
     47          6           0       -3.047779   -3.551575   -0.416210
     48          6           0       -4.282433   -2.812822   -0.857727
     49          6           0       -5.564257   -3.035081   -0.586736
     50          6           0       -6.066529   -4.257070    0.196665
     51          6           0       -6.630129   -2.234842   -1.283636
     52          6           0       -6.772900   -0.726840   -0.812221
     53          6           0       -7.996223   -0.381914    0.012008
     54          6           0       -8.815555    0.780312   -0.603115
     55          6           0       -8.401724    2.113001    0.154806
     56          6           0      -10.375288    0.477770   -0.496779
     57          6           0      -11.011079    0.080951   -1.798199
     58          6           0      -12.429214    0.664483   -1.882699
     59          6           0      -13.499750   -0.029294   -0.941523
     60          6           0      -14.412890   -1.087850   -1.752787
     61          6           0      -14.177972    1.048418   -0.097345
     62          6           0      -13.781963    1.032273    1.439838
     63          6           0      -14.588826    2.101878    2.247699
     64          6           0      -13.706058    3.184777    2.891709
     65          6           0      -13.401517    4.239816    1.891433
     66          6           0      -14.511114    3.898571    4.118016
     67          1           0        2.517460    3.099543   -1.577260
     68          1           0        8.696979    3.934861    0.054859
     69          1           0        9.244014   -2.344960    1.641306
     70          1           0        1.254173   -1.600833   -1.341427
     71          1           0        0.931471    1.281692   -0.883732
     72          1           0        1.419528   -0.267675   -3.332575
     73          1           0        1.908592    1.320327   -3.509658
     74          1           0        0.265255    1.090841   -2.985342
     75          1           0        0.928471   -0.361027    1.359435
     76          1           0        0.780011   -1.944814    0.918022
     77          1           0       -1.083322   -0.287886   -0.670192
     78          1           0       -1.172576    0.092961    1.003061
     79          1           0        4.367341    6.084149   -2.749229
     80          1           0        3.556820    6.166170   -1.150490
     81          1           0        3.160964    4.890363   -2.341395
     82          1           0        6.363145    6.930680   -2.723918
     83          1           0        7.269376    8.037847   -1.747778
     84          1           0        5.762398    7.496958   -1.022852
     85          1           0       10.240270    2.327031    1.814352
     86          1           0       10.902046   -0.353593    0.788222
     87          1           0       12.135880    2.426964    0.368006
     88          1           0       10.889334    2.638946   -0.933976
     89          1           0       11.655946    1.089648   -0.678021
     90          1           0       11.509321    0.646258    3.032542
     91          1           0       10.735131   -0.896828    3.138241
     92          1           0        8.614270    1.113820    3.401564
     93          1           0       10.005764    1.445633    4.520950
     94          1           0        9.159170   -0.009289    4.636486
     95          1           0        8.567241   -4.414298    1.852906
     96          1           0        7.840936   -5.359523    0.516715
     97          1           0        7.028718   -5.418981    2.027877
     98          1           0        2.368351   -3.509042    0.916067
     99          1           0        1.074093   -5.311680   -2.840985
    100          1           0       -0.170108   -4.158270   -2.459017
    101          1           0       -0.202180   -5.800876   -1.708589
    102          1           0       -3.315602   -3.852305    0.597053
    103          1           0       -2.927655   -4.471414   -0.988503
    104          1           0       -3.970518   -1.969463   -1.473916
    105          1           0       -6.748617   -4.932445   -0.321386
    106          1           0       -6.805013   -3.864939    0.896525
    107          1           0       -5.294144   -4.756236    0.782001
    108          1           0       -7.635002   -2.649708   -1.207060
    109          1           0       -6.508344   -2.308697   -2.364483
    110          1           0       -6.809682   -0.243978   -1.789307
    111          1           0       -5.852861   -0.398455   -0.328663
    112          1           0       -7.695621    0.019545    0.978792
    113          1           0       -8.574662   -1.280056    0.230799
    114          1           0       -8.644120    0.955383   -1.665413
    115          1           0       -8.079369    2.005971    1.190031
    116          1           0       -9.256534    2.781051    0.262595
    117          1           0       -7.565357    2.518149   -0.414951
    118          1           0      -10.816512    1.423417   -0.181279
    119          1           0      -10.587569   -0.174481    0.350478
    120          1           0      -11.169291   -0.997435   -1.814114
    121          1           0      -10.483922    0.299567   -2.726656
    122          1           0      -12.804897    0.687639   -2.904759
    123          1           0      -12.467249    1.741817   -1.722889
    124          1           0      -12.969435   -0.674098   -0.241205
    125          1           0      -14.469046   -2.033483   -1.213552
    126          1           0      -14.065312   -1.361874   -2.748858
    127          1           0      -15.436660   -0.716663   -1.703427
    128          1           0      -15.265517    0.981578   -0.064403
    129          1           0      -14.055603    2.079121   -0.429823
    130          1           0      -12.714465    1.241338    1.377564
    131          1           0      -13.907111    0.084552    1.964315
    132          1           0      -15.135619    1.608944    3.051038
    133          1           0      -15.336522    2.695781    1.721647
    134          1           0      -12.741465    2.838722    3.264984
    135          1           0      -14.199661    4.433429    1.175334
    136          1           0      -12.493672    3.924249    1.377618
    137          1           0      -13.134191    5.157199    2.416313
    138          1           0      -14.016914    3.582441    5.036881
    139          1           0      -15.558679    3.604779    4.175932
    140          1           0      -14.732912    4.965041    4.118709
 ---------------------------------------------------------------------

 SCF Done:  E(RZINDO/S) =  -474.009774387     A.U. after   19 cycles

 Excitation energies and oscillator strengths:

 Excited State   1:      Singlet-A      1.2984 eV  954.90 nm  f=0.5639  <S**2>=0.000
     175 ->178         0.16818
     176 ->177         0.66908
 This state for optimization and/or second-order correction.
 Total Energy, E(CIS/TDA) =  -473.962058876
 Copying the excited state density for this state as the 1-particle RhoCI density.

 Excited State   2:      Singlet-A      1.9190 eV  646.09 nm  f=0.0523  <S**2>=0.000
     175 ->177         0.55197
     176 ->178        -0.40649

 Excited State   3:      Singlet-A      3.0257 eV  409.77 nm  f=1.0609  <S**2>=0.000
     168 ->177        -0.10037
     168 ->179         0.10697
     175 ->177         0.36603
     176 ->178         0.52712

 Excited State   4:      Singlet-A      3.0624 eV  404.86 nm  f=0.1142  <S**2>=0.000
     167 ->177        -0.10966
     167 ->179         0.15763
     167 ->185         0.10836
     168 ->177        -0.26640
     168 ->178         0.16069
     168 ->179         0.35594
     168 ->181        -0.19895
     168 ->182         0.14981
     168 ->185         0.22976
     175 ->177        -0.12145
     176 ->178        -0.16799

 Excited State   5:      Singlet-A      3.1235 eV  396.94 nm  f=0.0063  <S**2>=0.000
     171 ->177         0.26555
     171 ->179         0.29032
     171 ->181         0.26142
     171 ->182        -0.26823
     171 ->185         0.19554
     171 ->188         0.19350
     171 ->205        -0.11041
     172 ->177        -0.10191
     174 ->177        -0.14327

 The electronic state is 1-A.
 Alpha  occ. eigenvalues --   -1.82571  -1.79976  -1.79579  -1.72312  -1.70804
 Alpha  occ. eigenvalues --   -1.68941  -1.64436  -1.61061  -1.59718  -1.58174
 Alpha  occ. eigenvalues --   -1.54947  -1.50853  -1.48078  -1.47762  -1.46918
 Alpha  occ. eigenvalues --   -1.44823  -1.42179  -1.39780  -1.38114  -1.37847
 Alpha  occ. eigenvalues --   -1.35545  -1.33154  -1.32761  -1.31190  -1.28848
 Alpha  occ. eigenvalues --   -1.26817  -1.24419  -1.23337  -1.20794  -1.18165
 Alpha  occ. eigenvalues --   -1.16463  -1.15304  -1.14900  -1.13462  -1.13237
 Alpha  occ. eigenvalues --   -1.12904  -1.11373  -1.10918  -1.04412  -1.03258
 Alpha  occ. eigenvalues --   -1.02007  -1.00805  -0.98869  -0.98526  -0.97528
 Alpha  occ. eigenvalues --   -0.96046  -0.95549  -0.94034  -0.93609  -0.92637
 Alpha  occ. eigenvalues --   -0.91151  -0.89958  -0.89703  -0.87912  -0.87293
 Alpha  occ. eigenvalues --   -0.85269  -0.85080  -0.83368  -0.82226  -0.80922
 Alpha  occ. eigenvalues --   -0.79842  -0.79365  -0.76547  -0.76344  -0.76292
 Alpha  occ. eigenvalues --   -0.75339  -0.75188  -0.74917  -0.73584  -0.73223
 Alpha  occ. eigenvalues --   -0.72722  -0.72538  -0.72026  -0.71213  -0.70656
 Alpha  occ. eigenvalues --   -0.70420  -0.69345  -0.69276  -0.68504  -0.68263
 Alpha  occ. eigenvalues --   -0.67328  -0.66935  -0.66222  -0.65785  -0.65514
 Alpha  occ. eigenvalues --   -0.64845  -0.64426  -0.64141  -0.63332  -0.63272
 Alpha  occ. eigenvalues --   -0.62911  -0.62720  -0.62542  -0.62119  -0.61491
 Alpha  occ. eigenvalues --   -0.61272  -0.60918  -0.60578  -0.60413  -0.60083
 Alpha  occ. eigenvalues --   -0.59913  -0.59214  -0.59135  -0.58443  -0.58265
 Alpha  occ. eigenvalues --   -0.57704  -0.57606  -0.56967  -0.56328  -0.56278
 Alpha  occ. eigenvalues --   -0.55991  -0.55753  -0.55578  -0.55446  -0.55281
 Alpha  occ. eigenvalues --   -0.55123  -0.54379  -0.53816  -0.53762  -0.53053
 Alpha  occ. eigenvalues --   -0.52502  -0.52317  -0.51965  -0.51719  -0.51519
 Alpha  occ. eigenvalues --   -0.51124  -0.51104  -0.50698  -0.50219  -0.49970
 Alpha  occ. eigenvalues --   -0.49831  -0.49660  -0.49221  -0.49075  -0.48914
 Alpha  occ. eigenvalues --   -0.48716  -0.48646  -0.48408  -0.47793  -0.47743
 Alpha  occ. eigenvalues --   -0.47300  -0.47077  -0.46908  -0.46791  -0.46459
 Alpha  occ. eigenvalues --   -0.46232  -0.45706  -0.45682  -0.45508  -0.45376
 Alpha  occ. eigenvalues --   -0.45266  -0.45232  -0.44704  -0.44491  -0.44316
 Alpha  occ. eigenvalues --   -0.43752  -0.43178  -0.42882  -0.42397  -0.42205
 Alpha  occ. eigenvalues --   -0.41955  -0.41661  -0.41192  -0.39446  -0.39056
 Alpha  occ. eigenvalues --   -0.38095  -0.37166  -0.36409  -0.34966  -0.34434
 Alpha  occ. eigenvalues --   -0.33955  -0.32820  -0.31967  -0.31446  -0.26865
 Alpha  occ. eigenvalues --   -0.22131
 Alpha virt. eigenvalues --   -0.08669  -0.02306  -0.00454   0.01106   0.01242
 Alpha virt. eigenvalues --    0.02448   0.02784   0.03123   0.04408   0.05238
 Alpha virt. eigenvalues --    0.05340   0.06298   0.06528   0.07599   0.07900

 Mulliken charges:
               1
     1  Mg   0.426548
     2  C   -0.034111
     3  C   -0.100948
     4  C   -0.058607
     5  C   -0.045976
     6  N   -0.281488
     7  C    0.096379
     8  C    0.008325
     9  C    0.012627
    10  C    0.163324
    11  C   -0.056088
    12  C   -0.020160
    13  C    0.000723
    14  C    0.477373
    15  O   -0.503014
    16  O   -0.271098
    17  N   -0.336038
    18  C    0.139128
    19  C    0.020583
    20  C   -0.034537
    21  C    0.138467
    22  C   -0.043812
    23  C    0.335934
    24  O   -0.501596
    25  C   -0.030783
    26  N   -0.268782
    27  C    0.172608
    28  C    0.010276
    29  C    0.004328
    30  C    0.068512
    31  C   -0.049695
    32  C   -0.021262
    33  C   -0.053616
    34  N   -0.330494
    35  C    0.060467
    36  C    0.013258
    37  C   -0.048405
    38  C    0.096438
    39  C   -0.038524
    40  C    0.338902
    41  O   -0.507522
    42  C    0.057732
    43  C    0.480157
    44  O   -0.526442
    45  O   -0.271222
    46  C    0.072987
    47  C    0.094867
    48  C   -0.074218
    49  C   -0.006908
    50  C   -0.051698
    51  C   -0.025649
    52  C   -0.032673
    53  C   -0.027563
    54  C   -0.021541
    55  C   -0.063677
    56  C   -0.034975
    57  C   -0.023177
    58  C   -0.040156
    59  C   -0.011501
    60  C   -0.063476
    61  C   -0.032217
    62  C   -0.041114
    63  C   -0.032624
    64  C   -0.008031
    65  C   -0.051446
    66  C   -0.077957
    67  H    0.028375
    68  H    0.027554
    69  H    0.032491
    70  H    0.038600
    71  H    0.021950
    72  H    0.024715
    73  H    0.020062
    74  H    0.021144
    75  H    0.021034
    76  H    0.024259
    77  H    0.035133
    78  H    0.028697
    79  H    0.030161
    80  H    0.036443
    81  H    0.027828
    82  H    0.047021
    83  H    0.030348
    84  H    0.042567
    85  H    0.040407
    86  H    0.033596
    87  H    0.023642
    88  H    0.027573
    89  H    0.027673
    90  H    0.008852
    91  H    0.014510
    92  H    0.030620
    93  H    0.015411
    94  H    0.020044
    95  H    0.024443
    96  H    0.034795
    97  H    0.035824
    98  H    0.048650
    99  H    0.054701
   100  H    0.034740
   101  H    0.033567
   102  H    0.056499
   103  H    0.048781
   104  H    0.022758
   105  H    0.034041
   106  H    0.016674
   107  H    0.028752
   108  H    0.011870
   109  H    0.019461
   110  H    0.012875
   111  H    0.024465
   112  H    0.019330
   113  H    0.022525
   114  H    0.026443
   115  H    0.020815
   116  H    0.017748
   117  H    0.018653
   118  H    0.011386
   119  H    0.025371
   120  H    0.012842
   121  H    0.024442
   122  H    0.006500
   123  H    0.014555
   124  H    0.018550
   125  H    0.012354
   126  H    0.030006
   127  H    0.021114
   128  H    0.008635
   129  H    0.023472
   130  H    0.019778
   131  H    0.025480
   132  H    0.010775
   133  H    0.026546
   134  H    0.026537
   135  H    0.023954
   136  H    0.008220
   137  H    0.010984
   138  H    0.016922
   139  H    0.011250
   140  H    0.026089
 Sum of Mulliken charges =  -0.00000

 Dipole moment (field-independent basis, Debye):
    X=             -3.3658    Y=              9.3159    Z=             -2.2655  Tot=             10.1611
 N-N= 4.258114994714D+03 E-N= 0.000000000000D+00  KE=-9.190263840002D+03
 Leave Link  601 at Fri Apr 29 13:12:16 2022, MaxMem=  6710886400 cpu:               0.8 elap:               0.0
 (Enter /sw/apps/gaussian-16.0/g16/l9999.exe)
 1\1\GINC-BP1-COMPUTE163\SP\RZINDO CIS\STO-3G\C55H74Mg1N4O6\OF15641\29-
 Apr-2022\0\\#p ZINDO=(nstates=5)\\step_301_chromophore_16 ZINDO\\0,1\M
 g,0,40.425,41.252,27.276\C,0,39.819,43.645,30.001\C,0,41.451,39.058,29
 .792\C,0,41.161,39.302,24.915\C,0,39.494,43.873,25.015\N,0,40.534,41.3
 47,29.581\C,0,40.227,42.371,30.424\C,0,40.288,41.961,31.929\C,0,41.049
 ,40.647,31.767\C,0,41.062,40.311,30.266\C,0,42.472,40.61,32.45\C,0,38.
 911,41.886,32.613\C,0,38.805,41.379,34.095\C,0,38.159,42.287,35.097\O,

 Normal termination of Gaussian 16 at Fri Apr 29 13:12:17 2022.
