 Gaussian 16, Revision A.03,
 Gaussian 16:  ES64L-G16RevA.03 25-Dec-2016

 ------------------------------
 #p blyp/Def2SVP td=(nstates=5)
 ------------------------------

 -------------------------------------------------
 step_251_chromophore_8 TDDFT with blyp functional
 -------------------------------------------------
 Symbolic Z-matrix:
 Charge =  0 Multiplicity = 1

                         Standard orientation:
 ---------------------------------------------------------------------
 Center     Atomic      Atomic             Coordinates (Angstroms)
 Number     Number       Type             X           Y           Z
 ---------------------------------------------------------------------
      1         12           0       -4.574702   -0.634402    0.232506
      2          6           0       -3.292721    2.352964    1.357689
      3          6           0       -4.241705    0.331812   -3.035973
      4          6           0       -5.699181   -3.757087   -0.888117
      5          6           0       -4.162417   -2.017227    3.370024
      6          7           0       -3.628551    1.099983   -0.660800
      7          6           0       -3.317785    2.317650   -0.049407
      8          6           0       -2.814877    3.343347   -1.068378
      9          6           0       -3.323360    2.675918   -2.371452
     10          6           0       -3.693822    1.214715   -2.044694
     11          6           0       -4.421774    3.495449   -3.083449
     12          6           0       -1.284693    3.521208   -1.011248
     13          6           0       -0.738143    4.986309   -1.123068
     14          6           0        0.584434    5.142302   -1.766014
     15          8           0        0.922992    5.953492   -2.606110
     16          8           0        1.464710    4.287585   -1.241248
     17          7           0       -4.958684   -1.524268   -1.655190
     18          6           0       -4.847530   -0.940738   -2.870492
     19          6           0       -5.449397   -1.710894   -3.917403
     20          6           0       -6.006729   -2.847702   -3.309239
     21          6           0       -5.583467   -2.740963   -1.851711
     22          6           0       -5.582186   -1.242905   -5.368051
     23          6           0       -6.816176   -3.998125   -4.010361
     24          8           0       -6.929849   -3.971259   -5.262582
     25          6           0       -7.573340   -5.151839   -3.222151
     26          7           0       -4.603566   -2.695272    1.056379
     27          6           0       -5.236596   -3.726657    0.446274
     28          6           0       -5.469595   -4.898890    1.364493
     29          6           0       -4.942794   -4.389429    2.723429
     30          6           0       -4.580030   -2.938857    2.395359
     31          6           0       -6.939045   -5.436444    1.378423
     32          6           0       -3.779740   -5.306420    3.335886
     33          6           0       -4.214763   -6.193351    4.508250
     34          7           0       -3.931566    0.010337    2.032333
     35          6           0       -3.830366   -0.636955    3.283465
     36          6           0       -3.547705    0.361190    4.323346
     37          6           0       -3.410692    1.538564    3.601293
     38          6           0       -3.529827    1.224574    2.237438
     39          6           0       -3.399873    0.198745    5.793855
     40          6           0       -3.117025    2.972460    3.736169
     41          8           0       -3.090336    3.721780    4.726349
     42          6           0       -3.071591    3.576301    2.275414
     43          6           0       -4.139837    4.644313    2.082783
     44          8           0       -5.326174    4.594491    2.422647
     45          8           0       -3.455812    5.678582    1.516317
     46          6           0       -4.178735    6.930560    1.367757
     47          6           0        2.896396    4.398351   -1.640369
     48          6           0        3.669244    3.061642   -1.631029
     49          6           0        4.816977    2.771085   -0.937356
     50          6           0        5.745246    3.869592   -0.331428
     51          6           0        5.204213    1.338236   -0.643105
     52          6           0        5.491571    0.466963   -1.852299
     53          6           0        4.830850   -0.907003   -1.773922
     54          6           0        5.909544   -2.048414   -2.000730
     55          6           0        5.148866   -3.381918   -2.448877
     56          6           0        6.690453   -2.324328   -0.693039
     57          6           0        8.182877   -1.853914   -0.827528
     58          6           0        8.624548   -0.805501    0.174579
     59          6           0       10.019509   -1.003131    0.736224
     60          6           0        9.915027   -1.077030    2.321219
     61          6           0       11.160402   -0.012541    0.269700
     62          6           0       12.125604   -0.764293   -0.629998
     63          6           0       13.511675   -0.952429    0.093661
     64          6           0       13.661561   -2.520284    0.547613
     65          6           0       15.110921   -2.986541    0.368875
     66          6           0       13.218536   -2.680459    2.055970
     67          1           0       -4.146080    0.630539   -4.081865
     68          1           0       -6.123395   -4.741611   -1.096251
     69          1           0       -4.019805   -2.388208    4.386955
     70          1           0       -3.267710    4.313945   -0.863227
     71          1           0       -2.443185    2.683825   -3.014287
     72          1           0       -4.518320    4.560672   -2.873609
     73          1           0       -5.366463    3.071214   -2.743654
     74          1           0       -4.348508    3.427276   -4.168593
     75          1           0       -0.757983    2.889188   -1.725734
     76          1           0       -0.982989    3.040104   -0.080552
     77          1           0       -0.685096    5.420439   -0.124698
     78          1           0       -1.420013    5.560601   -1.751793
     79          1           0       -6.649034   -1.275002   -5.588037
     80          1           0       -4.873492   -1.784133   -5.995009
     81          1           0       -5.312486   -0.187325   -5.335902
     82          1           0       -6.828277   -5.922812   -3.029255
     83          1           0       -8.334575   -5.532924   -3.902482
     84          1           0       -8.118595   -4.661531   -2.415226
     85          1           0       -4.849440   -5.724943    1.016195
     86          1           0       -5.689201   -4.213452    3.497679
     87          1           0       -7.292351   -5.611727    2.394197
     88          1           0       -7.049945   -6.368667    0.824862
     89          1           0       -7.576469   -4.740317    0.834828
     90          1           0       -2.961546   -4.718756    3.751989
     91          1           0       -3.312883   -5.893899    2.545383
     92          1           0       -3.728827   -7.166245    4.432378
     93          1           0       -5.295461   -6.331574    4.483299
     94          1           0       -3.979690   -5.778132    5.488095
     95          1           0       -3.650612   -0.834536    6.033859
     96          1           0       -3.894199    1.021637    6.310560
     97          1           0       -2.329035    0.254189    5.992557
     98          1           0       -2.089314    3.975217    2.020842
     99          1           0       -5.192263    6.813021    0.982189
    100          1           0       -3.707897    7.706671    0.764411
    101          1           0       -4.266010    7.420507    2.337856
    102          1           0        3.482940    5.014192   -0.957549
    103          1           0        2.857224    4.942583   -2.584204
    104          1           0        2.966333    2.243422   -1.783776
    105          1           0        5.937250    3.675453    0.722709
    106          1           0        5.431452    4.895385   -0.526667
    107          1           0        6.643387    3.877126   -0.948609
    108          1           0        4.357591    0.931210   -0.091308
    109          1           0        6.147605    1.288818   -0.098344
    110          1           0        6.576314    0.370613   -1.894045
    111          1           0        5.213049    0.914583   -2.806265
    112          1           0        4.061912   -0.961609   -2.545277
    113          1           0        4.269603   -1.102970   -0.860511
    114          1           0        6.576850   -1.715855   -2.794881
    115          1           0        5.491471   -3.752264   -3.415258
    116          1           0        4.089049   -3.284139   -2.682426
    117          1           0        5.210124   -4.177143   -1.706935
    118          1           0        6.736887   -3.376861   -0.413510
    119          1           0        6.119969   -1.890320    0.128164
    120          1           0        8.335782   -1.477612   -1.838851
    121          1           0        8.853826   -2.711405   -0.767820
    122          1           0        7.872984   -0.768544    0.963754
    123          1           0        8.537954    0.014859   -0.536975
    124          1           0       10.382342   -1.973045    0.396595
    125          1           0        8.938771   -0.731546    2.659796
    126          1           0       10.653268   -0.379199    2.717030
    127          1           0       10.119898   -2.064384    2.735967
    128          1           0       11.700828    0.473799    1.082691
    129          1           0       10.868116    0.850876   -0.328404
    130          1           0       12.389412   -0.277417   -1.569100
    131          1           0       11.758829   -1.730222   -0.975267
    132          1           0       13.755917   -0.163049    0.804248
    133          1           0       14.305120   -0.868362   -0.649763
    134          1           0       13.045081   -3.154300   -0.089716
    135          1           0       15.080638   -3.790902   -0.366054
    136          1           0       15.527359   -3.354723    1.305878
    137          1           0       15.767594   -2.203868   -0.010648
    138          1           0       14.013247   -2.884439    2.773597
    139          1           0       12.498114   -3.498543    2.018634
    140          1           0       12.870191   -1.745312    2.493238
 ---------------------------------------------------------------------

 SCF Done:  E(RB-LYP) =  -3007.35473549     A.U. after   21 cycles

 Excitation energies and oscillator strengths:

 Excited State   1:      Singlet-A      1.7767 eV  697.83 nm  f=0.2723  <S**2>=0.000
     245 -> 248        0.17881
     246 -> 247        0.68429
     246 <- 247       -0.14521
 This state for optimization and/or second-order correction.
 Total Energy, E(TD-HF/TD-DFT) =  -3007.28944237
 Copying the excited state density for this state as the 1-particle RhoCI density.

 Excited State   2:      Singlet-A      1.9061 eV  650.46 nm  f=0.0225  <S**2>=0.000
     243 -> 247        0.13895
     244 -> 247        0.59741
     245 -> 247       -0.32669

 Excited State   3:      Singlet-A      1.9533 eV  634.75 nm  f=0.0023  <S**2>=0.000
     243 -> 247        0.65036
     244 -> 247       -0.23433
     245 -> 247       -0.13556

 Excited State   4:      Singlet-A      2.0361 eV  608.94 nm  f=0.0669  <S**2>=0.000
     243 -> 247        0.23540
     244 -> 247        0.28505
     245 -> 247        0.53794
     246 -> 248       -0.22606
     246 -> 249        0.10877

 Excited State   5:      Singlet-A      2.1939 eV  565.14 nm  f=0.0008  <S**2>=0.000
     242 -> 247        0.70529

 The electronic state is 1-A.
 Alpha  occ. eigenvalues --  -46.27672 -18.83565 -18.81624 -18.77393 -18.76124
 Alpha  occ. eigenvalues --  -18.75908 -18.75607 -14.03620 -14.03327 -14.01578
 Alpha  occ. eigenvalues --  -14.00957 -10.04666 -10.03495 -10.01045  -9.99701
 Alpha  occ. eigenvalues --   -9.98116  -9.97500  -9.97396  -9.96868  -9.96723
 Alpha  occ. eigenvalues --   -9.96555  -9.96513  -9.95972  -9.95660  -9.94596
 Alpha  occ. eigenvalues --   -9.94258  -9.94249  -9.94116  -9.93945  -9.93876
 Alpha  occ. eigenvalues --   -9.93828  -9.93779  -9.93767  -9.93694  -9.93569
 Alpha  occ. eigenvalues --   -9.93503  -9.93470  -9.93338  -9.93255  -9.93067
 Alpha  occ. eigenvalues --   -9.93063  -9.93040  -9.92970  -9.92779  -9.92614
 Alpha  occ. eigenvalues --   -9.92446  -9.92370  -9.92281  -9.92271  -9.92204
 Alpha  occ. eigenvalues --   -9.92036  -9.92022  -9.91928  -9.91299  -9.91243
 Alpha  occ. eigenvalues --   -9.91210  -9.91202  -9.91039  -9.90976  -9.90911
 Alpha  occ. eigenvalues --   -9.90858  -9.90734  -9.90717  -9.90667  -9.90664
 Alpha  occ. eigenvalues --   -9.90350  -2.92303  -1.72693  -1.72184  -1.72039
 Alpha  occ. eigenvalues --   -0.98509  -0.98399  -0.90434  -0.89985  -0.89872
 Alpha  occ. eigenvalues --   -0.89209  -0.87176  -0.86503  -0.85742  -0.84656
 Alpha  occ. eigenvalues --   -0.74601  -0.73694  -0.72989  -0.72718  -0.72337
 Alpha  occ. eigenvalues --   -0.72089  -0.71394  -0.70983  -0.70449  -0.70187
 Alpha  occ. eigenvalues --   -0.69687  -0.69317  -0.68027  -0.67901  -0.67453
 Alpha  occ. eigenvalues --   -0.66556  -0.66125  -0.65221  -0.64858  -0.64400
 Alpha  occ. eigenvalues --   -0.63875  -0.62793  -0.62413  -0.61577  -0.60744
 Alpha  occ. eigenvalues --   -0.60430  -0.60228  -0.59768  -0.59237  -0.58699
 Alpha  occ. eigenvalues --   -0.58066  -0.57664  -0.56863  -0.56036  -0.54721
 Alpha  occ. eigenvalues --   -0.53992  -0.53412  -0.52768  -0.52124  -0.52107
 Alpha  occ. eigenvalues --   -0.51273  -0.51234  -0.51015  -0.50543  -0.50420
 Alpha  occ. eigenvalues --   -0.50303  -0.49368  -0.49105  -0.49099  -0.46473
 Alpha  occ. eigenvalues --   -0.46209  -0.45992  -0.45664  -0.45228  -0.44348
 Alpha  occ. eigenvalues --   -0.43883  -0.43569  -0.42848  -0.42772  -0.42354
 Alpha  occ. eigenvalues --   -0.42127  -0.41977  -0.41824  -0.41258  -0.41072
 Alpha  occ. eigenvalues --   -0.41022  -0.40521  -0.40198  -0.40159  -0.40126
 Alpha  occ. eigenvalues --   -0.39930  -0.39611  -0.39227  -0.38996  -0.38964
 Alpha  occ. eigenvalues --   -0.38718  -0.38565  -0.38517  -0.38404  -0.38313
 Alpha  occ. eigenvalues --   -0.37946  -0.37830  -0.37684  -0.37580  -0.37262
 Alpha  occ. eigenvalues --   -0.37074  -0.36877  -0.36645  -0.36296  -0.36254
 Alpha  occ. eigenvalues --   -0.35938  -0.35770  -0.35646  -0.35621  -0.35519
 Alpha  occ. eigenvalues --   -0.35429  -0.35258  -0.35250  -0.35032  -0.35012
 Alpha  occ. eigenvalues --   -0.34678  -0.34450  -0.34352  -0.34318  -0.34142
 Alpha  occ. eigenvalues --   -0.34022  -0.33511  -0.33481  -0.33373  -0.33304
 Alpha  occ. eigenvalues --   -0.33054  -0.32693  -0.32516  -0.32372  -0.32223
 Alpha  occ. eigenvalues --   -0.32070  -0.31876  -0.31837  -0.31659  -0.31477
 Alpha  occ. eigenvalues --   -0.31418  -0.31094  -0.31081  -0.30794  -0.30607
 Alpha  occ. eigenvalues --   -0.30489  -0.30396  -0.30213  -0.30011  -0.29986
 Alpha  occ. eigenvalues --   -0.29808  -0.29637  -0.29630  -0.29454  -0.28886
 Alpha  occ. eigenvalues --   -0.28760  -0.28684  -0.28474  -0.28306  -0.28148
 Alpha  occ. eigenvalues --   -0.27794  -0.27569  -0.27112  -0.26987  -0.26566
 Alpha  occ. eigenvalues --   -0.26468  -0.25900  -0.25654  -0.25618  -0.25135
 Alpha  occ. eigenvalues --   -0.24999  -0.24497  -0.24048  -0.23945  -0.23919
 Alpha  occ. eigenvalues --   -0.23230  -0.22852  -0.21970  -0.21744  -0.21060
 Alpha  occ. eigenvalues --   -0.20794  -0.19712  -0.18755  -0.18633  -0.17428
 Alpha  occ. eigenvalues --   -0.15899
 Alpha virt. eigenvalues --   -0.11656  -0.07286  -0.06332  -0.05133  -0.03514
 Alpha virt. eigenvalues --   -0.03221  -0.03013  -0.02329  -0.01776  -0.00218
 Alpha virt. eigenvalues --    0.00813   0.01751   0.02041   0.02342   0.02403

 Mulliken charges:
               1
     1  Mg   0.705009
     2  C   -0.042845
     3  C   -0.078756
     4  C   -0.051514
     5  C   -0.072849
     6  N   -0.265170
     7  C   -0.093727
     8  C    0.040382
     9  C    0.025611
    10  C    0.072427
    11  C    0.118279
    12  C    0.117495
    13  C    0.167829
    14  C    0.021904
    15  O   -0.181162
    16  O   -0.269944
    17  N   -0.259029
    18  C    0.129040
    19  C   -0.172789
    20  C    0.019598
    21  C    0.146026
    22  C    0.217127
    23  C   -0.075182
    24  O   -0.192902
    25  C    0.132759
    26  N   -0.190875
    27  C   -0.034957
    28  C    0.040381
    29  C    0.051598
    30  C    0.001663
    31  C    0.115497
    32  C    0.094404
    33  C    0.055984
    34  N   -0.259488
    35  C    0.097129
    36  C   -0.193245
    37  C    0.082056
    38  C    0.084646
    39  C    0.202717
    40  C   -0.020550
    41  O   -0.154049
    42  C    0.076087
    43  C    0.137793
    44  O   -0.177590
    45  O   -0.262657
    46  C    0.215767
    47  C    0.288093
    48  C   -0.071132
    49  C   -0.174294
    50  C    0.132128
    51  C    0.147908
    52  C    0.087415
    53  C    0.079488
    54  C   -0.088827
    55  C    0.094449
    56  C    0.124110
    57  C    0.022507
    58  C    0.123791
    59  C   -0.061029
    60  C    0.090816
    61  C    0.145093
    62  C    0.050247
    63  C    0.073209
    64  C   -0.119248
    65  C    0.119634
    66  C    0.095377
    67  H   -0.051122
    68  H   -0.080364
    69  H   -0.069668
    70  H   -0.030624
    71  H   -0.031186
    72  H   -0.009585
    73  H   -0.012404
    74  H   -0.005175
    75  H   -0.022305
    76  H   -0.023462
    77  H    0.022258
    78  H   -0.011097
    79  H    0.014409
    80  H    0.019348
    81  H   -0.036248
    82  H    0.032202
    83  H   -0.004388
    84  H    0.013087
    85  H   -0.015177
    86  H   -0.026280
    87  H   -0.000404
    88  H   -0.011796
    89  H   -0.006717
    90  H   -0.022028
    91  H   -0.023182
    92  H   -0.007490
    93  H   -0.011390
    94  H   -0.003036
    95  H   -0.023567
    96  H    0.027422
    97  H    0.000742
    98  H   -0.009256
    99  H    0.013927
   100  H    0.012575
   101  H    0.012347
   102  H   -0.013571
   103  H    0.006680
   104  H   -0.036900
   105  H    0.017527
   106  H   -0.020563
   107  H   -0.001747
   108  H   -0.003203
   109  H   -0.032467
   110  H   -0.035400
   111  H   -0.022147
   112  H   -0.034324
   113  H   -0.030267
   114  H   -0.023917
   115  H   -0.022407
   116  H   -0.029967
   117  H   -0.016485
   118  H   -0.030051
   119  H   -0.031857
   120  H   -0.032782
   121  H   -0.042783
   122  H   -0.016683
   123  H   -0.023161
   124  H   -0.023453
   125  H   -0.023536
   126  H   -0.020766
   127  H   -0.004499
   128  H   -0.038287
   129  H   -0.042695
   130  H   -0.043285
   131  H   -0.032141
   132  H   -0.022746
   133  H   -0.048691
   134  H   -0.027264
   135  H   -0.020036
   136  H   -0.019947
   137  H   -0.015819
   138  H   -0.024134
   139  H   -0.000554
   140  H   -0.015700
 Sum of Mulliken charges =  -0.00000

 Dipole moment (field-independent basis, Debye):
    X=              1.6696    Y=             -3.5545    Z=              1.2561  Tot=              4.1231
 Quadrupole moment (field-independent basis, Debye-Ang):
   XX=           -392.6297   YY=           -395.9717   ZZ=           -439.8798
   XY=             11.5151   XZ=             -7.1238   YZ=            -29.2170

 Normal termination of Gaussian 16 at Fri Apr 29 11:55:17 2022.
