 Gaussian 16, Revision A.03,
 Gaussian 16:  ES64L-G16RevA.03 25-Dec-2016

 -----------------------------------
 #p cam-b3lyp/Def2SVP td=(nstates=5)
 -----------------------------------

 ------------------------------------------------------
 step_251_chromophore_8 TDDFT with cam-b3lyp functional
 ------------------------------------------------------
 Symbolic Z-matrix:
 Charge =  0 Multiplicity = 1

                         Standard orientation:
 ---------------------------------------------------------------------
 Center     Atomic      Atomic             Coordinates (Angstroms)
 Number     Number       Type             X           Y           Z
 ---------------------------------------------------------------------
      1         12           0       -4.574702   -0.634402    0.232506
      2          6           0       -3.292721    2.352964    1.357689
      3          6           0       -4.241705    0.331812   -3.035973
      4          6           0       -5.699181   -3.757087   -0.888117
      5          6           0       -4.162417   -2.017227    3.370024
      6          7           0       -3.628551    1.099983   -0.660800
      7          6           0       -3.317785    2.317650   -0.049407
      8          6           0       -2.814877    3.343347   -1.068378
      9          6           0       -3.323360    2.675918   -2.371452
     10          6           0       -3.693822    1.214715   -2.044694
     11          6           0       -4.421774    3.495449   -3.083449
     12          6           0       -1.284693    3.521208   -1.011248
     13          6           0       -0.738143    4.986309   -1.123068
     14          6           0        0.584434    5.142302   -1.766014
     15          8           0        0.922992    5.953492   -2.606110
     16          8           0        1.464710    4.287585   -1.241248
     17          7           0       -4.958684   -1.524268   -1.655190
     18          6           0       -4.847530   -0.940738   -2.870492
     19          6           0       -5.449397   -1.710894   -3.917403
     20          6           0       -6.006729   -2.847702   -3.309239
     21          6           0       -5.583467   -2.740963   -1.851711
     22          6           0       -5.582186   -1.242905   -5.368051
     23          6           0       -6.816176   -3.998125   -4.010361
     24          8           0       -6.929849   -3.971259   -5.262582
     25          6           0       -7.573340   -5.151839   -3.222151
     26          7           0       -4.603566   -2.695272    1.056379
     27          6           0       -5.236596   -3.726657    0.446274
     28          6           0       -5.469595   -4.898890    1.364493
     29          6           0       -4.942794   -4.389429    2.723429
     30          6           0       -4.580030   -2.938857    2.395359
     31          6           0       -6.939045   -5.436444    1.378423
     32          6           0       -3.779740   -5.306420    3.335886
     33          6           0       -4.214763   -6.193351    4.508250
     34          7           0       -3.931566    0.010337    2.032333
     35          6           0       -3.830366   -0.636955    3.283465
     36          6           0       -3.547705    0.361190    4.323346
     37          6           0       -3.410692    1.538564    3.601293
     38          6           0       -3.529827    1.224574    2.237438
     39          6           0       -3.399873    0.198745    5.793855
     40          6           0       -3.117025    2.972460    3.736169
     41          8           0       -3.090336    3.721780    4.726349
     42          6           0       -3.071591    3.576301    2.275414
     43          6           0       -4.139837    4.644313    2.082783
     44          8           0       -5.326174    4.594491    2.422647
     45          8           0       -3.455812    5.678582    1.516317
     46          6           0       -4.178735    6.930560    1.367757
     47          6           0        2.896396    4.398351   -1.640369
     48          6           0        3.669244    3.061642   -1.631029
     49          6           0        4.816977    2.771085   -0.937356
     50          6           0        5.745246    3.869592   -0.331428
     51          6           0        5.204213    1.338236   -0.643105
     52          6           0        5.491571    0.466963   -1.852299
     53          6           0        4.830850   -0.907003   -1.773922
     54          6           0        5.909544   -2.048414   -2.000730
     55          6           0        5.148866   -3.381918   -2.448877
     56          6           0        6.690453   -2.324328   -0.693039
     57          6           0        8.182877   -1.853914   -0.827528
     58          6           0        8.624548   -0.805501    0.174579
     59          6           0       10.019509   -1.003131    0.736224
     60          6           0        9.915027   -1.077030    2.321219
     61          6           0       11.160402   -0.012541    0.269700
     62          6           0       12.125604   -0.764293   -0.629998
     63          6           0       13.511675   -0.952429    0.093661
     64          6           0       13.661561   -2.520284    0.547613
     65          6           0       15.110921   -2.986541    0.368875
     66          6           0       13.218536   -2.680459    2.055970
     67          1           0       -4.146080    0.630539   -4.081865
     68          1           0       -6.123395   -4.741611   -1.096251
     69          1           0       -4.019805   -2.388208    4.386955
     70          1           0       -3.267710    4.313945   -0.863227
     71          1           0       -2.443185    2.683825   -3.014287
     72          1           0       -4.518320    4.560672   -2.873609
     73          1           0       -5.366463    3.071214   -2.743654
     74          1           0       -4.348508    3.427276   -4.168593
     75          1           0       -0.757983    2.889188   -1.725734
     76          1           0       -0.982989    3.040104   -0.080552
     77          1           0       -0.685096    5.420439   -0.124698
     78          1           0       -1.420013    5.560601   -1.751793
     79          1           0       -6.649034   -1.275002   -5.588037
     80          1           0       -4.873492   -1.784133   -5.995009
     81          1           0       -5.312486   -0.187325   -5.335902
     82          1           0       -6.828277   -5.922812   -3.029255
     83          1           0       -8.334575   -5.532924   -3.902482
     84          1           0       -8.118595   -4.661531   -2.415226
     85          1           0       -4.849440   -5.724943    1.016195
     86          1           0       -5.689201   -4.213452    3.497679
     87          1           0       -7.292351   -5.611727    2.394197
     88          1           0       -7.049945   -6.368667    0.824862
     89          1           0       -7.576469   -4.740317    0.834828
     90          1           0       -2.961546   -4.718756    3.751989
     91          1           0       -3.312883   -5.893899    2.545383
     92          1           0       -3.728827   -7.166245    4.432378
     93          1           0       -5.295461   -6.331574    4.483299
     94          1           0       -3.979690   -5.778132    5.488095
     95          1           0       -3.650612   -0.834536    6.033859
     96          1           0       -3.894199    1.021637    6.310560
     97          1           0       -2.329035    0.254189    5.992557
     98          1           0       -2.089314    3.975217    2.020842
     99          1           0       -5.192263    6.813021    0.982189
    100          1           0       -3.707897    7.706671    0.764411
    101          1           0       -4.266010    7.420507    2.337856
    102          1           0        3.482940    5.014192   -0.957549
    103          1           0        2.857224    4.942583   -2.584204
    104          1           0        2.966333    2.243422   -1.783776
    105          1           0        5.937250    3.675453    0.722709
    106          1           0        5.431452    4.895385   -0.526667
    107          1           0        6.643387    3.877126   -0.948609
    108          1           0        4.357591    0.931210   -0.091308
    109          1           0        6.147605    1.288818   -0.098344
    110          1           0        6.576314    0.370613   -1.894045
    111          1           0        5.213049    0.914583   -2.806265
    112          1           0        4.061912   -0.961609   -2.545277
    113          1           0        4.269603   -1.102970   -0.860511
    114          1           0        6.576850   -1.715855   -2.794881
    115          1           0        5.491471   -3.752264   -3.415258
    116          1           0        4.089049   -3.284139   -2.682426
    117          1           0        5.210124   -4.177143   -1.706935
    118          1           0        6.736887   -3.376861   -0.413510
    119          1           0        6.119969   -1.890320    0.128164
    120          1           0        8.335782   -1.477612   -1.838851
    121          1           0        8.853826   -2.711405   -0.767820
    122          1           0        7.872984   -0.768544    0.963754
    123          1           0        8.537954    0.014859   -0.536975
    124          1           0       10.382342   -1.973045    0.396595
    125          1           0        8.938771   -0.731546    2.659796
    126          1           0       10.653268   -0.379199    2.717030
    127          1           0       10.119898   -2.064384    2.735967
    128          1           0       11.700828    0.473799    1.082691
    129          1           0       10.868116    0.850876   -0.328404
    130          1           0       12.389412   -0.277417   -1.569100
    131          1           0       11.758829   -1.730222   -0.975267
    132          1           0       13.755917   -0.163049    0.804248
    133          1           0       14.305120   -0.868362   -0.649763
    134          1           0       13.045081   -3.154300   -0.089716
    135          1           0       15.080638   -3.790902   -0.366054
    136          1           0       15.527359   -3.354723    1.305878
    137          1           0       15.767594   -2.203868   -0.010648
    138          1           0       14.013247   -2.884439    2.773597
    139          1           0       12.498114   -3.498543    2.018634
    140          1           0       12.870191   -1.745312    2.493238
 ---------------------------------------------------------------------

 SCF Done:  E(RCAM-B3LYP) =  -3007.13865038     A.U. after   19 cycles

 Excitation energies and oscillator strengths:

 Excited State   1:      Singlet-A      1.7104 eV  724.86 nm  f=0.3533  <S**2>=0.000
     245 -> 248        0.17476
     246 -> 247        0.68607
     245 <- 248        0.10522
 This state for optimization and/or second-order correction.
 Total Energy, E(TD-HF/TD-DFT) =  -3007.07579266
 Copying the excited state density for this state as the 1-particle RhoCI density.

 Excited State   2:      Singlet-A      2.2483 eV  551.46 nm  f=0.0918  <S**2>=0.000
     245 -> 247        0.62524
     246 -> 248       -0.31603

 Excited State   3:      Singlet-A      3.4315 eV  361.31 nm  f=0.1180  <S**2>=0.000
     239 -> 249        0.14656
     239 -> 251       -0.11186
     240 -> 247       -0.25907
     240 -> 249        0.18341
     240 -> 251       -0.11255
     241 -> 247        0.42196
     241 -> 249       -0.11697
     245 -> 247        0.12281
     246 -> 248        0.30351

 Excited State   4:      Singlet-A      3.4828 eV  355.98 nm  f=0.3264  <S**2>=0.000
     239 -> 247        0.10301
     242 -> 247        0.23858
     242 -> 249        0.11145
     242 -> 251        0.13832
     243 -> 247        0.33266
     245 -> 247        0.21150
     246 -> 248        0.42337

 Excited State   5:      Singlet-A      3.5462 eV  349.62 nm  f=0.2155  <S**2>=0.000
     239 -> 247       -0.24318
     239 -> 249        0.11775
     240 -> 247       -0.16064
     240 -> 249        0.12887
     242 -> 247        0.28365
     242 -> 249        0.15573
     242 -> 251        0.15307
     243 -> 247        0.31650
     245 -> 247       -0.14980
     246 -> 248       -0.28776

 The electronic state is 1-A.
 Alpha  occ. eigenvalues --  -46.89250 -19.26458 -19.24425 -19.20343 -19.19733
 Alpha  occ. eigenvalues --  -19.18757 -19.18522 -14.42494 -14.42244 -14.40298
 Alpha  occ. eigenvalues --  -14.39186 -10.40039 -10.38592 -10.36725 -10.34832
 Alpha  occ. eigenvalues --  -10.32286 -10.32070 -10.31669 -10.31627 -10.31263
 Alpha  occ. eigenvalues --  -10.31188 -10.30548 -10.30475 -10.29743 -10.28556
 Alpha  occ. eigenvalues --  -10.28555 -10.28414 -10.28225 -10.28159 -10.28113
 Alpha  occ. eigenvalues --  -10.28097 -10.28087 -10.28079 -10.27818 -10.27809
 Alpha  occ. eigenvalues --  -10.27679 -10.27534 -10.27516 -10.27365 -10.27081
 Alpha  occ. eigenvalues --  -10.27058 -10.26985 -10.26794 -10.26470 -10.26308
 Alpha  occ. eigenvalues --  -10.26209 -10.26153 -10.26059 -10.26040 -10.25892
 Alpha  occ. eigenvalues --  -10.25828 -10.25758 -10.25689 -10.24930 -10.24915
 Alpha  occ. eigenvalues --  -10.24888 -10.24863 -10.24670 -10.24661 -10.24554
 Alpha  occ. eigenvalues --  -10.24484 -10.24325 -10.24315 -10.24274 -10.24239
 Alpha  occ. eigenvalues --  -10.23918  -3.17782  -1.92648  -1.92225  -1.92112
 Alpha  occ. eigenvalues --   -1.16921  -1.16823  -1.08665  -1.08437  -1.07829
 Alpha  occ. eigenvalues --   -1.06969  -1.04748  -1.04077  -1.03594  -1.02248
 Alpha  occ. eigenvalues --   -0.91515  -0.90548  -0.89726  -0.89448  -0.88944
 Alpha  occ. eigenvalues --   -0.88907  -0.88039  -0.87397  -0.87052  -0.86683
 Alpha  occ. eigenvalues --   -0.86464  -0.85718  -0.84238  -0.83971  -0.83620
 Alpha  occ. eigenvalues --   -0.82580  -0.82094  -0.81199  -0.81028  -0.80235
 Alpha  occ. eigenvalues --   -0.79616  -0.78324  -0.77926  -0.77395  -0.76154
 Alpha  occ. eigenvalues --   -0.75761  -0.75537  -0.75093  -0.74465  -0.73910
 Alpha  occ. eigenvalues --   -0.73049  -0.72603  -0.71805  -0.70873  -0.69217
 Alpha  occ. eigenvalues --   -0.68558  -0.67916  -0.67404  -0.66436  -0.66203
 Alpha  occ. eigenvalues --   -0.65430  -0.65219  -0.65095  -0.64650  -0.64490
 Alpha  occ. eigenvalues --   -0.64333  -0.63071  -0.63001  -0.62761  -0.60072
 Alpha  occ. eigenvalues --   -0.59798  -0.59517  -0.59030  -0.58691  -0.57827
 Alpha  occ. eigenvalues --   -0.57355  -0.56846  -0.56159  -0.55971  -0.55676
 Alpha  occ. eigenvalues --   -0.55417  -0.55038  -0.54687  -0.54109  -0.53800
 Alpha  occ. eigenvalues --   -0.53641  -0.53212  -0.52902  -0.52855  -0.52711
 Alpha  occ. eigenvalues --   -0.52683  -0.52322  -0.52013  -0.51571  -0.51361
 Alpha  occ. eigenvalues --   -0.51304  -0.51288  -0.51140  -0.50971  -0.50572
 Alpha  occ. eigenvalues --   -0.50256  -0.50139  -0.50006  -0.49918  -0.49478
 Alpha  occ. eigenvalues --   -0.49387  -0.49166  -0.49004  -0.48617  -0.48406
 Alpha  occ. eigenvalues --   -0.48301  -0.48107  -0.47791  -0.47755  -0.47589
 Alpha  occ. eigenvalues --   -0.47527  -0.47288  -0.47224  -0.47057  -0.46899
 Alpha  occ. eigenvalues --   -0.46816  -0.46448  -0.46256  -0.46121  -0.46098
 Alpha  occ. eigenvalues --   -0.45844  -0.45369  -0.45197  -0.45058  -0.44997
 Alpha  occ. eigenvalues --   -0.44760  -0.44479  -0.44093  -0.43980  -0.43820
 Alpha  occ. eigenvalues --   -0.43736  -0.43546  -0.43372  -0.43200  -0.42999
 Alpha  occ. eigenvalues --   -0.42845  -0.42541  -0.42480  -0.42351  -0.42240
 Alpha  occ. eigenvalues --   -0.42090  -0.41750  -0.41524  -0.41383  -0.41192
 Alpha  occ. eigenvalues --   -0.41093  -0.40852  -0.40708  -0.40664  -0.40080
 Alpha  occ. eigenvalues --   -0.39855  -0.39788  -0.39501  -0.39437  -0.39290
 Alpha  occ. eigenvalues --   -0.38706  -0.38576  -0.38249  -0.37976  -0.37519
 Alpha  occ. eigenvalues --   -0.37221  -0.37132  -0.36510  -0.36410  -0.36118
 Alpha  occ. eigenvalues --   -0.35672  -0.35077  -0.34999  -0.34898  -0.34337
 Alpha  occ. eigenvalues --   -0.33908  -0.33582  -0.33104  -0.31639  -0.31265
 Alpha  occ. eigenvalues --   -0.30563  -0.30530  -0.29910  -0.29445  -0.24280
 Alpha  occ. eigenvalues --   -0.21162
 Alpha virt. eigenvalues --   -0.08650  -0.02105   0.00102   0.01572   0.01915
 Alpha virt. eigenvalues --    0.04224   0.04879   0.04969   0.05909   0.06923
 Alpha virt. eigenvalues --    0.08071   0.08122   0.08462   0.08680   0.08772

 Mulliken charges:
               1
     1  Mg   0.836496
     2  C   -0.067523
     3  C   -0.099517
     4  C   -0.076329
     5  C   -0.074274
     6  N   -0.335202
     7  C   -0.051697
     8  C   -0.005738
     9  C   -0.037786
    10  C    0.099841
    11  C    0.060881
    12  C    0.063510
    13  C    0.094953
    14  C    0.107962
    15  O   -0.227358
    16  O   -0.333932
    17  N   -0.347291
    18  C    0.138458
    19  C   -0.175604
    20  C   -0.042793
    21  C    0.173987
    22  C    0.164787
    23  C    0.001303
    24  O   -0.229245
    25  C    0.054658
    26  N   -0.257204
    27  C   -0.006302
    28  C   -0.021972
    29  C   -0.004468
    30  C    0.016272
    31  C    0.057096
    32  C    0.038587
    33  C   -0.002776
    34  N   -0.349020
    35  C    0.091857
    36  C   -0.191352
    37  C    0.001148
    38  C    0.118528
    39  C    0.151233
    40  C    0.079194
    41  O   -0.194380
    42  C    0.004688
    43  C    0.225612
    44  O   -0.216419
    45  O   -0.327535
    46  C    0.173280
    47  C    0.259946
    48  C   -0.093786
    49  C   -0.191301
    50  C    0.068844
    51  C    0.089980
    52  C    0.032260
    53  C    0.028879
    54  C   -0.147243
    55  C    0.038516
    56  C    0.069394
    57  C   -0.028159
    58  C    0.073170
    59  C   -0.117323
    60  C    0.038139
    61  C    0.088735
    62  C   -0.004174
    63  C    0.018217
    64  C   -0.173932
    65  C    0.059281
    66  C    0.039241
    67  H   -0.016131
    68  H   -0.042325
    69  H   -0.036554
    70  H    0.004363
    71  H    0.005635
    72  H    0.016200
    73  H    0.013455
    74  H    0.018471
    75  H    0.008791
    76  H    0.010343
    77  H    0.051759
    78  H    0.020430
    79  H    0.042318
    80  H    0.047793
    81  H   -0.009383
    82  H    0.058727
    83  H    0.031909
    84  H    0.040121
    85  H    0.020154
    86  H    0.008980
    87  H    0.024728
    88  H    0.011901
    89  H    0.017735
    90  H    0.008039
    91  H    0.004570
    92  H    0.016475
    93  H    0.008873
    94  H    0.019606
    95  H   -0.000713
    96  H    0.052595
    97  H    0.026823
    98  H    0.033305
    99  H    0.038404
   100  H    0.035626
   101  H    0.035723
   102  H    0.011336
   103  H    0.040596
   104  H   -0.005480
   105  H    0.041186
   106  H    0.004867
   107  H    0.022511
   108  H    0.026556
   109  H   -0.003074
   110  H   -0.010605
   111  H    0.008924
   112  H   -0.004527
   113  H   -0.002339
   114  H    0.007178
   115  H    0.002056
   116  H   -0.005161
   117  H    0.006706
   118  H    0.000414
   119  H   -0.004416
   120  H   -0.006069
   121  H   -0.013534
   122  H    0.008840
   123  H    0.000792
   124  H    0.004486
   125  H    0.001072
   126  H    0.000948
   127  H    0.017943
   128  H   -0.009701
   129  H   -0.011882
   130  H   -0.011825
   131  H   -0.005938
   132  H    0.004592
   133  H   -0.018121
   134  H    0.003392
   135  H    0.003894
   136  H    0.004390
   137  H    0.007684
   138  H    0.000887
   139  H    0.020513
   140  H    0.004868
 Sum of Mulliken charges =  -0.00000

 Dipole moment (field-independent basis, Debye):
    X=              1.2411    Y=             -4.1360    Z=              0.3864  Tot=              4.3354
 Quadrupole moment (field-independent basis, Debye-Ang):
   XX=           -387.1502   YY=           -392.2393   ZZ=           -439.7683
   XY=             15.8444   XZ=             -2.0053   YZ=            -28.9168

 Normal termination of Gaussian 16 at Fri Apr 29 10:57:58 2022.
