 Gaussian 16, Revision A.03,
 Gaussian 16:  ES64L-G16RevA.03 25-Dec-2016

 ---------------------------------
 #p PBE1PBE/Def2SVP td=(nstates=5)
 ---------------------------------

 ----------------------------------------------------
 step_251_chromophore_8 TDDFT with PBE1PBE functional
 ----------------------------------------------------
 Symbolic Z-matrix:
 Charge =  0 Multiplicity = 1

                         Standard orientation:
 ---------------------------------------------------------------------
 Center     Atomic      Atomic             Coordinates (Angstroms)
 Number     Number       Type             X           Y           Z
 ---------------------------------------------------------------------
      1         12           0       -4.574702   -0.634402    0.232506
      2          6           0       -3.292721    2.352964    1.357689
      3          6           0       -4.241705    0.331812   -3.035973
      4          6           0       -5.699181   -3.757087   -0.888117
      5          6           0       -4.162417   -2.017227    3.370024
      6          7           0       -3.628551    1.099983   -0.660800
      7          6           0       -3.317785    2.317650   -0.049407
      8          6           0       -2.814877    3.343347   -1.068378
      9          6           0       -3.323360    2.675918   -2.371452
     10          6           0       -3.693822    1.214715   -2.044694
     11          6           0       -4.421774    3.495449   -3.083449
     12          6           0       -1.284693    3.521208   -1.011248
     13          6           0       -0.738143    4.986309   -1.123068
     14          6           0        0.584434    5.142302   -1.766014
     15          8           0        0.922992    5.953492   -2.606110
     16          8           0        1.464710    4.287585   -1.241248
     17          7           0       -4.958684   -1.524268   -1.655190
     18          6           0       -4.847530   -0.940738   -2.870492
     19          6           0       -5.449397   -1.710894   -3.917403
     20          6           0       -6.006729   -2.847702   -3.309239
     21          6           0       -5.583467   -2.740963   -1.851711
     22          6           0       -5.582186   -1.242905   -5.368051
     23          6           0       -6.816176   -3.998125   -4.010361
     24          8           0       -6.929849   -3.971259   -5.262582
     25          6           0       -7.573340   -5.151839   -3.222151
     26          7           0       -4.603566   -2.695272    1.056379
     27          6           0       -5.236596   -3.726657    0.446274
     28          6           0       -5.469595   -4.898890    1.364493
     29          6           0       -4.942794   -4.389429    2.723429
     30          6           0       -4.580030   -2.938857    2.395359
     31          6           0       -6.939045   -5.436444    1.378423
     32          6           0       -3.779740   -5.306420    3.335886
     33          6           0       -4.214763   -6.193351    4.508250
     34          7           0       -3.931566    0.010337    2.032333
     35          6           0       -3.830366   -0.636955    3.283465
     36          6           0       -3.547705    0.361190    4.323346
     37          6           0       -3.410692    1.538564    3.601293
     38          6           0       -3.529827    1.224574    2.237438
     39          6           0       -3.399873    0.198745    5.793855
     40          6           0       -3.117025    2.972460    3.736169
     41          8           0       -3.090336    3.721780    4.726349
     42          6           0       -3.071591    3.576301    2.275414
     43          6           0       -4.139837    4.644313    2.082783
     44          8           0       -5.326174    4.594491    2.422647
     45          8           0       -3.455812    5.678582    1.516317
     46          6           0       -4.178735    6.930560    1.367757
     47          6           0        2.896396    4.398351   -1.640369
     48          6           0        3.669244    3.061642   -1.631029
     49          6           0        4.816977    2.771085   -0.937356
     50          6           0        5.745246    3.869592   -0.331428
     51          6           0        5.204213    1.338236   -0.643105
     52          6           0        5.491571    0.466963   -1.852299
     53          6           0        4.830850   -0.907003   -1.773922
     54          6           0        5.909544   -2.048414   -2.000730
     55          6           0        5.148866   -3.381918   -2.448877
     56          6           0        6.690453   -2.324328   -0.693039
     57          6           0        8.182877   -1.853914   -0.827528
     58          6           0        8.624548   -0.805501    0.174579
     59          6           0       10.019509   -1.003131    0.736224
     60          6           0        9.915027   -1.077030    2.321219
     61          6           0       11.160402   -0.012541    0.269700
     62          6           0       12.125604   -0.764293   -0.629998
     63          6           0       13.511675   -0.952429    0.093661
     64          6           0       13.661561   -2.520284    0.547613
     65          6           0       15.110921   -2.986541    0.368875
     66          6           0       13.218536   -2.680459    2.055970
     67          1           0       -4.146080    0.630539   -4.081865
     68          1           0       -6.123395   -4.741611   -1.096251
     69          1           0       -4.019805   -2.388208    4.386955
     70          1           0       -3.267710    4.313945   -0.863227
     71          1           0       -2.443185    2.683825   -3.014287
     72          1           0       -4.518320    4.560672   -2.873609
     73          1           0       -5.366463    3.071214   -2.743654
     74          1           0       -4.348508    3.427276   -4.168593
     75          1           0       -0.757983    2.889188   -1.725734
     76          1           0       -0.982989    3.040104   -0.080552
     77          1           0       -0.685096    5.420439   -0.124698
     78          1           0       -1.420013    5.560601   -1.751793
     79          1           0       -6.649034   -1.275002   -5.588037
     80          1           0       -4.873492   -1.784133   -5.995009
     81          1           0       -5.312486   -0.187325   -5.335902
     82          1           0       -6.828277   -5.922812   -3.029255
     83          1           0       -8.334575   -5.532924   -3.902482
     84          1           0       -8.118595   -4.661531   -2.415226
     85          1           0       -4.849440   -5.724943    1.016195
     86          1           0       -5.689201   -4.213452    3.497679
     87          1           0       -7.292351   -5.611727    2.394197
     88          1           0       -7.049945   -6.368667    0.824862
     89          1           0       -7.576469   -4.740317    0.834828
     90          1           0       -2.961546   -4.718756    3.751989
     91          1           0       -3.312883   -5.893899    2.545383
     92          1           0       -3.728827   -7.166245    4.432378
     93          1           0       -5.295461   -6.331574    4.483299
     94          1           0       -3.979690   -5.778132    5.488095
     95          1           0       -3.650612   -0.834536    6.033859
     96          1           0       -3.894199    1.021637    6.310560
     97          1           0       -2.329035    0.254189    5.992557
     98          1           0       -2.089314    3.975217    2.020842
     99          1           0       -5.192263    6.813021    0.982189
    100          1           0       -3.707897    7.706671    0.764411
    101          1           0       -4.266010    7.420507    2.337856
    102          1           0        3.482940    5.014192   -0.957549
    103          1           0        2.857224    4.942583   -2.584204
    104          1           0        2.966333    2.243422   -1.783776
    105          1           0        5.937250    3.675453    0.722709
    106          1           0        5.431452    4.895385   -0.526667
    107          1           0        6.643387    3.877126   -0.948609
    108          1           0        4.357591    0.931210   -0.091308
    109          1           0        6.147605    1.288818   -0.098344
    110          1           0        6.576314    0.370613   -1.894045
    111          1           0        5.213049    0.914583   -2.806265
    112          1           0        4.061912   -0.961609   -2.545277
    113          1           0        4.269603   -1.102970   -0.860511
    114          1           0        6.576850   -1.715855   -2.794881
    115          1           0        5.491471   -3.752264   -3.415258
    116          1           0        4.089049   -3.284139   -2.682426
    117          1           0        5.210124   -4.177143   -1.706935
    118          1           0        6.736887   -3.376861   -0.413510
    119          1           0        6.119969   -1.890320    0.128164
    120          1           0        8.335782   -1.477612   -1.838851
    121          1           0        8.853826   -2.711405   -0.767820
    122          1           0        7.872984   -0.768544    0.963754
    123          1           0        8.537954    0.014859   -0.536975
    124          1           0       10.382342   -1.973045    0.396595
    125          1           0        8.938771   -0.731546    2.659796
    126          1           0       10.653268   -0.379199    2.717030
    127          1           0       10.119898   -2.064384    2.735967
    128          1           0       11.700828    0.473799    1.082691
    129          1           0       10.868116    0.850876   -0.328404
    130          1           0       12.389412   -0.277417   -1.569100
    131          1           0       11.758829   -1.730222   -0.975267
    132          1           0       13.755917   -0.163049    0.804248
    133          1           0       14.305120   -0.868362   -0.649763
    134          1           0       13.045081   -3.154300   -0.089716
    135          1           0       15.080638   -3.790902   -0.366054
    136          1           0       15.527359   -3.354723    1.305878
    137          1           0       15.767594   -2.203868   -0.010648
    138          1           0       14.013247   -2.884439    2.773597
    139          1           0       12.498114   -3.498543    2.018634
    140          1           0       12.870191   -1.745312    2.493238
 ---------------------------------------------------------------------

 SCF Done:  E(RPBE1PBE) =  -3005.32707282     A.U. after   15 cycles

 Excitation energies and oscillator strengths:

 Excited State   1:      Singlet-A      1.8394 eV  674.03 nm  f=0.3431  <S**2>=0.000
     245 -> 248        0.16834
     246 -> 247        0.69271
     246 <- 247       -0.10439
 This state for optimization and/or second-order correction.
 Total Energy, E(TD-HF/TD-DFT) =  -3005.25947434
 Copying the excited state density for this state as the 1-particle RhoCI density.

 Excited State   2:      Singlet-A      2.2425 eV  552.88 nm  f=0.0961  <S**2>=0.000
     245 -> 247        0.64046
     246 -> 248       -0.28408

 Excited State   3:      Singlet-A      3.0067 eV  412.36 nm  f=0.0008  <S**2>=0.000
     241 -> 247        0.11378
     243 -> 247        0.65842
     243 -> 249        0.13918
     243 -> 250        0.11699

 Excited State   4:      Singlet-A      3.0375 eV  408.18 nm  f=0.0005  <S**2>=0.000
     240 -> 247        0.15189
     241 -> 247       -0.13986
     242 -> 247        0.62532
     242 -> 249       -0.12960

 Excited State   5:      Singlet-A      3.2042 eV  386.94 nm  f=0.0141  <S**2>=0.000
     240 -> 247       -0.21334
     241 -> 247        0.58470
     242 -> 247        0.21910
     243 -> 247       -0.11232
     246 -> 248        0.16353

 The electronic state is 1-A.
 Alpha  occ. eigenvalues --  -46.92658 -19.27180 -19.25137 -19.20663 -19.19750
 Alpha  occ. eigenvalues --  -19.19113 -19.18992 -14.42091 -14.41716 -14.39793
 Alpha  occ. eigenvalues --  -14.38969 -10.37139 -10.35639 -10.33749 -10.32201
 Alpha  occ. eigenvalues --  -10.29808 -10.29331 -10.29115 -10.29086 -10.29055
 Alpha  occ. eigenvalues --  -10.28806 -10.28551 -10.27880 -10.27795 -10.26460
 Alpha  occ. eigenvalues --  -10.26070 -10.26025 -10.26001 -10.25946 -10.25928
 Alpha  occ. eigenvalues --  -10.25875 -10.25835 -10.25814 -10.25780 -10.25562
 Alpha  occ. eigenvalues --  -10.25324 -10.25084 -10.24886 -10.24786 -10.24770
 Alpha  occ. eigenvalues --  -10.24710 -10.24663 -10.24248 -10.23961 -10.23870
 Alpha  occ. eigenvalues --  -10.23869 -10.23659 -10.23553 -10.23493 -10.23476
 Alpha  occ. eigenvalues --  -10.23468 -10.23306 -10.23223 -10.22689 -10.22559
 Alpha  occ. eigenvalues --  -10.22476 -10.22456 -10.22445 -10.22256 -10.22116
 Alpha  occ. eigenvalues --  -10.22059 -10.21793 -10.21754 -10.21709 -10.21696
 Alpha  occ. eigenvalues --  -10.21307  -3.14769  -1.87575  -1.87130  -1.87022
 Alpha  occ. eigenvalues --   -1.11777  -1.11691  -1.03339  -1.03184  -1.02754
 Alpha  occ. eigenvalues --   -1.01889  -0.99505  -0.98812  -0.98094  -0.96846
 Alpha  occ. eigenvalues --   -0.85976  -0.84655  -0.83937  -0.83606  -0.83248
 Alpha  occ. eigenvalues --   -0.83175  -0.82148  -0.81878  -0.81333  -0.80816
 Alpha  occ. eigenvalues --   -0.80655  -0.79959  -0.78465  -0.78306  -0.77863
 Alpha  occ. eigenvalues --   -0.76779  -0.76357  -0.75442  -0.75150  -0.74484
 Alpha  occ. eigenvalues --   -0.73796  -0.72679  -0.72282  -0.71544  -0.70524
 Alpha  occ. eigenvalues --   -0.69975  -0.69853  -0.69168  -0.68610  -0.68084
 Alpha  occ. eigenvalues --   -0.67500  -0.66990  -0.66225  -0.65190  -0.63607
 Alpha  occ. eigenvalues --   -0.63065  -0.62153  -0.61771  -0.60679  -0.60655
 Alpha  occ. eigenvalues --   -0.59754  -0.59656  -0.59592  -0.59227  -0.58601
 Alpha  occ. eigenvalues --   -0.58479  -0.57619  -0.57416  -0.57227  -0.54620
 Alpha  occ. eigenvalues --   -0.54331  -0.53979  -0.53649  -0.53285  -0.52444
 Alpha  occ. eigenvalues --   -0.51888  -0.51346  -0.50604  -0.50521  -0.50323
 Alpha  occ. eigenvalues --   -0.49863  -0.49602  -0.49193  -0.48628  -0.48434
 Alpha  occ. eigenvalues --   -0.48140  -0.47918  -0.47538  -0.47298  -0.47150
 Alpha  occ. eigenvalues --   -0.47051  -0.46912  -0.46592  -0.46104  -0.45937
 Alpha  occ. eigenvalues --   -0.45846  -0.45778  -0.45703  -0.45509  -0.45091
 Alpha  occ. eigenvalues --   -0.44801  -0.44696  -0.44642  -0.44513  -0.44139
 Alpha  occ. eigenvalues --   -0.43962  -0.43808  -0.43587  -0.43306  -0.43030
 Alpha  occ. eigenvalues --   -0.42855  -0.42771  -0.42443  -0.42313  -0.42274
 Alpha  occ. eigenvalues --   -0.42177  -0.42075  -0.41885  -0.41673  -0.41552
 Alpha  occ. eigenvalues --   -0.41467  -0.41219  -0.40890  -0.40771  -0.40726
 Alpha  occ. eigenvalues --   -0.40639  -0.40171  -0.39967  -0.39798  -0.39626
 Alpha  occ. eigenvalues --   -0.39533  -0.39190  -0.38780  -0.38756  -0.38720
 Alpha  occ. eigenvalues --   -0.38425  -0.38291  -0.38204  -0.38066  -0.37784
 Alpha  occ. eigenvalues --   -0.37548  -0.37399  -0.37208  -0.37104  -0.37035
 Alpha  occ. eigenvalues --   -0.36908  -0.36619  -0.36356  -0.36257  -0.36082
 Alpha  occ. eigenvalues --   -0.35879  -0.35817  -0.35616  -0.35451  -0.34892
 Alpha  occ. eigenvalues --   -0.34766  -0.34576  -0.34325  -0.34232  -0.34085
 Alpha  occ. eigenvalues --   -0.33610  -0.33468  -0.33230  -0.32739  -0.32535
 Alpha  occ. eigenvalues --   -0.32181  -0.32057  -0.31577  -0.31349  -0.31002
 Alpha  occ. eigenvalues --   -0.30572  -0.30199  -0.30019  -0.29843  -0.29265
 Alpha  occ. eigenvalues --   -0.28814  -0.28684  -0.28551  -0.27032  -0.26327
 Alpha  occ. eigenvalues --   -0.25849  -0.25675  -0.25485  -0.24736  -0.21171
 Alpha  occ. eigenvalues --   -0.18813
 Alpha virt. eigenvalues --   -0.11201  -0.05621  -0.04076  -0.02568  -0.01193
 Alpha virt. eigenvalues --   -0.00260   0.00142   0.00520   0.01439   0.02794
 Alpha virt. eigenvalues --    0.03945   0.04441   0.04989   0.05104   0.05350

 Mulliken charges:
               1
     1  Mg   0.981652
     2  C   -0.081308
     3  C   -0.087902
     4  C   -0.070427
     5  C   -0.073717
     6  N   -0.435288
     7  C    0.027433
     8  C   -0.080753
     9  C   -0.117456
    10  C    0.136464
    11  C    0.003896
    12  C    0.019160
    13  C    0.012790
    14  C    0.179881
    15  O   -0.264184
    16  O   -0.363029
    17  N   -0.461752
    18  C    0.153396
    19  C   -0.197752
    20  C   -0.080589
    21  C    0.191368
    22  C    0.102468
    23  C    0.050175
    24  O   -0.261262
    25  C   -0.025344
    26  N   -0.358294
    27  C    0.034627
    28  C   -0.099695
    29  C   -0.078126
    30  C    0.055433
    31  C   -0.002495
    32  C   -0.019844
    33  C   -0.075164
    34  N   -0.477938
    35  C    0.113442
    36  C   -0.211333
    37  C   -0.045830
    38  C    0.173121
    39  C    0.094865
    40  C    0.176736
    41  O   -0.236703
    42  C   -0.102544
    43  C    0.314228
    44  O   -0.252224
    45  O   -0.359546
    46  C    0.117495
    47  C    0.217966
    48  C   -0.101773
    49  C   -0.234298
    50  C    0.003598
    51  C    0.021073
    52  C   -0.028591
    53  C   -0.024337
    54  C   -0.241687
    55  C   -0.017448
    56  C    0.025705
    57  C   -0.090761
    58  C    0.017978
    59  C   -0.205350
    60  C   -0.020391
    61  C    0.039631
    62  C   -0.067456
    63  C   -0.039004
    64  C   -0.263132
    65  C   -0.000059
    66  C   -0.016814
    67  H    0.015820
    68  H   -0.006241
    69  H   -0.003145
    70  H    0.045559
    71  H    0.043696
    72  H    0.042321
    73  H    0.042521
    74  H    0.045262
    75  H    0.040958
    76  H    0.044531
    77  H    0.084055
    78  H    0.053288
    79  H    0.069186
    80  H    0.074131
    81  H    0.017779
    82  H    0.083251
    83  H    0.059219
    84  H    0.066324
    85  H    0.057194
    86  H    0.046037
    87  H    0.051428
    88  H    0.039271
    89  H    0.046535
    90  H    0.040694
    91  H    0.036857
    92  H    0.044773
    93  H    0.037458
    94  H    0.046715
    95  H    0.028876
    96  H    0.079542
    97  H    0.057072
    98  H    0.072886
    99  H    0.059994
   100  H    0.057517
   101  H    0.058218
   102  H    0.039724
   103  H    0.066819
   104  H    0.025384
   105  H    0.067607
   106  H    0.030303
   107  H    0.051452
   108  H    0.058805
   109  H    0.032141
   110  H    0.025919
   111  H    0.041159
   112  H    0.028659
   113  H    0.028437
   114  H    0.044001
   115  H    0.029845
   116  H    0.021608
   117  H    0.033145
   118  H    0.032483
   119  H    0.026151
   120  H    0.025561
   121  H    0.018846
   122  H    0.040005
   123  H    0.034444
   124  H    0.043695
   125  H    0.028261
   126  H    0.027425
   127  H    0.044947
   128  H    0.020716
   129  H    0.020229
   130  H    0.021596
   131  H    0.025184
   132  H    0.034393
   133  H    0.016610
   134  H    0.038809
   135  H    0.031612
   136  H    0.031445
   137  H    0.033818
   138  H    0.027205
   139  H    0.046304
   140  H    0.032684
 Sum of Mulliken charges =  -0.00000

 Dipole moment (field-independent basis, Debye):
    X=              1.4165    Y=             -3.9871    Z=              0.9546  Tot=              4.3376
 Quadrupole moment (field-independent basis, Debye-Ang):
   XX=           -385.9404   YY=           -388.5658   ZZ=           -435.8591
   XY=             14.8971   XZ=             -4.7603   YZ=            -30.5904

 Normal termination of Gaussian 16 at Fri Apr 29 11:16:27 2022.
