 Gaussian 16, Revision A.03,
 Gaussian 16:  ES64L-G16RevA.03 25-Dec-2016

 --------------------------------
 #p wB97XD/Def2SVP td=(nstates=5)
 --------------------------------

 ---------------------------------------------------
 step_251_chromophore_8 TDDFT with wB97XD functional
 ---------------------------------------------------
 Symbolic Z-matrix:
 Charge =  0 Multiplicity = 1

                         Standard orientation:
 ---------------------------------------------------------------------
 Center     Atomic      Atomic             Coordinates (Angstroms)
 Number     Number       Type             X           Y           Z
 ---------------------------------------------------------------------
      1         12           0       -4.574702   -0.634402    0.232506
      2          6           0       -3.292721    2.352964    1.357689
      3          6           0       -4.241705    0.331812   -3.035973
      4          6           0       -5.699181   -3.757087   -0.888117
      5          6           0       -4.162417   -2.017227    3.370024
      6          7           0       -3.628551    1.099983   -0.660800
      7          6           0       -3.317785    2.317650   -0.049407
      8          6           0       -2.814877    3.343347   -1.068378
      9          6           0       -3.323360    2.675918   -2.371452
     10          6           0       -3.693822    1.214715   -2.044694
     11          6           0       -4.421774    3.495449   -3.083449
     12          6           0       -1.284693    3.521208   -1.011248
     13          6           0       -0.738143    4.986309   -1.123068
     14          6           0        0.584434    5.142302   -1.766014
     15          8           0        0.922992    5.953492   -2.606110
     16          8           0        1.464710    4.287585   -1.241248
     17          7           0       -4.958684   -1.524268   -1.655190
     18          6           0       -4.847530   -0.940738   -2.870492
     19          6           0       -5.449397   -1.710894   -3.917403
     20          6           0       -6.006729   -2.847702   -3.309239
     21          6           0       -5.583467   -2.740963   -1.851711
     22          6           0       -5.582186   -1.242905   -5.368051
     23          6           0       -6.816176   -3.998125   -4.010361
     24          8           0       -6.929849   -3.971259   -5.262582
     25          6           0       -7.573340   -5.151839   -3.222151
     26          7           0       -4.603566   -2.695272    1.056379
     27          6           0       -5.236596   -3.726657    0.446274
     28          6           0       -5.469595   -4.898890    1.364493
     29          6           0       -4.942794   -4.389429    2.723429
     30          6           0       -4.580030   -2.938857    2.395359
     31          6           0       -6.939045   -5.436444    1.378423
     32          6           0       -3.779740   -5.306420    3.335886
     33          6           0       -4.214763   -6.193351    4.508250
     34          7           0       -3.931566    0.010337    2.032333
     35          6           0       -3.830366   -0.636955    3.283465
     36          6           0       -3.547705    0.361190    4.323346
     37          6           0       -3.410692    1.538564    3.601293
     38          6           0       -3.529827    1.224574    2.237438
     39          6           0       -3.399873    0.198745    5.793855
     40          6           0       -3.117025    2.972460    3.736169
     41          8           0       -3.090336    3.721780    4.726349
     42          6           0       -3.071591    3.576301    2.275414
     43          6           0       -4.139837    4.644313    2.082783
     44          8           0       -5.326174    4.594491    2.422647
     45          8           0       -3.455812    5.678582    1.516317
     46          6           0       -4.178735    6.930560    1.367757
     47          6           0        2.896396    4.398351   -1.640369
     48          6           0        3.669244    3.061642   -1.631029
     49          6           0        4.816977    2.771085   -0.937356
     50          6           0        5.745246    3.869592   -0.331428
     51          6           0        5.204213    1.338236   -0.643105
     52          6           0        5.491571    0.466963   -1.852299
     53          6           0        4.830850   -0.907003   -1.773922
     54          6           0        5.909544   -2.048414   -2.000730
     55          6           0        5.148866   -3.381918   -2.448877
     56          6           0        6.690453   -2.324328   -0.693039
     57          6           0        8.182877   -1.853914   -0.827528
     58          6           0        8.624548   -0.805501    0.174579
     59          6           0       10.019509   -1.003131    0.736224
     60          6           0        9.915027   -1.077030    2.321219
     61          6           0       11.160402   -0.012541    0.269700
     62          6           0       12.125604   -0.764293   -0.629998
     63          6           0       13.511675   -0.952429    0.093661
     64          6           0       13.661561   -2.520284    0.547613
     65          6           0       15.110921   -2.986541    0.368875
     66          6           0       13.218536   -2.680459    2.055970
     67          1           0       -4.146080    0.630539   -4.081865
     68          1           0       -6.123395   -4.741611   -1.096251
     69          1           0       -4.019805   -2.388208    4.386955
     70          1           0       -3.267710    4.313945   -0.863227
     71          1           0       -2.443185    2.683825   -3.014287
     72          1           0       -4.518320    4.560672   -2.873609
     73          1           0       -5.366463    3.071214   -2.743654
     74          1           0       -4.348508    3.427276   -4.168593
     75          1           0       -0.757983    2.889188   -1.725734
     76          1           0       -0.982989    3.040104   -0.080552
     77          1           0       -0.685096    5.420439   -0.124698
     78          1           0       -1.420013    5.560601   -1.751793
     79          1           0       -6.649034   -1.275002   -5.588037
     80          1           0       -4.873492   -1.784133   -5.995009
     81          1           0       -5.312486   -0.187325   -5.335902
     82          1           0       -6.828277   -5.922812   -3.029255
     83          1           0       -8.334575   -5.532924   -3.902482
     84          1           0       -8.118595   -4.661531   -2.415226
     85          1           0       -4.849440   -5.724943    1.016195
     86          1           0       -5.689201   -4.213452    3.497679
     87          1           0       -7.292351   -5.611727    2.394197
     88          1           0       -7.049945   -6.368667    0.824862
     89          1           0       -7.576469   -4.740317    0.834828
     90          1           0       -2.961546   -4.718756    3.751989
     91          1           0       -3.312883   -5.893899    2.545383
     92          1           0       -3.728827   -7.166245    4.432378
     93          1           0       -5.295461   -6.331574    4.483299
     94          1           0       -3.979690   -5.778132    5.488095
     95          1           0       -3.650612   -0.834536    6.033859
     96          1           0       -3.894199    1.021637    6.310560
     97          1           0       -2.329035    0.254189    5.992557
     98          1           0       -2.089314    3.975217    2.020842
     99          1           0       -5.192263    6.813021    0.982189
    100          1           0       -3.707897    7.706671    0.764411
    101          1           0       -4.266010    7.420507    2.337856
    102          1           0        3.482940    5.014192   -0.957549
    103          1           0        2.857224    4.942583   -2.584204
    104          1           0        2.966333    2.243422   -1.783776
    105          1           0        5.937250    3.675453    0.722709
    106          1           0        5.431452    4.895385   -0.526667
    107          1           0        6.643387    3.877126   -0.948609
    108          1           0        4.357591    0.931210   -0.091308
    109          1           0        6.147605    1.288818   -0.098344
    110          1           0        6.576314    0.370613   -1.894045
    111          1           0        5.213049    0.914583   -2.806265
    112          1           0        4.061912   -0.961609   -2.545277
    113          1           0        4.269603   -1.102970   -0.860511
    114          1           0        6.576850   -1.715855   -2.794881
    115          1           0        5.491471   -3.752264   -3.415258
    116          1           0        4.089049   -3.284139   -2.682426
    117          1           0        5.210124   -4.177143   -1.706935
    118          1           0        6.736887   -3.376861   -0.413510
    119          1           0        6.119969   -1.890320    0.128164
    120          1           0        8.335782   -1.477612   -1.838851
    121          1           0        8.853826   -2.711405   -0.767820
    122          1           0        7.872984   -0.768544    0.963754
    123          1           0        8.537954    0.014859   -0.536975
    124          1           0       10.382342   -1.973045    0.396595
    125          1           0        8.938771   -0.731546    2.659796
    126          1           0       10.653268   -0.379199    2.717030
    127          1           0       10.119898   -2.064384    2.735967
    128          1           0       11.700828    0.473799    1.082691
    129          1           0       10.868116    0.850876   -0.328404
    130          1           0       12.389412   -0.277417   -1.569100
    131          1           0       11.758829   -1.730222   -0.975267
    132          1           0       13.755917   -0.163049    0.804248
    133          1           0       14.305120   -0.868362   -0.649763
    134          1           0       13.045081   -3.154300   -0.089716
    135          1           0       15.080638   -3.790902   -0.366054
    136          1           0       15.527359   -3.354723    1.305878
    137          1           0       15.767594   -2.203868   -0.010648
    138          1           0       14.013247   -2.884439    2.773597
    139          1           0       12.498114   -3.498543    2.018634
    140          1           0       12.870191   -1.745312    2.493238
 ---------------------------------------------------------------------

 SCF Done:  E(RwB97XD) =  -3007.83747253     A.U. after   19 cycles

 Excitation energies and oscillator strengths:

 Excited State   1:      Singlet-A      1.6672 eV  743.68 nm  f=0.3517  <S**2>=0.000
     245 -> 248        0.17888
     246 -> 247        0.68382
     245 <- 248        0.11334
 This state for optimization and/or second-order correction.
 Total Energy, E(TD-HF/TD-DFT) =  -3007.77620519
 Copying the excited state density for this state as the 1-particle RhoCI density.

 Excited State   2:      Singlet-A      2.1974 eV  564.22 nm  f=0.0900  <S**2>=0.000
     245 -> 247        0.62298
     246 -> 248       -0.31764

 Excited State   3:      Singlet-A      3.4335 eV  361.10 nm  f=0.1074  <S**2>=0.000
     240 -> 247       -0.22402
     240 -> 248       -0.10528
     240 -> 249        0.21869
     240 -> 250       -0.12698
     241 -> 247        0.45296
     241 -> 249       -0.16743
     245 -> 247        0.11260
     246 -> 248        0.28829

 Excited State   4:      Singlet-A      3.5074 eV  353.49 nm  f=0.4605  <S**2>=0.000
     239 -> 247        0.11729
     240 -> 247        0.14953
     240 -> 249       -0.13468
     242 -> 247        0.11804
     242 -> 250        0.10171
     243 -> 247        0.26066
     245 -> 247        0.24311
     246 -> 248        0.48336

 Excited State   5:      Singlet-A      3.5733 eV  346.97 nm  f=0.0566  <S**2>=0.000
     239 -> 247       -0.21828
     240 -> 247       -0.24271
     240 -> 249        0.14294
     241 -> 247       -0.18459
     242 -> 247        0.19297
     242 -> 249        0.14853
     242 -> 250        0.17412
     243 -> 247        0.40939
     246 -> 248       -0.13502

 The electronic state is 1-A.
 Alpha  occ. eigenvalues --  -46.95601 -19.31672 -19.29659 -19.25287 -19.24842
 Alpha  occ. eigenvalues --  -19.23719 -19.23546 -14.47121 -14.46839 -14.44941
 Alpha  occ. eigenvalues --  -14.43745 -10.43891 -10.42377 -10.40812 -10.38834
 Alpha  occ. eigenvalues --  -10.36416 -10.35821 -10.35802 -10.35532 -10.35320
 Alpha  occ. eigenvalues --  -10.35212 -10.34602 -10.34501 -10.33707 -10.32775
 Alpha  occ. eigenvalues --  -10.32621 -10.32477 -10.32269 -10.32238 -10.32176
 Alpha  occ. eigenvalues --  -10.32174 -10.32132 -10.32105 -10.31883 -10.31853
 Alpha  occ. eigenvalues --  -10.31782 -10.31464 -10.31453 -10.31440 -10.31070
 Alpha  occ. eigenvalues --  -10.31067 -10.30906 -10.30692 -10.30307 -10.30290
 Alpha  occ. eigenvalues --  -10.30209 -10.30117 -10.29945 -10.29859 -10.29845
 Alpha  occ. eigenvalues --  -10.29763 -10.29625 -10.29610 -10.28868 -10.28834
 Alpha  occ. eigenvalues --  -10.28816 -10.28795 -10.28641 -10.28602 -10.28465
 Alpha  occ. eigenvalues --  -10.28386 -10.28173 -10.28157 -10.28136 -10.28104
 Alpha  occ. eigenvalues --  -10.27718  -3.21579  -1.95133  -1.94687  -1.94576
 Alpha  occ. eigenvalues --   -1.19102  -1.19014  -1.10956  -1.10620  -1.10026
 Alpha  occ. eigenvalues --   -1.09177  -1.06748  -1.06102  -1.05667  -1.04273
 Alpha  occ. eigenvalues --   -0.93456  -0.92329  -0.91552  -0.91251  -0.90887
 Alpha  occ. eigenvalues --   -0.90785  -0.89812  -0.89304  -0.89024  -0.88480
 Alpha  occ. eigenvalues --   -0.88445  -0.87611  -0.86096  -0.85850  -0.85511
 Alpha  occ. eigenvalues --   -0.84418  -0.84003  -0.83159  -0.82973  -0.82113
 Alpha  occ. eigenvalues --   -0.81447  -0.80220  -0.79849  -0.79385  -0.78099
 Alpha  occ. eigenvalues --   -0.77612  -0.77476  -0.76868  -0.76278  -0.75737
 Alpha  occ. eigenvalues --   -0.75017  -0.74554  -0.73794  -0.72803  -0.71112
 Alpha  occ. eigenvalues --   -0.70559  -0.69782  -0.69457  -0.68300  -0.68122
 Alpha  occ. eigenvalues --   -0.67273  -0.67199  -0.67097  -0.66668  -0.66280
 Alpha  occ. eigenvalues --   -0.66143  -0.65046  -0.64842  -0.64741  -0.62020
 Alpha  occ. eigenvalues --   -0.61793  -0.61449  -0.61045  -0.60688  -0.59790
 Alpha  occ. eigenvalues --   -0.59344  -0.58767  -0.58072  -0.57957  -0.57642
 Alpha  occ. eigenvalues --   -0.57303  -0.56990  -0.56606  -0.56024  -0.55752
 Alpha  occ. eigenvalues --   -0.55519  -0.55177  -0.54859  -0.54790  -0.54619
 Alpha  occ. eigenvalues --   -0.54548  -0.54255  -0.53937  -0.53475  -0.53305
 Alpha  occ. eigenvalues --   -0.53228  -0.53163  -0.53118  -0.52894  -0.52438
 Alpha  occ. eigenvalues --   -0.52128  -0.52018  -0.51928  -0.51821  -0.51375
 Alpha  occ. eigenvalues --   -0.51263  -0.51096  -0.50933  -0.50529  -0.50338
 Alpha  occ. eigenvalues --   -0.50255  -0.50041  -0.49772  -0.49665  -0.49492
 Alpha  occ. eigenvalues --   -0.49425  -0.49202  -0.49140  -0.48898  -0.48854
 Alpha  occ. eigenvalues --   -0.48679  -0.48353  -0.48180  -0.48038  -0.47959
 Alpha  occ. eigenvalues --   -0.47723  -0.47277  -0.47117  -0.46984  -0.46848
 Alpha  occ. eigenvalues --   -0.46707  -0.46395  -0.45954  -0.45898  -0.45714
 Alpha  occ. eigenvalues --   -0.45661  -0.45411  -0.45291  -0.45179  -0.44984
 Alpha  occ. eigenvalues --   -0.44698  -0.44524  -0.44452  -0.44255  -0.44168
 Alpha  occ. eigenvalues --   -0.44013  -0.43703  -0.43389  -0.43316  -0.43112
 Alpha  occ. eigenvalues --   -0.42951  -0.42781  -0.42579  -0.42549  -0.41952
 Alpha  occ. eigenvalues --   -0.41731  -0.41651  -0.41348  -0.41342  -0.41147
 Alpha  occ. eigenvalues --   -0.40581  -0.40478  -0.40176  -0.39809  -0.39588
 Alpha  occ. eigenvalues --   -0.39168  -0.39070  -0.38507  -0.38362  -0.38022
 Alpha  occ. eigenvalues --   -0.37505  -0.37001  -0.36933  -0.36870  -0.36179
 Alpha  occ. eigenvalues --   -0.35834  -0.35430  -0.35348  -0.33810  -0.33372
 Alpha  occ. eigenvalues --   -0.32763  -0.32484  -0.32017  -0.31465  -0.26218
 Alpha  occ. eigenvalues --   -0.22985
 Alpha virt. eigenvalues --   -0.06987  -0.00208   0.02168   0.03994   0.04749
 Alpha virt. eigenvalues --    0.06411   0.07058   0.07260   0.08353   0.09438
 Alpha virt. eigenvalues --    0.10757   0.10947   0.11617   0.11723   0.12027

 Mulliken charges:
               1
     1  Mg   0.973468
     2  C   -0.081756
     3  C   -0.109660
     4  C   -0.086096
     5  C   -0.082871
     6  N   -0.403949
     7  C   -0.006853
     8  C   -0.051881
     9  C   -0.090788
    10  C    0.125232
    11  C    0.014329
    12  C    0.027068
    13  C    0.030339
    14  C    0.169843
    15  O   -0.261960
    16  O   -0.362615
    17  N   -0.430162
    18  C    0.153028
    19  C   -0.190441
    20  C   -0.078368
    21  C    0.194632
    22  C    0.116339
    23  C    0.044541
    24  O   -0.255840
    25  C   -0.009416
    26  N   -0.325130
    27  C    0.023155
    28  C   -0.076451
    29  C   -0.052206
    30  C    0.038411
    31  C    0.010430
    32  C   -0.007608
    33  C   -0.058097
    34  N   -0.440640
    35  C    0.101123
    36  C   -0.206509
    37  C   -0.043880
    38  C    0.153207
    39  C    0.107389
    40  C    0.155725
    41  O   -0.229465
    42  C   -0.061034
    43  C    0.289913
    44  O   -0.246769
    45  O   -0.357915
    46  C    0.132197
    47  C    0.236437
    48  C   -0.116677
    49  C   -0.216967
    50  C    0.017611
    51  C    0.044154
    52  C   -0.010357
    53  C   -0.010335
    54  C   -0.206862
    55  C   -0.005365
    56  C    0.033358
    57  C   -0.070846
    58  C    0.038814
    59  C   -0.169771
    60  C   -0.005729
    61  C    0.048938
    62  C   -0.046416
    63  C   -0.023943
    64  C   -0.235413
    65  C    0.012674
    66  C   -0.004243
    67  H    0.008881
    68  H   -0.019570
    69  H   -0.011090
    70  H    0.028928
    71  H    0.033148
    72  H    0.038382
    73  H    0.034717
    74  H    0.040285
    75  H    0.032564
    76  H    0.035514
    77  H    0.079199
    78  H    0.046319
    79  H    0.065869
    80  H    0.072442
    81  H    0.012728
    82  H    0.080681
    83  H    0.058525
    84  H    0.060754
    85  H    0.046771
    86  H    0.034193
    87  H    0.047005
    88  H    0.033683
    89  H    0.037871
    90  H    0.032775
    91  H    0.028698
    92  H    0.039099
    93  H    0.028768
    94  H    0.041160
    95  H    0.021244
    96  H    0.075522
    97  H    0.050318
    98  H    0.063386
    99  H    0.055881
   100  H    0.054017
   101  H    0.054007
   102  H    0.030920
   103  H    0.062837
   104  H    0.021201
   105  H    0.063318
   106  H    0.025450
   107  H    0.044866
   108  H    0.050164
   109  H    0.020988
   110  H    0.009806
   111  H    0.033716
   112  H    0.020413
   113  H    0.018941
   114  H    0.031329
   115  H    0.024205
   116  H    0.015333
   117  H    0.026785
   118  H    0.024855
   119  H    0.015658
   120  H    0.015629
   121  H    0.010421
   122  H    0.027047
   123  H    0.020983
   124  H    0.021976
   125  H    0.022916
   126  H    0.020115
   127  H    0.039388
   128  H    0.010093
   129  H    0.013743
   130  H    0.015093
   131  H    0.013074
   132  H    0.027342
   133  H    0.006006
   134  H    0.028120
   135  H    0.026178
   136  H    0.024948
   137  H    0.027451
   138  H    0.021917
   139  H    0.041169
   140  H    0.021863
 Sum of Mulliken charges =  -0.00000

 Dipole moment (field-independent basis, Debye):
    X=              1.1306    Y=             -4.2512    Z=              0.2542  Tot=              4.4063
 Quadrupole moment (field-independent basis, Debye-Ang):
   XX=           -382.7217   YY=           -387.8926   ZZ=           -435.8253
   XY=             16.7341   XZ=             -0.8105   YZ=            -29.2279

 Normal termination of Gaussian 16 at Fri Apr 29 11:43:22 2022.
