 Gaussian 16, Revision A.03,
 Gaussian 16:  ES64L-G16RevA.03 25-Dec-2016

 --------------------
 #p ZINDO=(nstates=5)
 --------------------

 ----------------------------
 step_251_chromophore_8 ZINDO
 ----------------------------
 Symbolic Z-matrix:
 Charge =  0 Multiplicity = 1

                         Standard orientation:
 ---------------------------------------------------------------------
 Center     Atomic      Atomic             Coordinates (Angstroms)
 Number     Number       Type             X           Y           Z
 ---------------------------------------------------------------------
      1         12           0       -4.574702   -0.634402    0.232506
      2          6           0       -3.292721    2.352964    1.357689
      3          6           0       -4.241705    0.331812   -3.035973
      4          6           0       -5.699181   -3.757087   -0.888117
      5          6           0       -4.162417   -2.017227    3.370024
      6          7           0       -3.628551    1.099983   -0.660800
      7          6           0       -3.317785    2.317650   -0.049407
      8          6           0       -2.814877    3.343347   -1.068378
      9          6           0       -3.323360    2.675918   -2.371452
     10          6           0       -3.693822    1.214715   -2.044694
     11          6           0       -4.421774    3.495449   -3.083449
     12          6           0       -1.284693    3.521208   -1.011248
     13          6           0       -0.738143    4.986309   -1.123068
     14          6           0        0.584434    5.142302   -1.766014
     15          8           0        0.922992    5.953492   -2.606110
     16          8           0        1.464710    4.287585   -1.241248
     17          7           0       -4.958684   -1.524268   -1.655190
     18          6           0       -4.847530   -0.940738   -2.870492
     19          6           0       -5.449397   -1.710894   -3.917403
     20          6           0       -6.006729   -2.847702   -3.309239
     21          6           0       -5.583467   -2.740963   -1.851711
     22          6           0       -5.582186   -1.242905   -5.368051
     23          6           0       -6.816176   -3.998125   -4.010361
     24          8           0       -6.929849   -3.971259   -5.262582
     25          6           0       -7.573340   -5.151839   -3.222151
     26          7           0       -4.603566   -2.695272    1.056379
     27          6           0       -5.236596   -3.726657    0.446274
     28          6           0       -5.469595   -4.898890    1.364493
     29          6           0       -4.942794   -4.389429    2.723429
     30          6           0       -4.580030   -2.938857    2.395359
     31          6           0       -6.939045   -5.436444    1.378423
     32          6           0       -3.779740   -5.306420    3.335886
     33          6           0       -4.214763   -6.193351    4.508250
     34          7           0       -3.931566    0.010337    2.032333
     35          6           0       -3.830366   -0.636955    3.283465
     36          6           0       -3.547705    0.361190    4.323346
     37          6           0       -3.410692    1.538564    3.601293
     38          6           0       -3.529827    1.224574    2.237438
     39          6           0       -3.399873    0.198745    5.793855
     40          6           0       -3.117025    2.972460    3.736169
     41          8           0       -3.090336    3.721780    4.726349
     42          6           0       -3.071591    3.576301    2.275414
     43          6           0       -4.139837    4.644313    2.082783
     44          8           0       -5.326174    4.594491    2.422647
     45          8           0       -3.455812    5.678582    1.516317
     46          6           0       -4.178735    6.930560    1.367757
     47          6           0        2.896396    4.398351   -1.640369
     48          6           0        3.669244    3.061642   -1.631029
     49          6           0        4.816977    2.771085   -0.937356
     50          6           0        5.745246    3.869592   -0.331428
     51          6           0        5.204213    1.338236   -0.643105
     52          6           0        5.491571    0.466963   -1.852299
     53          6           0        4.830850   -0.907003   -1.773922
     54          6           0        5.909544   -2.048414   -2.000730
     55          6           0        5.148866   -3.381918   -2.448877
     56          6           0        6.690453   -2.324328   -0.693039
     57          6           0        8.182877   -1.853914   -0.827528
     58          6           0        8.624548   -0.805501    0.174579
     59          6           0       10.019509   -1.003131    0.736224
     60          6           0        9.915027   -1.077030    2.321219
     61          6           0       11.160402   -0.012541    0.269700
     62          6           0       12.125604   -0.764293   -0.629998
     63          6           0       13.511675   -0.952429    0.093661
     64          6           0       13.661561   -2.520284    0.547613
     65          6           0       15.110921   -2.986541    0.368875
     66          6           0       13.218536   -2.680459    2.055970
     67          1           0       -4.146080    0.630539   -4.081865
     68          1           0       -6.123395   -4.741611   -1.096251
     69          1           0       -4.019805   -2.388208    4.386955
     70          1           0       -3.267710    4.313945   -0.863227
     71          1           0       -2.443185    2.683825   -3.014287
     72          1           0       -4.518320    4.560672   -2.873609
     73          1           0       -5.366463    3.071214   -2.743654
     74          1           0       -4.348508    3.427276   -4.168593
     75          1           0       -0.757983    2.889188   -1.725734
     76          1           0       -0.982989    3.040104   -0.080552
     77          1           0       -0.685096    5.420439   -0.124698
     78          1           0       -1.420013    5.560601   -1.751793
     79          1           0       -6.649034   -1.275002   -5.588037
     80          1           0       -4.873492   -1.784133   -5.995009
     81          1           0       -5.312486   -0.187325   -5.335902
     82          1           0       -6.828277   -5.922812   -3.029255
     83          1           0       -8.334575   -5.532924   -3.902482
     84          1           0       -8.118595   -4.661531   -2.415226
     85          1           0       -4.849440   -5.724943    1.016195
     86          1           0       -5.689201   -4.213452    3.497679
     87          1           0       -7.292351   -5.611727    2.394197
     88          1           0       -7.049945   -6.368667    0.824862
     89          1           0       -7.576469   -4.740317    0.834828
     90          1           0       -2.961546   -4.718756    3.751989
     91          1           0       -3.312883   -5.893899    2.545383
     92          1           0       -3.728827   -7.166245    4.432378
     93          1           0       -5.295461   -6.331574    4.483299
     94          1           0       -3.979690   -5.778132    5.488095
     95          1           0       -3.650612   -0.834536    6.033859
     96          1           0       -3.894199    1.021637    6.310560
     97          1           0       -2.329035    0.254189    5.992557
     98          1           0       -2.089314    3.975217    2.020842
     99          1           0       -5.192263    6.813021    0.982189
    100          1           0       -3.707897    7.706671    0.764411
    101          1           0       -4.266010    7.420507    2.337856
    102          1           0        3.482940    5.014192   -0.957549
    103          1           0        2.857224    4.942583   -2.584204
    104          1           0        2.966333    2.243422   -1.783776
    105          1           0        5.937250    3.675453    0.722709
    106          1           0        5.431452    4.895385   -0.526667
    107          1           0        6.643387    3.877126   -0.948609
    108          1           0        4.357591    0.931210   -0.091308
    109          1           0        6.147605    1.288818   -0.098344
    110          1           0        6.576314    0.370613   -1.894045
    111          1           0        5.213049    0.914583   -2.806265
    112          1           0        4.061912   -0.961609   -2.545277
    113          1           0        4.269603   -1.102970   -0.860511
    114          1           0        6.576850   -1.715855   -2.794881
    115          1           0        5.491471   -3.752264   -3.415258
    116          1           0        4.089049   -3.284139   -2.682426
    117          1           0        5.210124   -4.177143   -1.706935
    118          1           0        6.736887   -3.376861   -0.413510
    119          1           0        6.119969   -1.890320    0.128164
    120          1           0        8.335782   -1.477612   -1.838851
    121          1           0        8.853826   -2.711405   -0.767820
    122          1           0        7.872984   -0.768544    0.963754
    123          1           0        8.537954    0.014859   -0.536975
    124          1           0       10.382342   -1.973045    0.396595
    125          1           0        8.938771   -0.731546    2.659796
    126          1           0       10.653268   -0.379199    2.717030
    127          1           0       10.119898   -2.064384    2.735967
    128          1           0       11.700828    0.473799    1.082691
    129          1           0       10.868116    0.850876   -0.328404
    130          1           0       12.389412   -0.277417   -1.569100
    131          1           0       11.758829   -1.730222   -0.975267
    132          1           0       13.755917   -0.163049    0.804248
    133          1           0       14.305120   -0.868362   -0.649763
    134          1           0       13.045081   -3.154300   -0.089716
    135          1           0       15.080638   -3.790902   -0.366054
    136          1           0       15.527359   -3.354723    1.305878
    137          1           0       15.767594   -2.203868   -0.010648
    138          1           0       14.013247   -2.884439    2.773597
    139          1           0       12.498114   -3.498543    2.018634
    140          1           0       12.870191   -1.745312    2.493238
 ---------------------------------------------------------------------

 SCF Done:  E(RZINDO/S) =  -473.985048395     A.U. after   19 cycles

 Excitation energies and oscillator strengths:

 Excited State   1:      Singlet-A      1.2660 eV  979.31 nm  f=0.5260  <S**2>=0.000
     175 ->178         0.16465
     176 ->177         0.66812
 This state for optimization and/or second-order correction.
 Total Energy, E(CIS/TDA) =  -473.938522585
 Copying the excited state density for this state as the 1-particle RhoCI density.

 Excited State   2:      Singlet-A      1.9088 eV  649.55 nm  f=0.0248  <S**2>=0.000
     175 ->177         0.51996
     176 ->178        -0.44364

 Excited State   3:      Singlet-A      2.9398 eV  421.75 nm  f=1.0309  <S**2>=0.000
     175 ->177         0.39451
     176 ->178         0.50434
     176 ->179         0.13221

 Excited State   4:      Singlet-A      2.9813 eV  415.88 nm  f=0.0609  <S**2>=0.000
     167 ->179         0.11294
     168 ->177        -0.27956
     168 ->178         0.18369
     168 ->179         0.41730
     168 ->180        -0.22572
     168 ->181        -0.12964
     168 ->186         0.22049
     176 ->178        -0.10638

 Excited State   5:      Singlet-A      3.0141 eV  411.35 nm  f=0.0687  <S**2>=0.000
     171 ->180        -0.12785
     176 ->179         0.51186
     176 ->180         0.11179
     176 ->181         0.30603

 The electronic state is 1-A.
 Alpha  occ. eigenvalues --   -1.84459  -1.81540  -1.79780  -1.74944  -1.71626
 Alpha  occ. eigenvalues --   -1.71279  -1.65839  -1.60680  -1.56522  -1.56002
 Alpha  occ. eigenvalues --   -1.53180  -1.49313  -1.47259  -1.45885  -1.45408
 Alpha  occ. eigenvalues --   -1.44628  -1.44143  -1.41112  -1.38441  -1.38318
 Alpha  occ. eigenvalues --   -1.35881  -1.34085  -1.33407  -1.31573  -1.28619
 Alpha  occ. eigenvalues --   -1.28383  -1.26437  -1.22831  -1.21026  -1.18120
 Alpha  occ. eigenvalues --   -1.17319  -1.15762  -1.15190  -1.13878  -1.12868
 Alpha  occ. eigenvalues --   -1.12780  -1.10127  -1.09646  -1.05155  -1.03770
 Alpha  occ. eigenvalues --   -1.01621  -1.00842  -0.98375  -0.97607  -0.96562
 Alpha  occ. eigenvalues --   -0.96205  -0.95833  -0.94818  -0.93364  -0.92773
 Alpha  occ. eigenvalues --   -0.91898  -0.91740  -0.91252  -0.88946  -0.87439
 Alpha  occ. eigenvalues --   -0.86196  -0.84800  -0.83438  -0.82256  -0.80283
 Alpha  occ. eigenvalues --   -0.79840  -0.79112  -0.76914  -0.76588  -0.75822
 Alpha  occ. eigenvalues --   -0.75335  -0.74391  -0.74063  -0.73385  -0.73132
 Alpha  occ. eigenvalues --   -0.72907  -0.72407  -0.71911  -0.71113  -0.70773
 Alpha  occ. eigenvalues --   -0.70423  -0.68985  -0.68709  -0.68328  -0.68152
 Alpha  occ. eigenvalues --   -0.67442  -0.67335  -0.66996  -0.66724  -0.65914
 Alpha  occ. eigenvalues --   -0.65414  -0.65247  -0.64903  -0.64523  -0.63936
 Alpha  occ. eigenvalues --   -0.63843  -0.63028  -0.62611  -0.62319  -0.61936
 Alpha  occ. eigenvalues --   -0.61870  -0.61346  -0.61208  -0.61002  -0.60255
 Alpha  occ. eigenvalues --   -0.60061  -0.59715  -0.59523  -0.59479  -0.58123
 Alpha  occ. eigenvalues --   -0.57833  -0.57674  -0.57271  -0.56918  -0.56816
 Alpha  occ. eigenvalues --   -0.56053  -0.55782  -0.55590  -0.55054  -0.54645
 Alpha  occ. eigenvalues --   -0.54044  -0.53900  -0.53532  -0.53437  -0.53093
 Alpha  occ. eigenvalues --   -0.52972  -0.52910  -0.52224  -0.51922  -0.51457
 Alpha  occ. eigenvalues --   -0.51303  -0.51218  -0.50855  -0.50536  -0.50507
 Alpha  occ. eigenvalues --   -0.50311  -0.49940  -0.49682  -0.49637  -0.49312
 Alpha  occ. eigenvalues --   -0.48987  -0.48740  -0.48591  -0.48437  -0.47937
 Alpha  occ. eigenvalues --   -0.47625  -0.47457  -0.47348  -0.47155  -0.46732
 Alpha  occ. eigenvalues --   -0.46503  -0.46490  -0.45929  -0.45816  -0.45513
 Alpha  occ. eigenvalues --   -0.45157  -0.44897  -0.44450  -0.44057  -0.43874
 Alpha  occ. eigenvalues --   -0.43281  -0.42991  -0.42942  -0.42159  -0.42098
 Alpha  occ. eigenvalues --   -0.41757  -0.41632  -0.41542  -0.39230  -0.38609
 Alpha  occ. eigenvalues --   -0.38440  -0.37947  -0.36952  -0.34798  -0.34563
 Alpha  occ. eigenvalues --   -0.34518  -0.32674  -0.32085  -0.32060  -0.27073
 Alpha  occ. eigenvalues --   -0.21895
 Alpha virt. eigenvalues --   -0.08474  -0.02559  -0.00848   0.00887   0.01154
 Alpha virt. eigenvalues --    0.02179   0.02593   0.02641   0.03187   0.03945
 Alpha virt. eigenvalues --    0.05398   0.05770   0.07230   0.07440   0.07672

 Mulliken charges:
               1
     1  Mg   0.439182
     2  C   -0.053319
     3  C   -0.095242
     4  C   -0.092078
     5  C   -0.055131
     6  N   -0.298236
     7  C    0.095602
     8  C    0.010554
     9  C    0.012295
    10  C    0.161599
    11  C   -0.050747
    12  C   -0.024185
    13  C    0.008314
    14  C    0.480458
    15  O   -0.530761
    16  O   -0.271915
    17  N   -0.327037
    18  C    0.153817
    19  C    0.047503
    20  C   -0.042922
    21  C    0.136777
    22  C   -0.037910
    23  C    0.312521
    24  O   -0.517764
    25  C   -0.027267
    26  N   -0.265283
    27  C    0.160632
    28  C    0.009565
    29  C    0.000008
    30  C    0.079756
    31  C   -0.053346
    32  C   -0.030622
    33  C   -0.055508
    34  N   -0.300856
    35  C    0.038116
    36  C    0.028338
    37  C   -0.064770
    38  C    0.128032
    39  C   -0.037032
    40  C    0.323435
    41  O   -0.529710
    42  C    0.049945
    43  C    0.493116
    44  O   -0.510440
    45  O   -0.262664
    46  C    0.070325
    47  C    0.091383
    48  C   -0.116074
    49  C    0.017486
    50  C   -0.048522
    51  C   -0.015080
    52  C   -0.028013
    53  C   -0.034678
    54  C   -0.013279
    55  C   -0.070452
    56  C   -0.035316
    57  C   -0.040904
    58  C   -0.036303
    59  C   -0.011872
    60  C   -0.066637
    61  C   -0.030620
    62  C   -0.038690
    63  C   -0.049777
    64  C   -0.018676
    65  C   -0.058878
    66  C   -0.066014
    67  H    0.032420
    68  H    0.029985
    69  H    0.018148
    70  H    0.034178
    71  H    0.024030
    72  H    0.024789
    73  H    0.019259
    74  H    0.019611
    75  H    0.027413
    76  H    0.022375
    77  H    0.052621
    78  H    0.034649
    79  H    0.048508
    80  H    0.051727
    81  H    0.017893
    82  H    0.053192
    83  H    0.038685
    84  H    0.040281
    85  H    0.033745
    86  H    0.033523
    87  H    0.026564
    88  H    0.016366
    89  H    0.022289
    90  H    0.020654
    91  H    0.021909
    92  H    0.017833
    93  H    0.015583
    94  H    0.022892
    95  H    0.023636
    96  H    0.050684
    97  H    0.028942
    98  H    0.049226
    99  H    0.043882
   100  H    0.031908
   101  H    0.038848
   102  H    0.039284
   103  H    0.059488
   104  H    0.022664
   105  H    0.037447
   106  H    0.025814
   107  H    0.026288
   108  H    0.033634
   109  H    0.021052
   110  H    0.016471
   111  H    0.022046
   112  H    0.012021
   113  H    0.022867
   114  H    0.031267
   115  H    0.013558
   116  H    0.014487
   117  H    0.021040
   118  H    0.016571
   119  H    0.021561
   120  H    0.015961
   121  H    0.013178
   122  H    0.026410
   123  H    0.022395
   124  H    0.025642
   125  H    0.019883
   126  H    0.015582
   127  H    0.023273
   128  H    0.024160
   129  H    0.014718
   130  H    0.010484
   131  H    0.023404
   132  H    0.035604
   133  H    0.004239
   134  H    0.029621
   135  H    0.013871
   136  H    0.019532
   137  H    0.020536
   138  H    0.019177
   139  H    0.021675
   140  H    0.020611
 Sum of Mulliken charges =  -0.00000

 Dipole moment (field-independent basis, Debye):
    X=              0.8135    Y=             -6.3267    Z=             -1.3757  Tot=              6.5254
 N-N= 4.369001592992D+03 E-N= 0.000000000000D+00  KE=-9.411415768469D+03
 Leave Link  601 at Fri Apr 29 11:55:24 2022, MaxMem=  6710886400 cpu:               3.7 elap:               0.2
 (Enter /sw/apps/gaussian-16.0/g16/l9999.exe)
 1\1\GINC-BP1-COMPUTE140\SP\RZINDO CIS\STO-3G\C55H74Mg1N4O6\OF15641\29-
 Apr-2022\0\\#p ZINDO=(nstates=5)\\step_251_chromophore_8 ZINDO\\0,1\Mg
 ,0,45.,3.442,47.033\C,0,42.748,5.981,46.471\C,0,42.515,1.086,46.995\C,
 0,47.335,0.858,47.41\C,0,47.614,5.559,46.251\N,0,42.894,3.587,46.538\C
 ,0,42.096,4.734,46.512\C,0,40.623,4.386,46.283\C,0,40.66,2.879,46.643\
 C,0,42.135,2.428,46.653\C,0,39.854,2.54,47.916\C,0,40.173,4.674,44.837
 \C,0,38.762,5.332,44.653\C,0,38.033,4.978,43.416\O,0,36.864,4.667,43.2

 Normal termination of Gaussian 16 at Fri Apr 29 11:55:24 2022.
