 Gaussian 16, Revision A.03,
 Gaussian 16:  ES64L-G16RevA.03 25-Dec-2016

 ------------------------------
 #p blyp/Def2SVP td=(nstates=5)
 ------------------------------

 ---------------------------------------------------
 step_1601_chromophore_26 TDDFT with blyp functional
 ---------------------------------------------------
 Symbolic Z-matrix:
 Charge =  0 Multiplicity = 1

                         Standard orientation:
 ---------------------------------------------------------------------
 Center     Atomic      Atomic             Coordinates (Angstroms)
 Number     Number       Type             X           Y           Z
 ---------------------------------------------------------------------
      1         12           0       -3.742442    1.152442    0.561602
      2          6           0       -5.353495   -1.946703   -0.226798
      3          6           0       -2.088686   -0.386339    3.035949
      4          6           0       -2.186041    4.063660    1.224217
      5          6           0       -5.300251    2.566039   -2.315372
      6          7           0       -3.712879   -1.032675    1.228654
      7          6           0       -4.421419   -2.041968    0.827388
      8          6           0       -4.006190   -3.299328    1.594584
      9          6           0       -3.266146   -2.673352    2.854509
     10          6           0       -2.940709   -1.288123    2.337804
     11          6           0       -4.129666   -2.620576    4.157886
     12          6           0       -3.201657   -4.305525    0.709291
     13          6           0       -2.162805   -3.817227   -0.261632
     14          6           0       -0.763978   -4.453932   -0.110060
     15          8           0       -0.397688   -5.553244    0.293708
     16          8           0        0.168609   -3.752761   -0.793173
     17          7           0       -2.364475    1.757852    1.985035
     18          6           0       -1.866036    0.985109    2.917514
     19          6           0       -1.105554    1.721443    3.883253
     20          6           0       -1.019392    3.045911    3.321643
     21          6           0       -1.853471    2.985221    2.114134
     22          6           0       -0.334152    1.208533    5.080196
     23          6           0       -0.334016    4.237717    3.967459
     24          8           0        0.092975    4.158803    5.114297
     25          6           0        0.028974    5.531180    3.383155
     26          7           0       -3.686816    3.075103   -0.443682
     27          6           0       -3.033774    4.177765    0.048600
     28          6           0       -3.372214    5.397306   -0.751107
     29          6           0       -4.301468    4.910077   -1.917550
     30          6           0       -4.486245    3.443238   -1.555386
     31          6           0       -4.073725    6.464562   -0.046621
     32          6           0       -3.622042    5.086851   -3.292354
     33          6           0       -4.083178    6.341061   -4.198025
     34          7           0       -4.923639    0.509415   -1.043043
     35          6           0       -5.450870    1.147496   -2.095298
     36          6           0       -6.250072    0.222514   -2.944608
     37          6           0       -6.238752   -0.992875   -2.181458
     38          6           0       -5.489309   -0.770598   -1.051534
     39          6           0       -6.934184    0.456861   -4.211244
     40          6           0       -6.799939   -2.379336   -2.139685
     41          8           0       -7.382127   -3.021486   -3.023449
     42          6           0       -6.249185   -2.962584   -0.853278
     43          6           0       -7.342815   -3.439747    0.000900
     44          8           0       -7.378592   -4.559956    0.468514
     45          8           0       -8.205570   -2.429504    0.384461
     46          6           0       -9.130978   -2.648619    1.525019
     47          6           0        1.426080   -4.405220   -1.138257
     48          6           0        2.143600   -3.209011   -1.736389
     49          6           0        3.443636   -2.835386   -1.448388
     50          6           0        4.415419   -3.527641   -0.515418
     51          6           0        4.077079   -1.941335   -2.483438
     52          6           0        3.806216   -0.439408   -2.405251
     53          6           0        4.918543    0.415044   -2.960985
     54          6           0        5.836859    1.094971   -1.936022
     55          6           0        6.145039    2.536151   -2.432587
     56          6           0        7.144244    0.305732   -1.587014
     57          6           0        7.456779    0.449287   -0.027602
     58          6           0        7.956409   -0.862236    0.566409
     59          6           0        9.394581   -0.735990    1.150531
     60          6           0        9.857832   -1.997807    1.934463
     61          6           0       10.374713   -0.357412   -0.029292
     62          6           0       11.674698    0.290945    0.550233
     63          6           0       13.010474   -0.436811    0.264844
     64          6           0       14.047454    0.458819   -0.543827
     65          6           0       14.322708   -0.145697   -1.950869
     66          6           0       15.362872    0.575153    0.188815
     67          1           0       -1.513949   -0.828639    3.852088
     68          1           0       -1.688581    5.006346    1.461791
     69          1           0       -5.753526    2.979871   -3.218012
     70          1           0       -4.947979   -3.782831    1.858310
     71          1           0       -2.390306   -3.309550    2.979896
     72          1           0       -4.249737   -1.565225    4.404529
     73          1           0       -3.461100   -3.105856    4.868664
     74          1           0       -4.950303   -3.284267    3.886841
     75          1           0       -3.904657   -4.570707   -0.079427
     76          1           0       -3.020700   -5.215358    1.282179
     77          1           0       -2.113895   -2.751711   -0.040346
     78          1           0       -2.399374   -4.004678   -1.310033
     79          1           0        0.696519    0.948602    4.835838
     80          1           0       -0.758613    0.253442    5.389472
     81          1           0       -0.441397    1.890047    5.924396
     82          1           0       -0.962753    5.934477    3.179433
     83          1           0        0.638276    5.398629    2.488732
     84          1           0        0.533257    6.154721    4.122273
     85          1           0       -2.398607    5.723156   -1.117762
     86          1           0       -5.325135    5.263873   -1.793648
     87          1           0       -3.389242    7.047563    0.568565
     88          1           0       -4.795648    6.017304    0.637412
     89          1           0       -4.659185    7.082600   -0.727353
     90          1           0       -3.841205    4.176464   -3.849668
     91          1           0       -2.560498    5.142590   -3.053180
     92          1           0       -3.321876    7.111839   -4.314487
     93          1           0       -4.888487    6.753720   -3.589689
     94          1           0       -4.457092    6.058391   -5.182249
     95          1           0       -6.328514    1.228474   -4.688642
     96          1           0       -7.931708    0.821002   -3.965528
     97          1           0       -6.988579   -0.546305   -4.632438
     98          1           0       -5.833265   -3.940250   -1.095364
     99          1           0       -8.623039   -3.016379    2.416562
    100          1           0       -9.910147   -3.353374    1.235312
    101          1           0       -9.524405   -1.660120    1.763829
    102          1           0        1.269560   -5.080851   -1.978183
    103          1           0        1.889672   -4.894384   -0.281101
    104          1           0        1.681463   -2.499423   -2.423040
    105          1           0        5.137523   -4.111459   -1.086725
    106          1           0        3.972372   -4.270392    0.147403
    107          1           0        5.024735   -2.825370    0.053175
    108          1           0        3.701489   -2.267358   -3.453425
    109          1           0        5.161167   -2.006789   -2.575391
    110          1           0        3.661791   -0.084982   -1.384515
    111          1           0        2.872761   -0.243548   -2.933293
    112          1           0        4.414762    1.257991   -3.433355
    113          1           0        5.469468   -0.096008   -3.750827
    114          1           0        5.252418    1.224328   -1.024934
    115          1           0        5.271632    3.162544   -2.256859
    116          1           0        6.355098    2.500967   -3.501356
    117          1           0        6.943451    2.977043   -1.836006
    118          1           0        8.005585    0.600330   -2.186169
    119          1           0        6.934781   -0.741689   -1.803783
    120          1           0        6.530998    0.646121    0.513048
    121          1           0        8.153210    1.266000    0.160120
    122          1           0        8.098626   -1.614332   -0.210034
    123          1           0        7.230972   -1.179622    1.315727
    124          1           0        9.489247    0.125256    1.810527
    125          1           0       10.850465   -1.871917    2.367760
    126          1           0        9.775655   -2.875225    1.293002
    127          1           0        9.125769   -2.076898    2.737636
    128          1           0       10.011073    0.348947   -0.776548
    129          1           0       10.644477   -1.251637   -0.589883
    130          1           0       11.504366    0.365981    1.623658
    131          1           0       11.643435    1.342247    0.259852
    132          1           0       12.910714   -1.366102   -0.296780
    133          1           0       13.434610   -0.727108    1.225137
    134          1           0       13.499423    1.373452   -0.768562
    135          1           0       15.051889    0.454894   -2.495927
    136          1           0       13.386633   -0.161627   -2.508914
    137          1           0       14.677799   -1.170816   -1.841704
    138          1           0       16.090668   -0.119723   -0.230505
    139          1           0       15.270682    0.304031    1.240468
    140          1           0       15.697343    1.610129    0.250501
 ---------------------------------------------------------------------

 SCF Done:  E(RB-LYP) =  -3007.36460677     A.U. after   21 cycles

 Excitation energies and oscillator strengths:

 Excited State   1:      Singlet-A      1.6089 eV  770.59 nm  f=0.0042  <S**2>=0.000
     244 -> 247        0.64943
     245 -> 247        0.26797
 This state for optimization and/or second-order correction.
 Total Energy, E(TD-HF/TD-DFT) =  -3007.30547920
 Copying the excited state density for this state as the 1-particle RhoCI density.

 Excited State   2:      Singlet-A      1.8265 eV  678.80 nm  f=0.2800  <S**2>=0.000
     245 -> 248       -0.19698
     246 -> 247        0.67952
     246 <- 247       -0.14364

 Excited State   3:      Singlet-A      1.9637 eV  631.40 nm  f=0.0004  <S**2>=0.000
     243 -> 247        0.70612

 Excited State   4:      Singlet-A      1.9843 eV  624.83 nm  f=0.0515  <S**2>=0.000
     242 -> 247       -0.38310
     244 -> 247       -0.21909
     245 -> 247        0.51069
     246 -> 248        0.18739

 Excited State   5:      Singlet-A      2.1321 eV  581.53 nm  f=0.0291  <S**2>=0.000
     242 -> 247        0.58640
     244 -> 247       -0.12405
     245 -> 247        0.30713
     246 -> 248        0.19741

 The electronic state is 1-A.
 Alpha  occ. eigenvalues --  -46.28292 -18.82080 -18.80509 -18.77052 -18.76499
 Alpha  occ. eigenvalues --  -18.75970 -18.74669 -14.03707 -14.03626 -14.01524
 Alpha  occ. eigenvalues --  -14.01517 -10.04241 -10.03451 -10.00385  -9.99394
 Alpha  occ. eigenvalues --   -9.98539  -9.97774  -9.97473  -9.97076  -9.96989
 Alpha  occ. eigenvalues --   -9.96687  -9.96654  -9.96167  -9.95351  -9.95099
 Alpha  occ. eigenvalues --   -9.94556  -9.94325  -9.94246  -9.94186  -9.94122
 Alpha  occ. eigenvalues --   -9.93922  -9.93837  -9.93784  -9.93732  -9.93721
 Alpha  occ. eigenvalues --   -9.93693  -9.93589  -9.93215  -9.93104  -9.92953
 Alpha  occ. eigenvalues --   -9.92783  -9.92777  -9.92668  -9.92570  -9.92558
 Alpha  occ. eigenvalues --   -9.91980  -9.91951  -9.91914  -9.91903  -9.91642
 Alpha  occ. eigenvalues --   -9.91611  -9.91482  -9.91368  -9.91262  -9.91146
 Alpha  occ. eigenvalues --   -9.91144  -9.91065  -9.90873  -9.90860  -9.90849
 Alpha  occ. eigenvalues --   -9.90796  -9.90781  -9.90719  -9.90693  -9.90603
 Alpha  occ. eigenvalues --   -9.90448  -2.92770  -1.73212  -1.72632  -1.72493
 Alpha  occ. eigenvalues --   -0.98001  -0.97597  -0.91431  -0.91194  -0.90039
 Alpha  occ. eigenvalues --   -0.88299  -0.88262  -0.87598  -0.86092  -0.85096
 Alpha  occ. eigenvalues --   -0.76730  -0.73511  -0.73425  -0.72987  -0.72504
 Alpha  occ. eigenvalues --   -0.72313  -0.71547  -0.71411  -0.70731  -0.70577
 Alpha  occ. eigenvalues --   -0.69997  -0.69609  -0.68195  -0.67986  -0.67519
 Alpha  occ. eigenvalues --   -0.66502  -0.66191  -0.65592  -0.65099  -0.64894
 Alpha  occ. eigenvalues --   -0.64019  -0.62842  -0.62603  -0.62134  -0.61622
 Alpha  occ. eigenvalues --   -0.60490  -0.60291  -0.59803  -0.59343  -0.58769
 Alpha  occ. eigenvalues --   -0.57800  -0.57765  -0.57279  -0.55492  -0.55193
 Alpha  occ. eigenvalues --   -0.54389  -0.53504  -0.53309  -0.52517  -0.51906
 Alpha  occ. eigenvalues --   -0.51590  -0.51065  -0.50743  -0.50642  -0.49732
 Alpha  occ. eigenvalues --   -0.49489  -0.49109  -0.48981  -0.48756  -0.46940
 Alpha  occ. eigenvalues --   -0.46528  -0.46297  -0.45887  -0.45326  -0.44741
 Alpha  occ. eigenvalues --   -0.44441  -0.43570  -0.43286  -0.43006  -0.42434
 Alpha  occ. eigenvalues --   -0.42138  -0.42091  -0.41879  -0.41321  -0.41235
 Alpha  occ. eigenvalues --   -0.40683  -0.40559  -0.40486  -0.40376  -0.40073
 Alpha  occ. eigenvalues --   -0.40004  -0.39896  -0.39558  -0.39386  -0.39354
 Alpha  occ. eigenvalues --   -0.39076  -0.38903  -0.38856  -0.38707  -0.38560
 Alpha  occ. eigenvalues --   -0.38087  -0.38051  -0.37914  -0.37674  -0.37554
 Alpha  occ. eigenvalues --   -0.37333  -0.37258  -0.37187  -0.36986  -0.36668
 Alpha  occ. eigenvalues --   -0.36565  -0.36395  -0.36103  -0.36006  -0.35977
 Alpha  occ. eigenvalues --   -0.35734  -0.35384  -0.35325  -0.35018  -0.34776
 Alpha  occ. eigenvalues --   -0.34579  -0.34388  -0.34197  -0.34102  -0.34023
 Alpha  occ. eigenvalues --   -0.33853  -0.33765  -0.33545  -0.33522  -0.33350
 Alpha  occ. eigenvalues --   -0.33192  -0.33076  -0.33041  -0.32756  -0.32405
 Alpha  occ. eigenvalues --   -0.32190  -0.32105  -0.32034  -0.31814  -0.31726
 Alpha  occ. eigenvalues --   -0.31508  -0.31411  -0.31093  -0.30828  -0.30747
 Alpha  occ. eigenvalues --   -0.30625  -0.30205  -0.30016  -0.29924  -0.29780
 Alpha  occ. eigenvalues --   -0.29528  -0.29459  -0.29349  -0.29288  -0.29033
 Alpha  occ. eigenvalues --   -0.28919  -0.28806  -0.28445  -0.27977  -0.27601
 Alpha  occ. eigenvalues --   -0.27340  -0.27175  -0.27081  -0.26785  -0.26694
 Alpha  occ. eigenvalues --   -0.26545  -0.26454  -0.25819  -0.25778  -0.25483
 Alpha  occ. eigenvalues --   -0.25456  -0.24485  -0.24288  -0.24197  -0.23891
 Alpha  occ. eigenvalues --   -0.23575  -0.22658  -0.21883  -0.21150  -0.21025
 Alpha  occ. eigenvalues --   -0.20531  -0.19362  -0.19042  -0.17687  -0.17550
 Alpha  occ. eigenvalues --   -0.16196
 Alpha virt. eigenvalues --   -0.11826  -0.07269  -0.06537  -0.05091  -0.03187
 Alpha virt. eigenvalues --   -0.02733  -0.02659  -0.02483  -0.01921  -0.00678
 Alpha virt. eigenvalues --    0.00667   0.00937   0.02087   0.02592   0.02695

 Mulliken charges:
               1
     1  Mg   0.687562
     2  C    0.046456
     3  C   -0.076702
     4  C   -0.064462
     5  C   -0.064674
     6  N   -0.142131
     7  C   -0.162979
     8  C    0.016023
     9  C   -0.021836
    10  C    0.000604
    11  C    0.167944
    12  C    0.139323
    13  C    0.080896
    14  C    0.064275
    15  O   -0.202518
    16  O   -0.266475
    17  N   -0.226677
    18  C    0.139106
    19  C   -0.162502
    20  C    0.049489
    21  C    0.104407
    22  C    0.190212
    23  C   -0.111439
    24  O   -0.183299
    25  C    0.171061
    26  N   -0.244960
    27  C   -0.014345
    28  C    0.072339
    29  C    0.022601
    30  C   -0.014715
    31  C    0.146341
    32  C    0.101223
    33  C    0.059642
    34  N   -0.247015
    35  C    0.101935
    36  C   -0.220004
    37  C    0.033519
    38  C    0.089354
    39  C    0.190262
    40  C   -0.012794
    41  O   -0.139420
    42  C    0.090658
    43  C    0.073703
    44  O   -0.167583
    45  O   -0.297302
    46  C    0.224199
    47  C    0.344733
    48  C   -0.096998
    49  C   -0.121638
    50  C    0.133781
    51  C    0.104837
    52  C    0.095463
    53  C    0.102106
    54  C   -0.078296
    55  C    0.104590
    56  C    0.108333
    57  C    0.071275
    58  C    0.103375
    59  C   -0.098629
    60  C    0.119653
    61  C    0.063596
    62  C    0.052867
    63  C    0.117226
    64  C   -0.095657
    65  C    0.078775
    66  C    0.130019
    67  H   -0.064321
    68  H   -0.095533
    69  H   -0.061989
    70  H   -0.029616
    71  H   -0.024587
    72  H    0.009432
    73  H   -0.003716
    74  H    0.001088
    75  H   -0.033247
    76  H   -0.000187
    77  H    0.021034
    78  H    0.025679
    79  H    0.009604
    80  H   -0.034898
    81  H    0.018954
    82  H    0.007614
    83  H    0.010694
    84  H   -0.004762
    85  H   -0.021878
    86  H   -0.019674
    87  H   -0.010755
    88  H   -0.017690
    89  H   -0.004487
    90  H   -0.019518
    91  H   -0.019808
    92  H    0.000688
    93  H   -0.013049
    94  H    0.004740
    95  H    0.001298
    96  H    0.010497
    97  H    0.024327
    98  H    0.001579
    99  H    0.013107
   100  H    0.025688
   101  H    0.017201
   102  H   -0.002061
   103  H    0.011378
   104  H   -0.030670
   105  H   -0.004981
   106  H   -0.022536
   107  H   -0.002751
   108  H   -0.025138
   109  H   -0.041211
   110  H   -0.040637
   111  H   -0.033818
   112  H   -0.058439
   113  H   -0.037052
   114  H   -0.041724
   115  H   -0.021109
   116  H   -0.009190
   117  H   -0.022477
   118  H   -0.023874
   119  H   -0.037211
   120  H   -0.036702
   121  H   -0.018046
   122  H   -0.027908
   123  H   -0.029163
   124  H   -0.037994
   125  H   -0.008817
   126  H   -0.014442
   127  H   -0.017456
   128  H   -0.028894
   129  H   -0.040890
   130  H   -0.035673
   131  H   -0.033583
   132  H   -0.034474
   133  H   -0.037295
   134  H   -0.033038
   135  H   -0.010778
   136  H   -0.020841
   137  H   -0.011913
   138  H   -0.014974
   139  H   -0.030963
   140  H   -0.014873
 Sum of Mulliken charges =  -0.00000

 Dipole moment (field-independent basis, Debye):
    X=              0.0498    Y=              5.6559    Z=             -0.7586  Tot=              5.7067
 Quadrupole moment (field-independent basis, Debye-Ang):
   XX=           -402.5903   YY=           -418.1262   ZZ=           -417.4507
   XY=            -38.2552   XZ=            -21.6575   YZ=            -25.5608

 Normal termination of Gaussian 16 at Thu Apr 28 15:45:11 2022.
