 Gaussian 16, Revision A.03,
 Gaussian 16:  ES64L-G16RevA.03 25-Dec-2016

 -----------------------------------
 #p cam-b3lyp/Def2SVP td=(nstates=5)
 -----------------------------------

 --------------------------------------------------------
 step_1601_chromophore_26 TDDFT with cam-b3lyp functional
 --------------------------------------------------------
 Symbolic Z-matrix:
 Charge =  0 Multiplicity = 1

                         Standard orientation:
 ---------------------------------------------------------------------
 Center     Atomic      Atomic             Coordinates (Angstroms)
 Number     Number       Type             X           Y           Z
 ---------------------------------------------------------------------
      1         12           0       -3.742442    1.152442    0.561602
      2          6           0       -5.353495   -1.946703   -0.226798
      3          6           0       -2.088686   -0.386339    3.035949
      4          6           0       -2.186041    4.063660    1.224217
      5          6           0       -5.300251    2.566039   -2.315372
      6          7           0       -3.712879   -1.032675    1.228654
      7          6           0       -4.421419   -2.041968    0.827388
      8          6           0       -4.006190   -3.299328    1.594584
      9          6           0       -3.266146   -2.673352    2.854509
     10          6           0       -2.940709   -1.288123    2.337804
     11          6           0       -4.129666   -2.620576    4.157886
     12          6           0       -3.201657   -4.305525    0.709291
     13          6           0       -2.162805   -3.817227   -0.261632
     14          6           0       -0.763978   -4.453932   -0.110060
     15          8           0       -0.397688   -5.553244    0.293708
     16          8           0        0.168609   -3.752761   -0.793173
     17          7           0       -2.364475    1.757852    1.985035
     18          6           0       -1.866036    0.985109    2.917514
     19          6           0       -1.105554    1.721443    3.883253
     20          6           0       -1.019392    3.045911    3.321643
     21          6           0       -1.853471    2.985221    2.114134
     22          6           0       -0.334152    1.208533    5.080196
     23          6           0       -0.334016    4.237717    3.967459
     24          8           0        0.092975    4.158803    5.114297
     25          6           0        0.028974    5.531180    3.383155
     26          7           0       -3.686816    3.075103   -0.443682
     27          6           0       -3.033774    4.177765    0.048600
     28          6           0       -3.372214    5.397306   -0.751107
     29          6           0       -4.301468    4.910077   -1.917550
     30          6           0       -4.486245    3.443238   -1.555386
     31          6           0       -4.073725    6.464562   -0.046621
     32          6           0       -3.622042    5.086851   -3.292354
     33          6           0       -4.083178    6.341061   -4.198025
     34          7           0       -4.923639    0.509415   -1.043043
     35          6           0       -5.450870    1.147496   -2.095298
     36          6           0       -6.250072    0.222514   -2.944608
     37          6           0       -6.238752   -0.992875   -2.181458
     38          6           0       -5.489309   -0.770598   -1.051534
     39          6           0       -6.934184    0.456861   -4.211244
     40          6           0       -6.799939   -2.379336   -2.139685
     41          8           0       -7.382127   -3.021486   -3.023449
     42          6           0       -6.249185   -2.962584   -0.853278
     43          6           0       -7.342815   -3.439747    0.000900
     44          8           0       -7.378592   -4.559956    0.468514
     45          8           0       -8.205570   -2.429504    0.384461
     46          6           0       -9.130978   -2.648619    1.525019
     47          6           0        1.426080   -4.405220   -1.138257
     48          6           0        2.143600   -3.209011   -1.736389
     49          6           0        3.443636   -2.835386   -1.448388
     50          6           0        4.415419   -3.527641   -0.515418
     51          6           0        4.077079   -1.941335   -2.483438
     52          6           0        3.806216   -0.439408   -2.405251
     53          6           0        4.918543    0.415044   -2.960985
     54          6           0        5.836859    1.094971   -1.936022
     55          6           0        6.145039    2.536151   -2.432587
     56          6           0        7.144244    0.305732   -1.587014
     57          6           0        7.456779    0.449287   -0.027602
     58          6           0        7.956409   -0.862236    0.566409
     59          6           0        9.394581   -0.735990    1.150531
     60          6           0        9.857832   -1.997807    1.934463
     61          6           0       10.374713   -0.357412   -0.029292
     62          6           0       11.674698    0.290945    0.550233
     63          6           0       13.010474   -0.436811    0.264844
     64          6           0       14.047454    0.458819   -0.543827
     65          6           0       14.322708   -0.145697   -1.950869
     66          6           0       15.362872    0.575153    0.188815
     67          1           0       -1.513949   -0.828639    3.852088
     68          1           0       -1.688581    5.006346    1.461791
     69          1           0       -5.753526    2.979871   -3.218012
     70          1           0       -4.947979   -3.782831    1.858310
     71          1           0       -2.390306   -3.309550    2.979896
     72          1           0       -4.249737   -1.565225    4.404529
     73          1           0       -3.461100   -3.105856    4.868664
     74          1           0       -4.950303   -3.284267    3.886841
     75          1           0       -3.904657   -4.570707   -0.079427
     76          1           0       -3.020700   -5.215358    1.282179
     77          1           0       -2.113895   -2.751711   -0.040346
     78          1           0       -2.399374   -4.004678   -1.310033
     79          1           0        0.696519    0.948602    4.835838
     80          1           0       -0.758613    0.253442    5.389472
     81          1           0       -0.441397    1.890047    5.924396
     82          1           0       -0.962753    5.934477    3.179433
     83          1           0        0.638276    5.398629    2.488732
     84          1           0        0.533257    6.154721    4.122273
     85          1           0       -2.398607    5.723156   -1.117762
     86          1           0       -5.325135    5.263873   -1.793648
     87          1           0       -3.389242    7.047563    0.568565
     88          1           0       -4.795648    6.017304    0.637412
     89          1           0       -4.659185    7.082600   -0.727353
     90          1           0       -3.841205    4.176464   -3.849668
     91          1           0       -2.560498    5.142590   -3.053180
     92          1           0       -3.321876    7.111839   -4.314487
     93          1           0       -4.888487    6.753720   -3.589689
     94          1           0       -4.457092    6.058391   -5.182249
     95          1           0       -6.328514    1.228474   -4.688642
     96          1           0       -7.931708    0.821002   -3.965528
     97          1           0       -6.988579   -0.546305   -4.632438
     98          1           0       -5.833265   -3.940250   -1.095364
     99          1           0       -8.623039   -3.016379    2.416562
    100          1           0       -9.910147   -3.353374    1.235312
    101          1           0       -9.524405   -1.660120    1.763829
    102          1           0        1.269560   -5.080851   -1.978183
    103          1           0        1.889672   -4.894384   -0.281101
    104          1           0        1.681463   -2.499423   -2.423040
    105          1           0        5.137523   -4.111459   -1.086725
    106          1           0        3.972372   -4.270392    0.147403
    107          1           0        5.024735   -2.825370    0.053175
    108          1           0        3.701489   -2.267358   -3.453425
    109          1           0        5.161167   -2.006789   -2.575391
    110          1           0        3.661791   -0.084982   -1.384515
    111          1           0        2.872761   -0.243548   -2.933293
    112          1           0        4.414762    1.257991   -3.433355
    113          1           0        5.469468   -0.096008   -3.750827
    114          1           0        5.252418    1.224328   -1.024934
    115          1           0        5.271632    3.162544   -2.256859
    116          1           0        6.355098    2.500967   -3.501356
    117          1           0        6.943451    2.977043   -1.836006
    118          1           0        8.005585    0.600330   -2.186169
    119          1           0        6.934781   -0.741689   -1.803783
    120          1           0        6.530998    0.646121    0.513048
    121          1           0        8.153210    1.266000    0.160120
    122          1           0        8.098626   -1.614332   -0.210034
    123          1           0        7.230972   -1.179622    1.315727
    124          1           0        9.489247    0.125256    1.810527
    125          1           0       10.850465   -1.871917    2.367760
    126          1           0        9.775655   -2.875225    1.293002
    127          1           0        9.125769   -2.076898    2.737636
    128          1           0       10.011073    0.348947   -0.776548
    129          1           0       10.644477   -1.251637   -0.589883
    130          1           0       11.504366    0.365981    1.623658
    131          1           0       11.643435    1.342247    0.259852
    132          1           0       12.910714   -1.366102   -0.296780
    133          1           0       13.434610   -0.727108    1.225137
    134          1           0       13.499423    1.373452   -0.768562
    135          1           0       15.051889    0.454894   -2.495927
    136          1           0       13.386633   -0.161627   -2.508914
    137          1           0       14.677799   -1.170816   -1.841704
    138          1           0       16.090668   -0.119723   -0.230505
    139          1           0       15.270682    0.304031    1.240468
    140          1           0       15.697343    1.610129    0.250501
 ---------------------------------------------------------------------

 SCF Done:  E(RCAM-B3LYP) =  -3007.16233304     A.U. after   17 cycles

 Excitation energies and oscillator strengths:

 Excited State   1:      Singlet-A      1.7193 eV  721.14 nm  f=0.3616  <S**2>=0.000
     245 -> 248       -0.19411
     246 -> 247        0.68285
     245 <- 248       -0.11241
 This state for optimization and/or second-order correction.
 Total Energy, E(TD-HF/TD-DFT) =  -3007.09915102
 Copying the excited state density for this state as the 1-particle RhoCI density.

 Excited State   2:      Singlet-A      2.2458 eV  552.06 nm  f=0.1017  <S**2>=0.000
     245 -> 247        0.63368
     246 -> 248        0.30686

 Excited State   3:      Singlet-A      3.3758 eV  367.27 nm  f=0.0077  <S**2>=0.000
     240 -> 247       -0.12608
     243 -> 247        0.67618

 Excited State   4:      Singlet-A      3.4176 eV  362.79 nm  f=0.0007  <S**2>=0.000
     242 -> 247        0.54183
     242 -> 248        0.10533
     242 -> 249        0.26715
     242 -> 250        0.29761

 Excited State   5:      Singlet-A      3.5347 eV  350.76 nm  f=0.4971  <S**2>=0.000
     239 -> 247        0.13216
     240 -> 247        0.13505
     241 -> 247       -0.27786
     245 -> 247       -0.24833
     246 -> 248        0.55028
     245 <- 247        0.10107

 The electronic state is 1-A.
 Alpha  occ. eigenvalues --  -46.89954 -19.25014 -19.23261 -19.20278 -19.19859
 Alpha  occ. eigenvalues --  -19.18838 -19.17848 -14.42625 -14.42576 -14.40059
 Alpha  occ. eigenvalues --  -14.39978 -10.39714 -10.38638 -10.35854 -10.34489
 Alpha  occ. eigenvalues --  -10.32555 -10.32146 -10.31757 -10.31590 -10.31536
 Alpha  occ. eigenvalues --  -10.31282 -10.31109 -10.30475 -10.29671 -10.29462
 Alpha  occ. eigenvalues --  -10.29039 -10.28576 -10.28460 -10.28260 -10.28252
 Alpha  occ. eigenvalues --  -10.28215 -10.28016 -10.28014 -10.27854 -10.27798
 Alpha  occ. eigenvalues --  -10.27648 -10.27558 -10.27546 -10.27476 -10.26663
 Alpha  occ. eigenvalues --  -10.26652 -10.26645 -10.26487 -10.26352 -10.26182
 Alpha  occ. eigenvalues --  -10.25895 -10.25847 -10.25674 -10.25591 -10.25465
 Alpha  occ. eigenvalues --  -10.25425 -10.25346 -10.25343 -10.25087 -10.24827
 Alpha  occ. eigenvalues --  -10.24790 -10.24678 -10.24540 -10.24524 -10.24476
 Alpha  occ. eigenvalues --  -10.24463 -10.24425 -10.24378 -10.24288 -10.24211
 Alpha  occ. eigenvalues --  -10.24003  -3.18330  -1.93250  -1.92757  -1.92649
 Alpha  occ. eigenvalues --   -1.16403  -1.16220  -1.09831  -1.09705  -1.08013
 Alpha  occ. eigenvalues --   -1.06115  -1.06027  -1.05415  -1.03722  -1.02700
 Alpha  occ. eigenvalues --   -0.94017  -0.90356  -0.90124  -0.89773  -0.89290
 Alpha  occ. eigenvalues --   -0.89093  -0.88212  -0.88033  -0.87317  -0.87117
 Alpha  occ. eigenvalues --   -0.86646  -0.86128  -0.84428  -0.84205  -0.83742
 Alpha  occ. eigenvalues --   -0.82519  -0.82372  -0.81631  -0.80913  -0.80707
 Alpha  occ. eigenvalues --   -0.79826  -0.78385  -0.78263  -0.77763  -0.77163
 Alpha  occ. eigenvalues --   -0.75830  -0.75618  -0.75137  -0.74629  -0.74014
 Alpha  occ. eigenvalues --   -0.72839  -0.72743  -0.72255  -0.70289  -0.69794
 Alpha  occ. eigenvalues --   -0.69071  -0.68106  -0.67870  -0.66698  -0.66246
 Alpha  occ. eigenvalues --   -0.65681  -0.65061  -0.64910  -0.64785  -0.63505
 Alpha  occ. eigenvalues --   -0.63451  -0.63088  -0.62716  -0.62646  -0.60663
 Alpha  occ. eigenvalues --   -0.60203  -0.59785  -0.59513  -0.58832  -0.58192
 Alpha  occ. eigenvalues --   -0.57641  -0.56938  -0.56526  -0.56253  -0.55740
 Alpha  occ. eigenvalues --   -0.55220  -0.55092  -0.54958  -0.54123  -0.54061
 Alpha  occ. eigenvalues --   -0.53660  -0.53265  -0.53130  -0.53068  -0.52912
 Alpha  occ. eigenvalues --   -0.52721  -0.52605  -0.52545  -0.52107  -0.52027
 Alpha  occ. eigenvalues --   -0.51588  -0.51494  -0.51319  -0.51182  -0.51144
 Alpha  occ. eigenvalues --   -0.50451  -0.50436  -0.50264  -0.50042  -0.49818
 Alpha  occ. eigenvalues --   -0.49716  -0.49548  -0.49529  -0.49396  -0.49182
 Alpha  occ. eigenvalues --   -0.48877  -0.48737  -0.48274  -0.48064  -0.47933
 Alpha  occ. eigenvalues --   -0.47896  -0.47584  -0.47297  -0.47095  -0.46822
 Alpha  occ. eigenvalues --   -0.46665  -0.46162  -0.46092  -0.46018  -0.45838
 Alpha  occ. eigenvalues --   -0.45759  -0.45562  -0.45500  -0.45372  -0.45116
 Alpha  occ. eigenvalues --   -0.44997  -0.44647  -0.44629  -0.44369  -0.44053
 Alpha  occ. eigenvalues --   -0.43815  -0.43768  -0.43635  -0.43397  -0.43289
 Alpha  occ. eigenvalues --   -0.42988  -0.42817  -0.42594  -0.42441  -0.42167
 Alpha  occ. eigenvalues --   -0.42059  -0.41895  -0.41483  -0.41365  -0.41032
 Alpha  occ. eigenvalues --   -0.40962  -0.40817  -0.40522  -0.40351  -0.40279
 Alpha  occ. eigenvalues --   -0.40152  -0.39883  -0.39398  -0.38977  -0.38438
 Alpha  occ. eigenvalues --   -0.38429  -0.38143  -0.37886  -0.37770  -0.37440
 Alpha  occ. eigenvalues --   -0.37285  -0.37275  -0.37020  -0.36753  -0.36459
 Alpha  occ. eigenvalues --   -0.36198  -0.35680  -0.35212  -0.34828  -0.34633
 Alpha  occ. eigenvalues --   -0.33925  -0.33824  -0.33303  -0.31712  -0.31129
 Alpha  occ. eigenvalues --   -0.30565  -0.30090  -0.29719  -0.28556  -0.24317
 Alpha  occ. eigenvalues --   -0.21558
 Alpha virt. eigenvalues --   -0.09006  -0.02281   0.00016   0.01896   0.02220
 Alpha virt. eigenvalues --    0.04560   0.04789   0.04957   0.05299   0.05821
 Alpha virt. eigenvalues --    0.07485   0.07984   0.08610   0.08727   0.08993

 Mulliken charges:
               1
     1  Mg   0.820676
     2  C    0.013458
     3  C   -0.084359
     4  C   -0.083990
     5  C   -0.074497
     6  N   -0.210246
     7  C   -0.118231
     8  C   -0.029429
     9  C   -0.073824
    10  C    0.009177
    11  C    0.110586
    12  C    0.081234
    13  C    0.016177
    14  C    0.149343
    15  O   -0.246341
    16  O   -0.330831
    17  N   -0.319660
    18  C    0.142284
    19  C   -0.160658
    20  C   -0.021948
    21  C    0.132362
    22  C    0.134775
    23  C   -0.033902
    24  O   -0.224194
    25  C    0.086474
    26  N   -0.316828
    27  C    0.016252
    28  C    0.007826
    29  C   -0.038817
    30  C    0.011297
    31  C    0.086425
    32  C    0.044288
    33  C    0.002789
    34  N   -0.335027
    35  C    0.109834
    36  C   -0.211431
    37  C   -0.045726
    38  C    0.125048
    39  C    0.134421
    40  C    0.090942
    41  O   -0.176185
    42  C    0.006069
    43  C    0.170543
    44  O   -0.206122
    45  O   -0.361408
    46  C    0.186746
    47  C    0.309543
    48  C   -0.112649
    49  C   -0.145611
    50  C    0.076150
    51  C    0.039576
    52  C    0.046123
    53  C    0.039359
    54  C   -0.132573
    55  C    0.047760
    56  C    0.058878
    57  C    0.014042
    58  C    0.052775
    59  C   -0.152618
    60  C    0.065483
    61  C    0.014039
    62  C   -0.002916
    63  C    0.063097
    64  C   -0.153799
    65  C    0.022761
    66  C    0.065192
    67  H   -0.026440
    68  H   -0.060928
    69  H   -0.026670
    70  H    0.005542
    71  H    0.010482
    72  H    0.034412
    73  H    0.020296
    74  H    0.024281
    75  H   -0.004491
    76  H    0.034763
    77  H    0.051674
    78  H    0.056145
    79  H    0.037355
    80  H   -0.009413
    81  H    0.050450
    82  H    0.030958
    83  H    0.038690
    84  H    0.032138
    85  H    0.013261
    86  H    0.016594
    87  H    0.013855
    88  H    0.008755
    89  H    0.020001
    90  H    0.010715
    91  H    0.008771
    92  H    0.023627
    93  H    0.007354
    94  H    0.027920
    95  H    0.023135
    96  H    0.037274
    97  H    0.050085
    98  H    0.044453
    99  H    0.034708
   100  H    0.047966
   101  H    0.040943
   102  H    0.026149
   103  H    0.041107
   104  H    0.004142
   105  H    0.019078
   106  H    0.002468
   107  H    0.018009
   108  H    0.006600
   109  H   -0.012255
   110  H   -0.011543
   111  H   -0.005683
   112  H   -0.023761
   113  H   -0.007722
   114  H   -0.010296
   115  H    0.003421
   116  H    0.013882
   117  H    0.001414
   118  H    0.003057
   119  H   -0.012273
   120  H   -0.006284
   121  H    0.008119
   122  H   -0.002519
   123  H   -0.001202
   124  H   -0.008113
   125  H    0.014003
   126  H    0.008159
   127  H    0.006823
   128  H   -0.001611
   129  H   -0.013527
   130  H   -0.007218
   131  H   -0.004955
   132  H   -0.006407
   133  H   -0.008272
   134  H   -0.001754
   135  H    0.013801
   136  H    0.002788
   137  H    0.009591
   138  H    0.009422
   139  H   -0.005549
   140  H    0.010265
 Sum of Mulliken charges =  -0.00000

 Dipole moment (field-independent basis, Debye):
    X=              0.1010    Y=              5.9829    Z=             -0.5168  Tot=              6.0060
 Quadrupole moment (field-independent basis, Debye-Ang):
   XX=           -402.3774   YY=           -416.0038   ZZ=           -416.3242
   XY=            -38.4646   XZ=            -22.3639   YZ=            -26.1321

 Normal termination of Gaussian 16 at Thu Apr 28 14:44:24 2022.
