 Gaussian 16, Revision A.03,
 Gaussian 16:  ES64L-G16RevA.03 25-Dec-2016

 ---------------------------------
 #p PBE1PBE/Def2SVP td=(nstates=5)
 ---------------------------------

 ------------------------------------------------------
 step_1601_chromophore_26 TDDFT with PBE1PBE functional
 ------------------------------------------------------
 Symbolic Z-matrix:
 Charge =  0 Multiplicity = 1

                         Standard orientation:
 ---------------------------------------------------------------------
 Center     Atomic      Atomic             Coordinates (Angstroms)
 Number     Number       Type             X           Y           Z
 ---------------------------------------------------------------------
      1         12           0       -3.742442    1.152442    0.561602
      2          6           0       -5.353495   -1.946703   -0.226798
      3          6           0       -2.088686   -0.386339    3.035949
      4          6           0       -2.186041    4.063660    1.224217
      5          6           0       -5.300251    2.566039   -2.315372
      6          7           0       -3.712879   -1.032675    1.228654
      7          6           0       -4.421419   -2.041968    0.827388
      8          6           0       -4.006190   -3.299328    1.594584
      9          6           0       -3.266146   -2.673352    2.854509
     10          6           0       -2.940709   -1.288123    2.337804
     11          6           0       -4.129666   -2.620576    4.157886
     12          6           0       -3.201657   -4.305525    0.709291
     13          6           0       -2.162805   -3.817227   -0.261632
     14          6           0       -0.763978   -4.453932   -0.110060
     15          8           0       -0.397688   -5.553244    0.293708
     16          8           0        0.168609   -3.752761   -0.793173
     17          7           0       -2.364475    1.757852    1.985035
     18          6           0       -1.866036    0.985109    2.917514
     19          6           0       -1.105554    1.721443    3.883253
     20          6           0       -1.019392    3.045911    3.321643
     21          6           0       -1.853471    2.985221    2.114134
     22          6           0       -0.334152    1.208533    5.080196
     23          6           0       -0.334016    4.237717    3.967459
     24          8           0        0.092975    4.158803    5.114297
     25          6           0        0.028974    5.531180    3.383155
     26          7           0       -3.686816    3.075103   -0.443682
     27          6           0       -3.033774    4.177765    0.048600
     28          6           0       -3.372214    5.397306   -0.751107
     29          6           0       -4.301468    4.910077   -1.917550
     30          6           0       -4.486245    3.443238   -1.555386
     31          6           0       -4.073725    6.464562   -0.046621
     32          6           0       -3.622042    5.086851   -3.292354
     33          6           0       -4.083178    6.341061   -4.198025
     34          7           0       -4.923639    0.509415   -1.043043
     35          6           0       -5.450870    1.147496   -2.095298
     36          6           0       -6.250072    0.222514   -2.944608
     37          6           0       -6.238752   -0.992875   -2.181458
     38          6           0       -5.489309   -0.770598   -1.051534
     39          6           0       -6.934184    0.456861   -4.211244
     40          6           0       -6.799939   -2.379336   -2.139685
     41          8           0       -7.382127   -3.021486   -3.023449
     42          6           0       -6.249185   -2.962584   -0.853278
     43          6           0       -7.342815   -3.439747    0.000900
     44          8           0       -7.378592   -4.559956    0.468514
     45          8           0       -8.205570   -2.429504    0.384461
     46          6           0       -9.130978   -2.648619    1.525019
     47          6           0        1.426080   -4.405220   -1.138257
     48          6           0        2.143600   -3.209011   -1.736389
     49          6           0        3.443636   -2.835386   -1.448388
     50          6           0        4.415419   -3.527641   -0.515418
     51          6           0        4.077079   -1.941335   -2.483438
     52          6           0        3.806216   -0.439408   -2.405251
     53          6           0        4.918543    0.415044   -2.960985
     54          6           0        5.836859    1.094971   -1.936022
     55          6           0        6.145039    2.536151   -2.432587
     56          6           0        7.144244    0.305732   -1.587014
     57          6           0        7.456779    0.449287   -0.027602
     58          6           0        7.956409   -0.862236    0.566409
     59          6           0        9.394581   -0.735990    1.150531
     60          6           0        9.857832   -1.997807    1.934463
     61          6           0       10.374713   -0.357412   -0.029292
     62          6           0       11.674698    0.290945    0.550233
     63          6           0       13.010474   -0.436811    0.264844
     64          6           0       14.047454    0.458819   -0.543827
     65          6           0       14.322708   -0.145697   -1.950869
     66          6           0       15.362872    0.575153    0.188815
     67          1           0       -1.513949   -0.828639    3.852088
     68          1           0       -1.688581    5.006346    1.461791
     69          1           0       -5.753526    2.979871   -3.218012
     70          1           0       -4.947979   -3.782831    1.858310
     71          1           0       -2.390306   -3.309550    2.979896
     72          1           0       -4.249737   -1.565225    4.404529
     73          1           0       -3.461100   -3.105856    4.868664
     74          1           0       -4.950303   -3.284267    3.886841
     75          1           0       -3.904657   -4.570707   -0.079427
     76          1           0       -3.020700   -5.215358    1.282179
     77          1           0       -2.113895   -2.751711   -0.040346
     78          1           0       -2.399374   -4.004678   -1.310033
     79          1           0        0.696519    0.948602    4.835838
     80          1           0       -0.758613    0.253442    5.389472
     81          1           0       -0.441397    1.890047    5.924396
     82          1           0       -0.962753    5.934477    3.179433
     83          1           0        0.638276    5.398629    2.488732
     84          1           0        0.533257    6.154721    4.122273
     85          1           0       -2.398607    5.723156   -1.117762
     86          1           0       -5.325135    5.263873   -1.793648
     87          1           0       -3.389242    7.047563    0.568565
     88          1           0       -4.795648    6.017304    0.637412
     89          1           0       -4.659185    7.082600   -0.727353
     90          1           0       -3.841205    4.176464   -3.849668
     91          1           0       -2.560498    5.142590   -3.053180
     92          1           0       -3.321876    7.111839   -4.314487
     93          1           0       -4.888487    6.753720   -3.589689
     94          1           0       -4.457092    6.058391   -5.182249
     95          1           0       -6.328514    1.228474   -4.688642
     96          1           0       -7.931708    0.821002   -3.965528
     97          1           0       -6.988579   -0.546305   -4.632438
     98          1           0       -5.833265   -3.940250   -1.095364
     99          1           0       -8.623039   -3.016379    2.416562
    100          1           0       -9.910147   -3.353374    1.235312
    101          1           0       -9.524405   -1.660120    1.763829
    102          1           0        1.269560   -5.080851   -1.978183
    103          1           0        1.889672   -4.894384   -0.281101
    104          1           0        1.681463   -2.499423   -2.423040
    105          1           0        5.137523   -4.111459   -1.086725
    106          1           0        3.972372   -4.270392    0.147403
    107          1           0        5.024735   -2.825370    0.053175
    108          1           0        3.701489   -2.267358   -3.453425
    109          1           0        5.161167   -2.006789   -2.575391
    110          1           0        3.661791   -0.084982   -1.384515
    111          1           0        2.872761   -0.243548   -2.933293
    112          1           0        4.414762    1.257991   -3.433355
    113          1           0        5.469468   -0.096008   -3.750827
    114          1           0        5.252418    1.224328   -1.024934
    115          1           0        5.271632    3.162544   -2.256859
    116          1           0        6.355098    2.500967   -3.501356
    117          1           0        6.943451    2.977043   -1.836006
    118          1           0        8.005585    0.600330   -2.186169
    119          1           0        6.934781   -0.741689   -1.803783
    120          1           0        6.530998    0.646121    0.513048
    121          1           0        8.153210    1.266000    0.160120
    122          1           0        8.098626   -1.614332   -0.210034
    123          1           0        7.230972   -1.179622    1.315727
    124          1           0        9.489247    0.125256    1.810527
    125          1           0       10.850465   -1.871917    2.367760
    126          1           0        9.775655   -2.875225    1.293002
    127          1           0        9.125769   -2.076898    2.737636
    128          1           0       10.011073    0.348947   -0.776548
    129          1           0       10.644477   -1.251637   -0.589883
    130          1           0       11.504366    0.365981    1.623658
    131          1           0       11.643435    1.342247    0.259852
    132          1           0       12.910714   -1.366102   -0.296780
    133          1           0       13.434610   -0.727108    1.225137
    134          1           0       13.499423    1.373452   -0.768562
    135          1           0       15.051889    0.454894   -2.495927
    136          1           0       13.386633   -0.161627   -2.508914
    137          1           0       14.677799   -1.170816   -1.841704
    138          1           0       16.090668   -0.119723   -0.230505
    139          1           0       15.270682    0.304031    1.240468
    140          1           0       15.697343    1.610129    0.250501
 ---------------------------------------------------------------------

 SCF Done:  E(RPBE1PBE) =  -3005.35305041     A.U. after   15 cycles

 Excitation energies and oscillator strengths:

 Excited State   1:      Singlet-A      1.8779 eV  660.22 nm  f=0.3505  <S**2>=0.000
     245 -> 248       -0.18919
     246 -> 247        0.68939
     246 <- 247       -0.10296
 This state for optimization and/or second-order correction.
 Total Energy, E(TD-HF/TD-DFT) =  -3005.28403765
 Copying the excited state density for this state as the 1-particle RhoCI density.

 Excited State   2:      Singlet-A      2.2582 eV  549.05 nm  f=0.0994  <S**2>=0.000
     245 -> 247        0.64522
     246 -> 248        0.28272

 Excited State   3:      Singlet-A      2.8139 eV  440.61 nm  f=0.0002  <S**2>=0.000
     243 -> 247        0.67497
     243 -> 249        0.13462
     243 -> 250        0.13567

 Excited State   4:      Singlet-A      2.9631 eV  418.43 nm  f=0.0000  <S**2>=0.000
     244 -> 247        0.70694

 Excited State   5:      Singlet-A      3.0510 eV  406.37 nm  f=0.0044  <S**2>=0.000
     240 -> 247       -0.13713
     242 -> 247        0.67669

 The electronic state is 1-A.
 Alpha  occ. eigenvalues --  -46.93313 -19.25621 -19.23947 -19.20483 -19.20066
 Alpha  occ. eigenvalues --  -19.19136 -19.18069 -14.42175 -14.42030 -14.39647
 Alpha  occ. eigenvalues --  -14.39589 -10.36711 -10.35681 -10.33012 -10.31619
 Alpha  occ. eigenvalues --  -10.29803 -10.29726 -10.29384 -10.29247 -10.29146
 Alpha  occ. eigenvalues --  -10.28853 -10.28831 -10.28225 -10.27246 -10.27215
 Alpha  occ. eigenvalues --  -10.26777 -10.26160 -10.26140 -10.26049 -10.26035
 Alpha  occ. eigenvalues --  -10.25842 -10.25789 -10.25666 -10.25587 -10.25581
 Alpha  occ. eigenvalues --  -10.25380 -10.25253 -10.25158 -10.25081 -10.24327
 Alpha  occ. eigenvalues --  -10.24300 -10.24110 -10.23966 -10.23788 -10.23659
 Alpha  occ. eigenvalues --  -10.23384 -10.23240 -10.23211 -10.23184 -10.23046
 Alpha  occ. eigenvalues --  -10.23012 -10.22991 -10.22957 -10.22662 -10.22383
 Alpha  occ. eigenvalues --  -10.22331 -10.22114 -10.22074 -10.22057 -10.22040
 Alpha  occ. eigenvalues --  -10.22004 -10.21983 -10.21768 -10.21767 -10.21675
 Alpha  occ. eigenvalues --  -10.21368  -3.15276  -1.88137  -1.87621  -1.87517
 Alpha  occ. eigenvalues --   -1.11231  -1.10937  -1.04553  -1.04419  -1.02820
 Alpha  occ. eigenvalues --   -1.00893  -1.00740  -1.00023  -0.98404  -0.97307
 Alpha  occ. eigenvalues --   -0.88363  -0.84468  -0.84448  -0.83962  -0.83399
 Alpha  occ. eigenvalues --   -0.83362  -0.82381  -0.82294  -0.81456  -0.81421
 Alpha  occ. eigenvalues --   -0.80913  -0.80380  -0.78668  -0.78493  -0.77927
 Alpha  occ. eigenvalues --   -0.76715  -0.76553  -0.75884  -0.75200  -0.74995
 Alpha  occ. eigenvalues --   -0.73958  -0.72662  -0.72561  -0.72024  -0.71446
 Alpha  occ. eigenvalues --   -0.70066  -0.69903  -0.69215  -0.68751  -0.68163
 Alpha  occ. eigenvalues --   -0.67237  -0.67168  -0.66641  -0.64592  -0.64173
 Alpha  occ. eigenvalues --   -0.63564  -0.62513  -0.62100  -0.61155  -0.60482
 Alpha  occ. eigenvalues --   -0.60123  -0.59591  -0.59377  -0.59069  -0.57960
 Alpha  occ. eigenvalues --   -0.57608  -0.57236  -0.57194  -0.56833  -0.55204
 Alpha  occ. eigenvalues --   -0.54625  -0.54353  -0.54072  -0.53367  -0.52734
 Alpha  occ. eigenvalues --   -0.52031  -0.51441  -0.50936  -0.50764  -0.50297
 Alpha  occ. eigenvalues --   -0.49782  -0.49520  -0.49394  -0.48708  -0.48527
 Alpha  occ. eigenvalues --   -0.48309  -0.47770  -0.47610  -0.47485  -0.47416
 Alpha  occ. eigenvalues --   -0.47234  -0.47116  -0.46987  -0.46647  -0.46597
 Alpha  occ. eigenvalues --   -0.46135  -0.46101  -0.45806  -0.45696  -0.45667
 Alpha  occ. eigenvalues --   -0.45078  -0.45002  -0.44831  -0.44568  -0.44413
 Alpha  occ. eigenvalues --   -0.44344  -0.44167  -0.44076  -0.43947  -0.43834
 Alpha  occ. eigenvalues --   -0.43493  -0.43255  -0.42930  -0.42765  -0.42606
 Alpha  occ. eigenvalues --   -0.42478  -0.42200  -0.41955  -0.41778  -0.41524
 Alpha  occ. eigenvalues --   -0.41376  -0.40856  -0.40767  -0.40705  -0.40489
 Alpha  occ. eigenvalues --   -0.40456  -0.40298  -0.40195  -0.40019  -0.39835
 Alpha  occ. eigenvalues --   -0.39678  -0.39418  -0.39271  -0.39144  -0.38880
 Alpha  occ. eigenvalues --   -0.38592  -0.38551  -0.38304  -0.38244  -0.37947
 Alpha  occ. eigenvalues --   -0.37795  -0.37553  -0.37424  -0.37283  -0.36972
 Alpha  occ. eigenvalues --   -0.36903  -0.36779  -0.36287  -0.36188  -0.35839
 Alpha  occ. eigenvalues --   -0.35706  -0.35652  -0.35288  -0.35276  -0.35049
 Alpha  occ. eigenvalues --   -0.35014  -0.34634  -0.34178  -0.33950  -0.33403
 Alpha  occ. eigenvalues --   -0.33192  -0.32931  -0.32731  -0.32706  -0.32307
 Alpha  occ. eigenvalues --   -0.32260  -0.32072  -0.31942  -0.31810  -0.31318
 Alpha  occ. eigenvalues --   -0.30989  -0.30609  -0.30129  -0.30000  -0.29585
 Alpha  occ. eigenvalues --   -0.29271  -0.28915  -0.28067  -0.27085  -0.26266
 Alpha  occ. eigenvalues --   -0.26080  -0.25431  -0.24765  -0.23874  -0.21282
 Alpha  occ. eigenvalues --   -0.19174
 Alpha virt. eigenvalues --   -0.11450  -0.05715  -0.04248  -0.02529  -0.00520
 Alpha virt. eigenvalues --   -0.00036   0.00487   0.00701   0.00914   0.01979
 Alpha virt. eigenvalues --    0.03390   0.03995   0.04914   0.05516   0.05577

 Mulliken charges:
               1
     1  Mg   0.965516
     2  C   -0.008258
     3  C   -0.068637
     4  C   -0.077617
     5  C   -0.062300
     6  N   -0.317537
     7  C   -0.032961
     8  C   -0.099485
     9  C   -0.146659
    10  C    0.040138
    11  C    0.051352
    12  C    0.026452
    13  C   -0.064836
    14  C    0.221556
    15  O   -0.279907
    16  O   -0.361774
    17  N   -0.448150
    18  C    0.157198
    19  C   -0.174347
    20  C   -0.072199
    21  C    0.156799
    22  C    0.075104
    23  C    0.014934
    24  O   -0.256571
    25  C    0.008153
    26  N   -0.413855
    27  C    0.064793
    28  C   -0.077737
    29  C   -0.121338
    30  C    0.052017
    31  C    0.026488
    32  C   -0.013093
    33  C   -0.069146
    34  N   -0.458357
    35  C    0.133326
    36  C   -0.227806
    37  C   -0.088746
    38  C    0.173576
    39  C    0.070745
    40  C    0.190058
    41  O   -0.223287
    42  C   -0.108585
    43  C    0.269503
    44  O   -0.244440
    45  O   -0.391456
    46  C    0.132346
    47  C    0.269314
    48  C   -0.129256
    49  C   -0.181321
    50  C    0.009107
    51  C   -0.033019
    52  C   -0.011101
    53  C   -0.022075
    54  C   -0.213428
    55  C   -0.016909
    56  C    0.002511
    57  C   -0.049591
    58  C   -0.001532
    59  C   -0.246742
    60  C    0.006348
    61  C   -0.033023
    62  C   -0.065210
    63  C    0.013319
    64  C   -0.245561
    65  C   -0.042660
    66  C    0.004088
    67  H    0.005243
    68  H   -0.022487
    69  H    0.004806
    70  H    0.046165
    71  H    0.047491
    72  H    0.062657
    73  H    0.048261
    74  H    0.051987
    75  H    0.034402
    76  H    0.064953
    77  H    0.089401
    78  H    0.086488
    79  H    0.064904
    80  H    0.018203
    81  H    0.076689
    82  H    0.056334
    83  H    0.065357
    84  H    0.059929
    85  H    0.049313
    86  H    0.052470
    87  H    0.041833
    88  H    0.037982
    89  H    0.048682
    90  H    0.044097
    91  H    0.041410
    92  H    0.051065
    93  H    0.035578
    94  H    0.054700
    95  H    0.050713
    96  H    0.066882
    97  H    0.078278
    98  H    0.081453
    99  H    0.055535
   100  H    0.069213
   101  H    0.062419
   102  H    0.054810
   103  H    0.065803
   104  H    0.034374
   105  H    0.046957
   106  H    0.030161
   107  H    0.048500
   108  H    0.040779
   109  H    0.021739
   110  H    0.022009
   111  H    0.026673
   112  H    0.011599
   113  H    0.024739
   114  H    0.027321
   115  H    0.032199
   116  H    0.041907
   117  H    0.030407
   118  H    0.034108
   119  H    0.024793
   120  H    0.026914
   121  H    0.039821
   122  H    0.029759
   123  H    0.030516
   124  H    0.030855
   125  H    0.041555
   126  H    0.035236
   127  H    0.035759
   128  H    0.031497
   129  H    0.018916
   130  H    0.025151
   131  H    0.026279
   132  H    0.024787
   133  H    0.023369
   134  H    0.035816
   135  H    0.042554
   136  H    0.032276
   137  H    0.037204
   138  H    0.036110
   139  H    0.021985
   140  H    0.038125
 Sum of Mulliken charges =  -0.00000

 Dipole moment (field-independent basis, Debye):
    X=              0.0902    Y=              6.0531    Z=             -0.6524  Tot=              6.0889
 Quadrupole moment (field-independent basis, Debye-Ang):
   XX=           -399.4055   YY=           -411.9600   ZZ=           -412.7665
   XY=            -39.3421   XZ=            -21.5232   YZ=            -27.3554

 Normal termination of Gaussian 16 at Thu Apr 28 15:03:50 2022.
