 Gaussian 16, Revision A.03,
 Gaussian 16:  ES64L-G16RevA.03 25-Dec-2016

 --------------------------------
 #p wB97XD/Def2SVP td=(nstates=5)
 --------------------------------

 -----------------------------------------------------
 step_1601_chromophore_26 TDDFT with wB97XD functional
 -----------------------------------------------------
 Symbolic Z-matrix:
 Charge =  0 Multiplicity = 1

                         Standard orientation:
 ---------------------------------------------------------------------
 Center     Atomic      Atomic             Coordinates (Angstroms)
 Number     Number       Type             X           Y           Z
 ---------------------------------------------------------------------
      1         12           0       -3.742442    1.152442    0.561602
      2          6           0       -5.353495   -1.946703   -0.226798
      3          6           0       -2.088686   -0.386339    3.035949
      4          6           0       -2.186041    4.063660    1.224217
      5          6           0       -5.300251    2.566039   -2.315372
      6          7           0       -3.712879   -1.032675    1.228654
      7          6           0       -4.421419   -2.041968    0.827388
      8          6           0       -4.006190   -3.299328    1.594584
      9          6           0       -3.266146   -2.673352    2.854509
     10          6           0       -2.940709   -1.288123    2.337804
     11          6           0       -4.129666   -2.620576    4.157886
     12          6           0       -3.201657   -4.305525    0.709291
     13          6           0       -2.162805   -3.817227   -0.261632
     14          6           0       -0.763978   -4.453932   -0.110060
     15          8           0       -0.397688   -5.553244    0.293708
     16          8           0        0.168609   -3.752761   -0.793173
     17          7           0       -2.364475    1.757852    1.985035
     18          6           0       -1.866036    0.985109    2.917514
     19          6           0       -1.105554    1.721443    3.883253
     20          6           0       -1.019392    3.045911    3.321643
     21          6           0       -1.853471    2.985221    2.114134
     22          6           0       -0.334152    1.208533    5.080196
     23          6           0       -0.334016    4.237717    3.967459
     24          8           0        0.092975    4.158803    5.114297
     25          6           0        0.028974    5.531180    3.383155
     26          7           0       -3.686816    3.075103   -0.443682
     27          6           0       -3.033774    4.177765    0.048600
     28          6           0       -3.372214    5.397306   -0.751107
     29          6           0       -4.301468    4.910077   -1.917550
     30          6           0       -4.486245    3.443238   -1.555386
     31          6           0       -4.073725    6.464562   -0.046621
     32          6           0       -3.622042    5.086851   -3.292354
     33          6           0       -4.083178    6.341061   -4.198025
     34          7           0       -4.923639    0.509415   -1.043043
     35          6           0       -5.450870    1.147496   -2.095298
     36          6           0       -6.250072    0.222514   -2.944608
     37          6           0       -6.238752   -0.992875   -2.181458
     38          6           0       -5.489309   -0.770598   -1.051534
     39          6           0       -6.934184    0.456861   -4.211244
     40          6           0       -6.799939   -2.379336   -2.139685
     41          8           0       -7.382127   -3.021486   -3.023449
     42          6           0       -6.249185   -2.962584   -0.853278
     43          6           0       -7.342815   -3.439747    0.000900
     44          8           0       -7.378592   -4.559956    0.468514
     45          8           0       -8.205570   -2.429504    0.384461
     46          6           0       -9.130978   -2.648619    1.525019
     47          6           0        1.426080   -4.405220   -1.138257
     48          6           0        2.143600   -3.209011   -1.736389
     49          6           0        3.443636   -2.835386   -1.448388
     50          6           0        4.415419   -3.527641   -0.515418
     51          6           0        4.077079   -1.941335   -2.483438
     52          6           0        3.806216   -0.439408   -2.405251
     53          6           0        4.918543    0.415044   -2.960985
     54          6           0        5.836859    1.094971   -1.936022
     55          6           0        6.145039    2.536151   -2.432587
     56          6           0        7.144244    0.305732   -1.587014
     57          6           0        7.456779    0.449287   -0.027602
     58          6           0        7.956409   -0.862236    0.566409
     59          6           0        9.394581   -0.735990    1.150531
     60          6           0        9.857832   -1.997807    1.934463
     61          6           0       10.374713   -0.357412   -0.029292
     62          6           0       11.674698    0.290945    0.550233
     63          6           0       13.010474   -0.436811    0.264844
     64          6           0       14.047454    0.458819   -0.543827
     65          6           0       14.322708   -0.145697   -1.950869
     66          6           0       15.362872    0.575153    0.188815
     67          1           0       -1.513949   -0.828639    3.852088
     68          1           0       -1.688581    5.006346    1.461791
     69          1           0       -5.753526    2.979871   -3.218012
     70          1           0       -4.947979   -3.782831    1.858310
     71          1           0       -2.390306   -3.309550    2.979896
     72          1           0       -4.249737   -1.565225    4.404529
     73          1           0       -3.461100   -3.105856    4.868664
     74          1           0       -4.950303   -3.284267    3.886841
     75          1           0       -3.904657   -4.570707   -0.079427
     76          1           0       -3.020700   -5.215358    1.282179
     77          1           0       -2.113895   -2.751711   -0.040346
     78          1           0       -2.399374   -4.004678   -1.310033
     79          1           0        0.696519    0.948602    4.835838
     80          1           0       -0.758613    0.253442    5.389472
     81          1           0       -0.441397    1.890047    5.924396
     82          1           0       -0.962753    5.934477    3.179433
     83          1           0        0.638276    5.398629    2.488732
     84          1           0        0.533257    6.154721    4.122273
     85          1           0       -2.398607    5.723156   -1.117762
     86          1           0       -5.325135    5.263873   -1.793648
     87          1           0       -3.389242    7.047563    0.568565
     88          1           0       -4.795648    6.017304    0.637412
     89          1           0       -4.659185    7.082600   -0.727353
     90          1           0       -3.841205    4.176464   -3.849668
     91          1           0       -2.560498    5.142590   -3.053180
     92          1           0       -3.321876    7.111839   -4.314487
     93          1           0       -4.888487    6.753720   -3.589689
     94          1           0       -4.457092    6.058391   -5.182249
     95          1           0       -6.328514    1.228474   -4.688642
     96          1           0       -7.931708    0.821002   -3.965528
     97          1           0       -6.988579   -0.546305   -4.632438
     98          1           0       -5.833265   -3.940250   -1.095364
     99          1           0       -8.623039   -3.016379    2.416562
    100          1           0       -9.910147   -3.353374    1.235312
    101          1           0       -9.524405   -1.660120    1.763829
    102          1           0        1.269560   -5.080851   -1.978183
    103          1           0        1.889672   -4.894384   -0.281101
    104          1           0        1.681463   -2.499423   -2.423040
    105          1           0        5.137523   -4.111459   -1.086725
    106          1           0        3.972372   -4.270392    0.147403
    107          1           0        5.024735   -2.825370    0.053175
    108          1           0        3.701489   -2.267358   -3.453425
    109          1           0        5.161167   -2.006789   -2.575391
    110          1           0        3.661791   -0.084982   -1.384515
    111          1           0        2.872761   -0.243548   -2.933293
    112          1           0        4.414762    1.257991   -3.433355
    113          1           0        5.469468   -0.096008   -3.750827
    114          1           0        5.252418    1.224328   -1.024934
    115          1           0        5.271632    3.162544   -2.256859
    116          1           0        6.355098    2.500967   -3.501356
    117          1           0        6.943451    2.977043   -1.836006
    118          1           0        8.005585    0.600330   -2.186169
    119          1           0        6.934781   -0.741689   -1.803783
    120          1           0        6.530998    0.646121    0.513048
    121          1           0        8.153210    1.266000    0.160120
    122          1           0        8.098626   -1.614332   -0.210034
    123          1           0        7.230972   -1.179622    1.315727
    124          1           0        9.489247    0.125256    1.810527
    125          1           0       10.850465   -1.871917    2.367760
    126          1           0        9.775655   -2.875225    1.293002
    127          1           0        9.125769   -2.076898    2.737636
    128          1           0       10.011073    0.348947   -0.776548
    129          1           0       10.644477   -1.251637   -0.589883
    130          1           0       11.504366    0.365981    1.623658
    131          1           0       11.643435    1.342247    0.259852
    132          1           0       12.910714   -1.366102   -0.296780
    133          1           0       13.434610   -0.727108    1.225137
    134          1           0       13.499423    1.373452   -0.768562
    135          1           0       15.051889    0.454894   -2.495927
    136          1           0       13.386633   -0.161627   -2.508914
    137          1           0       14.677799   -1.170816   -1.841704
    138          1           0       16.090668   -0.119723   -0.230505
    139          1           0       15.270682    0.304031    1.240468
    140          1           0       15.697343    1.610129    0.250501
 ---------------------------------------------------------------------

 SCF Done:  E(RwB97XD) =  -3007.86066602     A.U. after   18 cycles

 Excitation energies and oscillator strengths:

 Excited State   1:      Singlet-A      1.6583 eV  747.68 nm  f=0.3595  <S**2>=0.000
     245 -> 248       -0.19961
     246 -> 247        0.68083
     245 <- 248       -0.12227
 This state for optimization and/or second-order correction.
 Total Energy, E(TD-HF/TD-DFT) =  -3007.79972602
 Copying the excited state density for this state as the 1-particle RhoCI density.

 Excited State   2:      Singlet-A      2.1920 eV  565.62 nm  f=0.0981  <S**2>=0.000
     245 -> 247        0.63134
     246 -> 248        0.31021

 Excited State   3:      Singlet-A      3.4073 eV  363.87 nm  f=0.0032  <S**2>=0.000
     240 -> 247       -0.11644
     243 -> 247        0.66810

 Excited State   4:      Singlet-A      3.4345 eV  361.00 nm  f=0.0007  <S**2>=0.000
     242 -> 247        0.51995
     242 -> 248        0.10440
     242 -> 249        0.28928
     242 -> 250        0.31928

 Excited State   5:      Singlet-A      3.5465 eV  349.59 nm  f=0.5549  <S**2>=0.000
     240 -> 247        0.13393
     241 -> 247       -0.26128
     245 -> 247       -0.26083
     246 -> 248        0.56466
     245 <- 247        0.10985

 The electronic state is 1-A.
 Alpha  occ. eigenvalues --  -46.96275 -19.30244 -19.28494 -19.25232 -19.24926
 Alpha  occ. eigenvalues --  -19.23771 -19.22866 -14.47200 -14.47169 -14.44626
 Alpha  occ. eigenvalues --  -14.44578 -10.43573 -10.42431 -10.39900 -10.38438
 Alpha  occ. eigenvalues --  -10.36277 -10.36188 -10.35642 -10.35622 -10.35578
 Alpha  occ. eigenvalues --  -10.35335 -10.35101 -10.34490 -10.33674 -10.33479
 Alpha  occ. eigenvalues --  -10.33206 -10.32634 -10.32620 -10.32361 -10.32312
 Alpha  occ. eigenvalues --  -10.32107 -10.32085 -10.32017 -10.31923 -10.31833
 Alpha  occ. eigenvalues --  -10.31681 -10.31673 -10.31615 -10.31432 -10.30663
 Alpha  occ. eigenvalues --  -10.30642 -10.30476 -10.30355 -10.30190 -10.30036
 Alpha  occ. eigenvalues --  -10.29783 -10.29750 -10.29651 -10.29518 -10.29408
 Alpha  occ. eigenvalues --  -10.29362 -10.29325 -10.29283 -10.29033 -10.28748
 Alpha  occ. eigenvalues --  -10.28713 -10.28503 -10.28464 -10.28434 -10.28396
 Alpha  occ. eigenvalues --  -10.28357 -10.28355 -10.28204 -10.28126 -10.28106
 Alpha  occ. eigenvalues --  -10.27800  -3.22112  -1.95719  -1.95203  -1.95097
 Alpha  occ. eigenvalues --   -1.18576  -1.18387  -1.12032  -1.11951  -1.10227
 Alpha  occ. eigenvalues --   -1.08217  -1.08148  -1.07432  -1.05738  -1.04691
 Alpha  occ. eigenvalues --   -0.96017  -0.92132  -0.91993  -0.91604  -0.91057
 Alpha  occ. eigenvalues --   -0.91021  -0.90006  -0.89922  -0.89088  -0.89046
 Alpha  occ. eigenvalues --   -0.88604  -0.88034  -0.86320  -0.86108  -0.85590
 Alpha  occ. eigenvalues --   -0.84364  -0.84280  -0.83539  -0.82827  -0.82631
 Alpha  occ. eigenvalues --   -0.81636  -0.80311  -0.80191  -0.79694  -0.79085
 Alpha  occ. eigenvalues --   -0.77692  -0.77536  -0.76916  -0.76441  -0.75837
 Alpha  occ. eigenvalues --   -0.74789  -0.74716  -0.74212  -0.72212  -0.71714
 Alpha  occ. eigenvalues --   -0.71093  -0.70094  -0.69747  -0.68640  -0.68107
 Alpha  occ. eigenvalues --   -0.67628  -0.67037  -0.66857  -0.66693  -0.65443
 Alpha  occ. eigenvalues --   -0.65301  -0.64896  -0.64660  -0.64483  -0.62662
 Alpha  occ. eigenvalues --   -0.62119  -0.61749  -0.61515  -0.60787  -0.60168
 Alpha  occ. eigenvalues --   -0.59537  -0.58876  -0.58420  -0.58213  -0.57712
 Alpha  occ. eigenvalues --   -0.57183  -0.56979  -0.56852  -0.56071  -0.55948
 Alpha  occ. eigenvalues --   -0.55612  -0.55159  -0.55042  -0.54931  -0.54840
 Alpha  occ. eigenvalues --   -0.54648  -0.54516  -0.54408  -0.53998  -0.53948
 Alpha  occ. eigenvalues --   -0.53515  -0.53441  -0.53194  -0.53087  -0.53052
 Alpha  occ. eigenvalues --   -0.52389  -0.52344  -0.52154  -0.51913  -0.51767
 Alpha  occ. eigenvalues --   -0.51633  -0.51466  -0.51410  -0.51263  -0.51104
 Alpha  occ. eigenvalues --   -0.50808  -0.50595  -0.50188  -0.49986  -0.49835
 Alpha  occ. eigenvalues --   -0.49798  -0.49547  -0.49195  -0.49018  -0.48755
 Alpha  occ. eigenvalues --   -0.48596  -0.48090  -0.47952  -0.47942  -0.47707
 Alpha  occ. eigenvalues --   -0.47668  -0.47472  -0.47395  -0.47244  -0.47011
 Alpha  occ. eigenvalues --   -0.46880  -0.46571  -0.46485  -0.46292  -0.45992
 Alpha  occ. eigenvalues --   -0.45723  -0.45672  -0.45472  -0.45313  -0.45132
 Alpha  occ. eigenvalues --   -0.44943  -0.44679  -0.44543  -0.44347  -0.44177
 Alpha  occ. eigenvalues --   -0.43986  -0.43790  -0.43467  -0.43290  -0.42916
 Alpha  occ. eigenvalues --   -0.42811  -0.42698  -0.42364  -0.42254  -0.42126
 Alpha  occ. eigenvalues --   -0.42048  -0.41717  -0.41236  -0.40874  -0.40368
 Alpha  occ. eigenvalues --   -0.40264  -0.39969  -0.39819  -0.39720  -0.39297
 Alpha  occ. eigenvalues --   -0.39241  -0.39116  -0.39036  -0.38695  -0.38300
 Alpha  occ. eigenvalues --   -0.38032  -0.37679  -0.37196  -0.36826  -0.36464
 Alpha  occ. eigenvalues --   -0.36038  -0.35751  -0.35196  -0.33799  -0.33242
 Alpha  occ. eigenvalues --   -0.32763  -0.32000  -0.31913  -0.30581  -0.26221
 Alpha  occ. eigenvalues --   -0.23354
 Alpha virt. eigenvalues --   -0.07357  -0.00390   0.02067   0.03994   0.05335
 Alpha virt. eigenvalues --    0.06758   0.07181   0.07446   0.07714   0.08311
 Alpha virt. eigenvalues --    0.09980   0.10858   0.11581   0.12235   0.12345

 Mulliken charges:
               1
     1  Mg   0.957298
     2  C   -0.005510
     3  C   -0.086544
     4  C   -0.092724
     5  C   -0.084625
     6  N   -0.279049
     7  C   -0.073891
     8  C   -0.069036
     9  C   -0.125601
    10  C    0.026655
    11  C    0.061947
    12  C    0.038290
    13  C   -0.041670
    14  C    0.209113
    15  O   -0.277220
    16  O   -0.360275
    17  N   -0.410141
    18  C    0.151299
    19  C   -0.170848
    20  C   -0.067887
    21  C    0.155870
    22  C    0.088400
    23  C    0.012715
    24  O   -0.253410
    25  C    0.021034
    26  N   -0.386440
    27  C    0.046674
    28  C   -0.047756
    29  C   -0.092595
    30  C    0.040869
    31  C    0.036669
    32  C   -0.000307
    33  C   -0.050873
    34  N   -0.422708
    35  C    0.125674
    36  C   -0.223382
    37  C   -0.086330
    38  C    0.156471
    39  C    0.085189
    40  C    0.167877
    41  O   -0.212315
    42  C   -0.065274
    43  C    0.242775
    44  O   -0.237861
    45  O   -0.391400
    46  C    0.146678
    47  C    0.279710
    48  C   -0.133196
    49  C   -0.173705
    50  C    0.026321
    51  C   -0.007417
    52  C    0.002480
    53  C   -0.004916
    54  C   -0.184254
    55  C   -0.002381
    56  C    0.020520
    57  C   -0.032471
    58  C    0.015499
    59  C   -0.206941
    60  C    0.017418
    61  C   -0.023255
    62  C   -0.046216
    63  C    0.025442
    64  C   -0.215843
    65  C   -0.027515
    66  C    0.015590
    67  H   -0.000913
    68  H   -0.036652
    69  H   -0.000493
    70  H    0.032469
    71  H    0.038442
    72  H    0.055950
    73  H    0.043088
    74  H    0.046039
    75  H    0.019806
    76  H    0.061137
    77  H    0.075356
    78  H    0.082100
    79  H    0.061253
    80  H    0.011903
    81  H    0.073916
    82  H    0.050087
    83  H    0.061636
    84  H    0.059256
    85  H    0.039405
    86  H    0.041501
    87  H    0.036965
    88  H    0.031084
    89  H    0.041894
    90  H    0.034558
    91  H    0.033136
    92  H    0.045506
    93  H    0.026941
    94  H    0.049828
    95  H    0.043881
    96  H    0.061508
    97  H    0.073870
    98  H    0.074642
    99  H    0.051669
   100  H    0.065752
   101  H    0.059501
   102  H    0.050337
   103  H    0.061177
   104  H    0.030894
   105  H    0.040690
   106  H    0.024130
   107  H    0.041427
   108  H    0.032573
   109  H    0.009128
   110  H    0.011628
   111  H    0.019647
   112  H    0.002457
   113  H    0.016391
   114  H    0.011868
   115  H    0.025917
   116  H    0.034947
   117  H    0.024227
   118  H    0.026595
   119  H    0.006885
   120  H    0.018346
   121  H    0.029763
   122  H    0.016718
   123  H    0.023416
   124  H    0.015890
   125  H    0.035482
   126  H    0.028878
   127  H    0.029167
   128  H    0.020391
   129  H    0.008172
   130  H    0.014284
   131  H    0.018143
   132  H    0.014926
   133  H    0.014908
   134  H    0.023915
   135  H    0.036683
   136  H    0.025283
   137  H    0.029476
   138  H    0.030203
   139  H    0.015170
   140  H    0.033152
 Sum of Mulliken charges =  -0.00000

 Dipole moment (field-independent basis, Debye):
    X=              0.1336    Y=              6.0804    Z=             -0.4769  Tot=              6.1006
 Quadrupole moment (field-independent basis, Debye-Ang):
   XX=           -398.6646   YY=           -411.9903   ZZ=           -412.2370
   XY=            -38.7709   XZ=            -22.1077   YZ=            -26.7551

 Normal termination of Gaussian 16 at Thu Apr 28 15:31:54 2022.
