 Gaussian 16, Revision A.03,
 Gaussian 16:  ES64L-G16RevA.03 25-Dec-2016

 --------------------
 #p ZINDO=(nstates=5)
 --------------------

 ------------------------------
 step_1601_chromophore_26 ZINDO
 ------------------------------
 Symbolic Z-matrix:
 Charge =  0 Multiplicity = 1

                         Standard orientation:
 ---------------------------------------------------------------------
 Center     Atomic      Atomic             Coordinates (Angstroms)
 Number     Number       Type             X           Y           Z
 ---------------------------------------------------------------------
      1         12           0       -3.742442    1.152442    0.561602
      2          6           0       -5.353495   -1.946703   -0.226798
      3          6           0       -2.088686   -0.386339    3.035949
      4          6           0       -2.186041    4.063660    1.224217
      5          6           0       -5.300251    2.566039   -2.315372
      6          7           0       -3.712879   -1.032675    1.228654
      7          6           0       -4.421419   -2.041968    0.827388
      8          6           0       -4.006190   -3.299328    1.594584
      9          6           0       -3.266146   -2.673352    2.854509
     10          6           0       -2.940709   -1.288123    2.337804
     11          6           0       -4.129666   -2.620576    4.157886
     12          6           0       -3.201657   -4.305525    0.709291
     13          6           0       -2.162805   -3.817227   -0.261632
     14          6           0       -0.763978   -4.453932   -0.110060
     15          8           0       -0.397688   -5.553244    0.293708
     16          8           0        0.168609   -3.752761   -0.793173
     17          7           0       -2.364475    1.757852    1.985035
     18          6           0       -1.866036    0.985109    2.917514
     19          6           0       -1.105554    1.721443    3.883253
     20          6           0       -1.019392    3.045911    3.321643
     21          6           0       -1.853471    2.985221    2.114134
     22          6           0       -0.334152    1.208533    5.080196
     23          6           0       -0.334016    4.237717    3.967459
     24          8           0        0.092975    4.158803    5.114297
     25          6           0        0.028974    5.531180    3.383155
     26          7           0       -3.686816    3.075103   -0.443682
     27          6           0       -3.033774    4.177765    0.048600
     28          6           0       -3.372214    5.397306   -0.751107
     29          6           0       -4.301468    4.910077   -1.917550
     30          6           0       -4.486245    3.443238   -1.555386
     31          6           0       -4.073725    6.464562   -0.046621
     32          6           0       -3.622042    5.086851   -3.292354
     33          6           0       -4.083178    6.341061   -4.198025
     34          7           0       -4.923639    0.509415   -1.043043
     35          6           0       -5.450870    1.147496   -2.095298
     36          6           0       -6.250072    0.222514   -2.944608
     37          6           0       -6.238752   -0.992875   -2.181458
     38          6           0       -5.489309   -0.770598   -1.051534
     39          6           0       -6.934184    0.456861   -4.211244
     40          6           0       -6.799939   -2.379336   -2.139685
     41          8           0       -7.382127   -3.021486   -3.023449
     42          6           0       -6.249185   -2.962584   -0.853278
     43          6           0       -7.342815   -3.439747    0.000900
     44          8           0       -7.378592   -4.559956    0.468514
     45          8           0       -8.205570   -2.429504    0.384461
     46          6           0       -9.130978   -2.648619    1.525019
     47          6           0        1.426080   -4.405220   -1.138257
     48          6           0        2.143600   -3.209011   -1.736389
     49          6           0        3.443636   -2.835386   -1.448388
     50          6           0        4.415419   -3.527641   -0.515418
     51          6           0        4.077079   -1.941335   -2.483438
     52          6           0        3.806216   -0.439408   -2.405251
     53          6           0        4.918543    0.415044   -2.960985
     54          6           0        5.836859    1.094971   -1.936022
     55          6           0        6.145039    2.536151   -2.432587
     56          6           0        7.144244    0.305732   -1.587014
     57          6           0        7.456779    0.449287   -0.027602
     58          6           0        7.956409   -0.862236    0.566409
     59          6           0        9.394581   -0.735990    1.150531
     60          6           0        9.857832   -1.997807    1.934463
     61          6           0       10.374713   -0.357412   -0.029292
     62          6           0       11.674698    0.290945    0.550233
     63          6           0       13.010474   -0.436811    0.264844
     64          6           0       14.047454    0.458819   -0.543827
     65          6           0       14.322708   -0.145697   -1.950869
     66          6           0       15.362872    0.575153    0.188815
     67          1           0       -1.513949   -0.828639    3.852088
     68          1           0       -1.688581    5.006346    1.461791
     69          1           0       -5.753526    2.979871   -3.218012
     70          1           0       -4.947979   -3.782831    1.858310
     71          1           0       -2.390306   -3.309550    2.979896
     72          1           0       -4.249737   -1.565225    4.404529
     73          1           0       -3.461100   -3.105856    4.868664
     74          1           0       -4.950303   -3.284267    3.886841
     75          1           0       -3.904657   -4.570707   -0.079427
     76          1           0       -3.020700   -5.215358    1.282179
     77          1           0       -2.113895   -2.751711   -0.040346
     78          1           0       -2.399374   -4.004678   -1.310033
     79          1           0        0.696519    0.948602    4.835838
     80          1           0       -0.758613    0.253442    5.389472
     81          1           0       -0.441397    1.890047    5.924396
     82          1           0       -0.962753    5.934477    3.179433
     83          1           0        0.638276    5.398629    2.488732
     84          1           0        0.533257    6.154721    4.122273
     85          1           0       -2.398607    5.723156   -1.117762
     86          1           0       -5.325135    5.263873   -1.793648
     87          1           0       -3.389242    7.047563    0.568565
     88          1           0       -4.795648    6.017304    0.637412
     89          1           0       -4.659185    7.082600   -0.727353
     90          1           0       -3.841205    4.176464   -3.849668
     91          1           0       -2.560498    5.142590   -3.053180
     92          1           0       -3.321876    7.111839   -4.314487
     93          1           0       -4.888487    6.753720   -3.589689
     94          1           0       -4.457092    6.058391   -5.182249
     95          1           0       -6.328514    1.228474   -4.688642
     96          1           0       -7.931708    0.821002   -3.965528
     97          1           0       -6.988579   -0.546305   -4.632438
     98          1           0       -5.833265   -3.940250   -1.095364
     99          1           0       -8.623039   -3.016379    2.416562
    100          1           0       -9.910147   -3.353374    1.235312
    101          1           0       -9.524405   -1.660120    1.763829
    102          1           0        1.269560   -5.080851   -1.978183
    103          1           0        1.889672   -4.894384   -0.281101
    104          1           0        1.681463   -2.499423   -2.423040
    105          1           0        5.137523   -4.111459   -1.086725
    106          1           0        3.972372   -4.270392    0.147403
    107          1           0        5.024735   -2.825370    0.053175
    108          1           0        3.701489   -2.267358   -3.453425
    109          1           0        5.161167   -2.006789   -2.575391
    110          1           0        3.661791   -0.084982   -1.384515
    111          1           0        2.872761   -0.243548   -2.933293
    112          1           0        4.414762    1.257991   -3.433355
    113          1           0        5.469468   -0.096008   -3.750827
    114          1           0        5.252418    1.224328   -1.024934
    115          1           0        5.271632    3.162544   -2.256859
    116          1           0        6.355098    2.500967   -3.501356
    117          1           0        6.943451    2.977043   -1.836006
    118          1           0        8.005585    0.600330   -2.186169
    119          1           0        6.934781   -0.741689   -1.803783
    120          1           0        6.530998    0.646121    0.513048
    121          1           0        8.153210    1.266000    0.160120
    122          1           0        8.098626   -1.614332   -0.210034
    123          1           0        7.230972   -1.179622    1.315727
    124          1           0        9.489247    0.125256    1.810527
    125          1           0       10.850465   -1.871917    2.367760
    126          1           0        9.775655   -2.875225    1.293002
    127          1           0        9.125769   -2.076898    2.737636
    128          1           0       10.011073    0.348947   -0.776548
    129          1           0       10.644477   -1.251637   -0.589883
    130          1           0       11.504366    0.365981    1.623658
    131          1           0       11.643435    1.342247    0.259852
    132          1           0       12.910714   -1.366102   -0.296780
    133          1           0       13.434610   -0.727108    1.225137
    134          1           0       13.499423    1.373452   -0.768562
    135          1           0       15.051889    0.454894   -2.495927
    136          1           0       13.386633   -0.161627   -2.508914
    137          1           0       14.677799   -1.170816   -1.841704
    138          1           0       16.090668   -0.119723   -0.230505
    139          1           0       15.270682    0.304031    1.240468
    140          1           0       15.697343    1.610129    0.250501
 ---------------------------------------------------------------------

 SCF Done:  E(RZINDO/S) =  -474.432280322     A.U. after   20 cycles

 Excitation energies and oscillator strengths:

 Excited State   1:      Singlet-A      1.2374 eV 1001.94 nm  f=0.5901  <S**2>=0.000
     175 ->178         0.19957
     176 ->177         0.66102
 This state for optimization and/or second-order correction.
 Total Energy, E(CIS/TDA) =  -474.386805008
 Copying the excited state density for this state as the 1-particle RhoCI density.

 Excited State   2:      Singlet-A      1.8996 eV  652.69 nm  f=0.0398  <S**2>=0.000
     175 ->177         0.54147
     176 ->178        -0.43181

 Excited State   3:      Singlet-A      2.7500 eV  450.84 nm  f=0.0006  <S**2>=0.000
     170 ->177         0.29363
     170 ->178        -0.10687
     170 ->179        -0.34135
     170 ->180        -0.37161
     170 ->186        -0.28445
     170 ->187        -0.13972
     170 ->194         0.12506

 Excited State   4:      Singlet-A      2.9928 eV  414.27 nm  f=0.5895  <S**2>=0.000
     168 ->177        -0.10528
     168 ->179        -0.14752
     168 ->180         0.10571
     169 ->177        -0.16459
     169 ->179        -0.19157
     169 ->180         0.15693
     175 ->177         0.28140
     176 ->178         0.36242
     176 ->179        -0.26896

 Excited State   5:      Singlet-A      3.0340 eV  408.65 nm  f=0.5600  <S**2>=0.000
     168 ->177         0.16624
     168 ->179         0.22141
     168 ->180        -0.17799
     169 ->177         0.15790
     169 ->179         0.21122
     169 ->180        -0.16840
     175 ->177         0.25675
     176 ->178         0.32677

 The electronic state is 1-A.
 Alpha  occ. eigenvalues --   -1.85108  -1.83881  -1.81091  -1.75319  -1.73928
 Alpha  occ. eigenvalues --   -1.71671  -1.65541  -1.62001  -1.61138  -1.57970
 Alpha  occ. eigenvalues --   -1.55125  -1.51162  -1.48453  -1.47162  -1.46683
 Alpha  occ. eigenvalues --   -1.45752  -1.42012  -1.40319  -1.39719  -1.38594
 Alpha  occ. eigenvalues --   -1.37410  -1.35343  -1.32514  -1.31894  -1.28719
 Alpha  occ. eigenvalues --   -1.27501  -1.25947  -1.22082  -1.21523  -1.18803
 Alpha  occ. eigenvalues --   -1.16710  -1.15318  -1.15011  -1.13803  -1.12954
 Alpha  occ. eigenvalues --   -1.12812  -1.10755  -1.10380  -1.06811  -1.05242
 Alpha  occ. eigenvalues --   -1.01775  -1.01232  -0.98648  -0.98450  -0.97522
 Alpha  occ. eigenvalues --   -0.95911  -0.94356  -0.93928  -0.92817  -0.91485
 Alpha  occ. eigenvalues --   -0.90472  -0.90161  -0.89292  -0.89049  -0.88507
 Alpha  occ. eigenvalues --   -0.86124  -0.84393  -0.83602  -0.83228  -0.81738
 Alpha  occ. eigenvalues --   -0.80638  -0.78287  -0.78169  -0.77376  -0.76561
 Alpha  occ. eigenvalues --   -0.76344  -0.75316  -0.74339  -0.73996  -0.72839
 Alpha  occ. eigenvalues --   -0.72175  -0.72086  -0.71752  -0.71135  -0.70280
 Alpha  occ. eigenvalues --   -0.70038  -0.69831  -0.69099  -0.68393  -0.67694
 Alpha  occ. eigenvalues --   -0.66982  -0.66499  -0.66187  -0.66172  -0.65788
 Alpha  occ. eigenvalues --   -0.65535  -0.64560  -0.64489  -0.63881  -0.63671
 Alpha  occ. eigenvalues --   -0.63455  -0.63251  -0.62707  -0.62501  -0.62113
 Alpha  occ. eigenvalues --   -0.61939  -0.61346  -0.61048  -0.60554  -0.60232
 Alpha  occ. eigenvalues --   -0.59801  -0.59536  -0.59313  -0.58976  -0.58402
 Alpha  occ. eigenvalues --   -0.58277  -0.58045  -0.57433  -0.57103  -0.56687
 Alpha  occ. eigenvalues --   -0.56204  -0.55675  -0.55406  -0.55288  -0.54746
 Alpha  occ. eigenvalues --   -0.54505  -0.54206  -0.54016  -0.53831  -0.53210
 Alpha  occ. eigenvalues --   -0.52766  -0.52527  -0.52213  -0.51956  -0.51753
 Alpha  occ. eigenvalues --   -0.51520  -0.51364  -0.50827  -0.50645  -0.50479
 Alpha  occ. eigenvalues --   -0.50068  -0.49957  -0.49828  -0.49411  -0.48963
 Alpha  occ. eigenvalues --   -0.48820  -0.48345  -0.48282  -0.48146  -0.48122
 Alpha  occ. eigenvalues --   -0.47643  -0.47260  -0.47171  -0.47035  -0.46743
 Alpha  occ. eigenvalues --   -0.46301  -0.46196  -0.45630  -0.45305  -0.45072
 Alpha  occ. eigenvalues --   -0.44671  -0.44611  -0.44401  -0.44273  -0.43703
 Alpha  occ. eigenvalues --   -0.43486  -0.43287  -0.42743  -0.42657  -0.42628
 Alpha  occ. eigenvalues --   -0.42185  -0.41982  -0.41585  -0.39346  -0.38618
 Alpha  occ. eigenvalues --   -0.38324  -0.37430  -0.35707  -0.35011  -0.34297
 Alpha  occ. eigenvalues --   -0.33529  -0.32845  -0.31867  -0.30978  -0.26786
 Alpha  occ. eigenvalues --   -0.21973
 Alpha virt. eigenvalues --   -0.08831  -0.02499  -0.00633   0.01070   0.01850
 Alpha virt. eigenvalues --    0.01899   0.02290   0.02421   0.03992   0.04252
 Alpha virt. eigenvalues --    0.05559   0.06078   0.07013   0.07675   0.08014

 Mulliken charges:
               1
     1  Mg   0.428161
     2  C   -0.045930
     3  C   -0.073240
     4  C   -0.111706
     5  C   -0.086175
     6  N   -0.272412
     7  C    0.129310
     8  C   -0.004757
     9  C   -0.003248
    10  C    0.122143
    11  C   -0.057866
    12  C   -0.030129
    13  C    0.022663
    14  C    0.451610
    15  O   -0.524463
    16  O   -0.279195
    17  N   -0.299461
    18  C    0.129239
    19  C    0.032663
    20  C   -0.058947
    21  C    0.140420
    22  C   -0.033724
    23  C    0.325327
    24  O   -0.540476
    25  C   -0.017594
    26  N   -0.297590
    27  C    0.150102
    28  C    0.024454
    29  C    0.000606
    30  C    0.105159
    31  C   -0.039280
    32  C   -0.033115
    33  C   -0.065615
    34  N   -0.321964
    35  C    0.105785
    36  C    0.009314
    37  C   -0.062938
    38  C    0.085262
    39  C   -0.037984
    40  C    0.331092
    41  O   -0.520657
    42  C    0.068842
    43  C    0.492209
    44  O   -0.521250
    45  O   -0.284309
    46  C    0.079391
    47  C    0.117290
    48  C   -0.084736
    49  C   -0.027958
    50  C   -0.041568
    51  C   -0.021581
    52  C   -0.027397
    53  C   -0.031400
    54  C   -0.015822
    55  C   -0.058440
    56  C   -0.037791
    57  C   -0.040297
    58  C   -0.035406
    59  C   -0.015241
    60  C   -0.056790
    61  C   -0.043649
    62  C   -0.044046
    63  C   -0.036122
    64  C   -0.016741
    65  C   -0.057281
    66  C   -0.051015
    67  H    0.027175
    68  H    0.014213
    69  H    0.028498
    70  H    0.032227
    71  H    0.030577
    72  H    0.041833
    73  H    0.022549
    74  H    0.042002
    75  H    0.014868
    76  H    0.043484
    77  H    0.045986
    78  H    0.056827
    79  H    0.041180
    80  H    0.011412
    81  H    0.049198
    82  H    0.035804
    83  H    0.037061
    84  H    0.044177
    85  H    0.031421
    86  H    0.041795
    87  H    0.014752
    88  H    0.019012
    89  H    0.021327
    90  H    0.024941
    91  H    0.026357
    92  H    0.024696
    93  H    0.016976
    94  H    0.028606
    95  H    0.033138
    96  H    0.039151
    97  H    0.048290
    98  H    0.062694
    99  H    0.041476
   100  H    0.050420
   101  H    0.032521
   102  H    0.050798
   103  H    0.066953
   104  H    0.045831
   105  H    0.022655
   106  H    0.020528
   107  H    0.027292
   108  H    0.015639
   109  H    0.018286
   110  H    0.018208
   111  H    0.014188
   112  H    0.004835
   113  H    0.021119
   114  H    0.021056
   115  H    0.012727
   116  H    0.023558
   117  H    0.015099
   118  H    0.026720
   119  H    0.017487
   120  H    0.016917
   121  H    0.025897
   122  H    0.020974
   123  H    0.018233
   124  H    0.018965
   125  H    0.024776
   126  H    0.023634
   127  H    0.013997
   128  H    0.021070
   129  H    0.015173
   130  H    0.013615
   131  H    0.017081
   132  H    0.021672
   133  H    0.017338
   134  H    0.025713
   135  H    0.016984
   136  H    0.011171
   137  H    0.019616
   138  H    0.024758
   139  H    0.010767
   140  H    0.018299
 Sum of Mulliken charges =  -0.00000

 Dipole moment (field-independent basis, Debye):
    X=              0.6907    Y=              7.6072    Z=             -0.8517  Tot=              7.6858
 N-N= 4.454691740487D+03 E-N= 0.000000000000D+00  KE=-9.583327260979D+03
 Leave Link  601 at Thu Apr 28 15:45:20 2022, MaxMem=  6710886400 cpu:               1.1 elap:               0.1
 (Enter /sw/apps/gaussian-16.0/g16/l9999.exe)
 1\1\GINC-BP1-COMPUTE139\SP\RZINDO CIS\STO-3G\C55H74Mg1N4O6\OF15641\28-
 Apr-2022\0\\#p ZINDO=(nstates=5)\\step_1601_chromophore_26 ZINDO\\0,1\
 Mg,0,-9.929,17.555,42.137\C,0,-6.465,16.946,42.809\C,0,-9.188,20.747,4
 1.439\C,0,-13.181,18.073,41.435\C,0,-10.511,14.065,42.565\N,0,-7.931,1
 8.661,42.064\C,0,-6.74,18.264,42.389\C,0,-5.737,19.394,42.146\C,0,-6.6
 94,20.662,42.089\C,0,-8.024,20.005,41.787\C,0,-6.745,21.5,43.409\C,0,-
 4.817,19.126,40.911\C,0,-5.376,18.53,39.649\C,0,-5.1,19.333,38.359\O,0

 Normal termination of Gaussian 16 at Thu Apr 28 15:45:20 2022.
