 Gaussian 16, Revision A.03,
 Gaussian 16:  ES64L-G16RevA.03 25-Dec-2016

 ------------------------------
 #p blyp/Def2SVP td=(nstates=5)
 ------------------------------

 --------------------------------------------------
 step_301_chromophore_20 TDDFT with blyp functional
 --------------------------------------------------
 Symbolic Z-matrix:
 Charge =  0 Multiplicity = 1

                         Standard orientation:
 ---------------------------------------------------------------------
 Center     Atomic      Atomic             Coordinates (Angstroms)
 Number     Number       Type             X           Y           Z
 ---------------------------------------------------------------------
      1         12           0        4.230583    1.171071   -0.441635
      2          6           0        3.996923   -2.358377   -0.871890
      3          6           0        1.840422    1.304549   -3.034747
      4          6           0        3.873407    4.291032    0.124790
      5          6           0        6.346999    0.681297    2.129882
      6          7           0        2.893154   -0.312826   -1.626959
      7          6           0        3.000048   -1.719357   -1.631108
      8          6           0        1.954623   -2.354474   -2.534794
      9          6           0        1.700584   -1.104432   -3.492505
     10          6           0        2.182793    0.010149   -2.719275
     11          6           0        2.490274   -1.244482   -4.823867
     12          6           0        0.766290   -2.704498   -1.592175
     13          6           0       -0.049177   -3.886979   -1.872145
     14          6           0       -1.539556   -3.791954   -2.137961
     15          8           0       -2.041257   -3.893437   -3.265121
     16          8           0       -2.259187   -3.587309   -1.052998
     17          7           0        2.990767    2.655523   -1.271174
     18          6           0        2.151371    2.485272   -2.359053
     19          6           0        1.568864    3.699558   -2.660923
     20          6           0        2.073950    4.702600   -1.743472
     21          6           0        3.012803    3.892927   -0.904481
     22          6           0        0.521535    3.918595   -3.770355
     23          6           0        1.787073    6.128496   -1.663374
     24          8           0        0.964491    6.709804   -2.370064
     25          6           0        2.620667    7.050718   -0.733454
     26          7           0        4.647689    2.263248    1.234046
     27          6           0        4.602936    3.574317    1.075464
     28          6           0        5.625964    4.334987    1.946966
     29          6           0        6.356856    3.135480    2.641469
     30          6           0        5.716002    1.931335    1.986346
     31          6           0        6.618862    5.178189    1.152934
     32          6           0        6.262710    3.273930    4.119591
     33          6           0        7.454885    2.726697    4.871571
     34          7           0        5.100681   -0.494676    0.504464
     35          6           0        6.016911   -0.526345    1.443990
     36          6           0        6.442641   -1.865798    1.706251
     37          6           0        5.715821   -2.620513    0.771442
     38          6           0        4.897934   -1.727986    0.047707
     39          6           0        7.577578   -2.205396    2.711223
     40          6           0        5.539709   -3.955035    0.296724
     41          8           0        6.043981   -5.033180    0.628151
     42          6           0        4.355775   -3.879037   -0.840842
     43          6           0        3.290575   -4.684312   -0.351590
     44          8           0        2.464691   -4.329806    0.501994
     45          8           0        3.263792   -5.884089   -0.980105
     46          6           0        2.156524   -6.849275   -0.620889
     47          6           0       -3.775318   -3.552618   -1.214671
     48          6           0       -4.449609   -3.732859    0.110070
     49          6           0       -4.842337   -4.936178    0.564160
     50          6           0       -4.423345   -6.273873   -0.050746
     51          6           0       -5.859195   -5.000370    1.658524
     52          6           0       -7.073821   -4.095013    1.638853
     53          6           0       -7.278123   -3.249566    2.819181
     54          6           0       -6.665754   -1.830687    2.819330
     55          6           0       -5.212116   -1.825379    3.345618
     56          6           0       -7.480361   -0.851502    3.615640
     57          6           0       -7.094127    0.596583    3.109308
     58          6           0       -8.207722    1.556705    2.792228
     59          6           0       -7.709120    2.955106    2.312158
     60          6           0       -7.318876    3.908453    3.543768
     61          6           0       -8.668880    3.624831    1.298773
     62          6           0       -8.116229    4.114882   -0.073322
     63          6           0       -8.394981    3.208248   -1.295266
     64          6           0       -9.638584    3.575540   -2.077616
     65          6           0      -10.643238    2.522391   -2.107890
     66          6           0       -9.277473    4.152395   -3.485088
     67          1           0        1.344810    1.300060   -4.007620
     68          1           0        3.975990    5.376875    0.188908
     69          1           0        7.096552    0.559388    2.915295
     70          1           0        2.360155   -3.263866   -2.977337
     71          1           0        0.637844   -0.926415   -3.654966
     72          1           0        3.403096   -0.680683   -5.018948
     73          1           0        1.941979   -0.911846   -5.705354
     74          1           0        2.661154   -2.298228   -5.048709
     75          1           0        0.059377   -1.887013   -1.733726
     76          1           0        1.034950   -2.716586   -0.535853
     77          1           0       -0.088255   -4.404681   -0.914269
     78          1           0        0.366694   -4.472284   -2.691943
     79          1           0       -0.463701    4.229546   -3.422515
     80          1           0        0.368597    3.112319   -4.488244
     81          1           0        0.866700    4.776513   -4.347267
     82          1           0        3.634873    6.904044   -1.105297
     83          1           0        2.371325    6.725660    0.276727
     84          1           0        2.397476    8.096754   -0.943038
     85          1           0        5.073522    4.870676    2.718672
     86          1           0        7.396645    3.058378    2.323508
     87          1           0        6.507588    5.085213    0.072878
     88          1           0        7.658331    4.989938    1.424622
     89          1           0        6.231339    6.173307    1.370390
     90          1           0        5.385057    2.712236    4.439814
     91          1           0        6.132082    4.339789    4.305356
     92          1           0        7.768306    3.528882    5.538720
     93          1           0        8.215867    2.558222    4.110779
     94          1           0        7.483591    1.811393    5.463199
     95          1           0        8.362983   -1.455172    2.620791
     96          1           0        7.991361   -3.193828    2.515185
     97          1           0        7.091703   -2.307966    3.681280
     98          1           0        4.739151   -4.222103   -1.801559
     99          1           0        2.724880   -7.737282   -0.342313
    100          1           0        1.443432   -6.921580   -1.442154
    101          1           0        1.595602   -6.564008    0.268845
    102          1           0       -4.117249   -4.391779   -1.821413
    103          1           0       -4.160111   -2.627880   -1.644365
    104          1           0       -4.882636   -2.793044    0.454876
    105          1           0       -3.485604   -6.134138   -0.588659
    106          1           0       -5.143174   -6.793399   -0.683346
    107          1           0       -4.170971   -6.914904    0.794627
    108          1           0       -5.260495   -5.045513    2.567660
    109          1           0       -6.280225   -6.004214    1.714479
    110          1           0       -7.950205   -4.741804    1.679070
    111          1           0       -7.138701   -3.411112    0.791750
    112          1           0       -6.953203   -3.767517    3.720957
    113          1           0       -8.367596   -3.219920    2.779367
    114          1           0       -6.570685   -1.558054    1.767668
    115          1           0       -4.786865   -2.820021    3.482063
    116          1           0       -5.080215   -1.101906    4.150160
    117          1           0       -4.605652   -1.326726    2.588984
    118          1           0       -7.235350   -0.892564    4.676338
    119          1           0       -8.529498   -1.087657    3.440244
    120          1           0       -6.385817    0.521179    2.284545
    121          1           0       -6.582586    1.010352    3.978079
    122          1           0       -8.863868    1.663056    3.656364
    123          1           0       -8.792994    1.020760    2.044377
    124          1           0       -6.784709    2.734375    1.779619
    125          1           0       -7.646273    4.929173    3.349481
    126          1           0       -6.262612    3.917216    3.813296
    127          1           0       -7.783613    3.502045    4.442411
    128          1           0       -9.109056    4.428504    1.889482
    129          1           0       -9.478565    2.914843    1.130486
    130          1           0       -7.035041    4.168575    0.057596
    131          1           0       -8.313628    5.132003   -0.409427
    132          1           0       -8.449758    2.161107   -0.997044
    133          1           0       -7.511378    3.244702   -1.932759
    134          1           0      -10.065194    4.469682   -1.622821
    135          1           0      -10.565640    1.918758   -3.012042
    136          1           0      -11.610713    3.025122   -2.123126
    137          1           0      -10.588752    1.841555   -1.259180
    138          1           0       -9.035129    5.210438   -3.383764
    139          1           0      -10.229961    4.114774   -4.014114
    140          1           0       -8.456628    3.516887   -3.816414
 ---------------------------------------------------------------------

 SCF Done:  E(RB-LYP) =  -3007.31896476     A.U. after   21 cycles

 Excitation energies and oscillator strengths:

 Excited State   1:      Singlet-A      1.4643 eV  846.70 nm  f=0.0007  <S**2>=0.000
     245 -> 247        0.70051
 This state for optimization and/or second-order correction.
 Total Energy, E(TD-HF/TD-DFT) =  -3007.26515214
 Copying the excited state density for this state as the 1-particle RhoCI density.

 Excited State   2:      Singlet-A      1.7864 eV  694.03 nm  f=0.2989  <S**2>=0.000
     244 -> 248        0.15134
     246 -> 247        0.69216
     246 <- 247       -0.15722

 Excited State   3:      Singlet-A      1.9516 eV  635.30 nm  f=0.0437  <S**2>=0.000
     242 -> 247        0.56389
     244 -> 247       -0.40125

 Excited State   4:      Singlet-A      1.9631 eV  631.58 nm  f=0.0059  <S**2>=0.000
     242 -> 247        0.10564
     243 -> 247        0.69128

 Excited State   5:      Singlet-A      2.0331 eV  609.82 nm  f=0.0754  <S**2>=0.000
     242 -> 247        0.40593
     243 -> 247       -0.14147
     244 -> 247        0.51487
     246 -> 248       -0.15805

 The electronic state is 1-A.
 Alpha  occ. eigenvalues --  -46.28336 -18.82010 -18.81796 -18.76354 -18.75813
 Alpha  occ. eigenvalues --  -18.74682 -18.74356 -14.03344 -14.03317 -14.01126
 Alpha  occ. eigenvalues --  -14.01018 -10.03272 -10.02625 -10.00246  -9.98765
 Alpha  occ. eigenvalues --   -9.97893  -9.97587  -9.96788  -9.96772  -9.96576
 Alpha  occ. eigenvalues --   -9.95829  -9.95701  -9.95139  -9.95041  -9.94875
 Alpha  occ. eigenvalues --   -9.94643  -9.94501  -9.94388  -9.93900  -9.93801
 Alpha  occ. eigenvalues --   -9.93649  -9.93641  -9.93543  -9.92953  -9.92952
 Alpha  occ. eigenvalues --   -9.92842  -9.92836  -9.92800  -9.92729  -9.92607
 Alpha  occ. eigenvalues --   -9.92577  -9.92423  -9.92126  -9.92089  -9.92073
 Alpha  occ. eigenvalues --   -9.91997  -9.91861  -9.91815  -9.91806  -9.91472
 Alpha  occ. eigenvalues --   -9.91453  -9.91368  -9.91353  -9.91336  -9.91054
 Alpha  occ. eigenvalues --   -9.91035  -9.90872  -9.90855  -9.90851  -9.90758
 Alpha  occ. eigenvalues --   -9.90656  -9.90513  -9.90495  -9.90353  -9.90288
 Alpha  occ. eigenvalues --   -9.90113  -2.92967  -1.73337  -1.72900  -1.72663
 Alpha  occ. eigenvalues --   -0.97591  -0.97081  -0.91008  -0.90148  -0.88613
 Alpha  occ. eigenvalues --   -0.88491  -0.87845  -0.87575  -0.87237  -0.86231
 Alpha  occ. eigenvalues --   -0.75382  -0.74667  -0.73990  -0.73300  -0.72969
 Alpha  occ. eigenvalues --   -0.72698  -0.72599  -0.71673  -0.71190  -0.70356
 Alpha  occ. eigenvalues --   -0.69802  -0.69286  -0.68895  -0.68421  -0.67822
 Alpha  occ. eigenvalues --   -0.66728  -0.66276  -0.65595  -0.65246  -0.64327
 Alpha  occ. eigenvalues --   -0.63747  -0.62821  -0.62361  -0.61562  -0.61349
 Alpha  occ. eigenvalues --   -0.60990  -0.60568  -0.60227  -0.59341  -0.59057
 Alpha  occ. eigenvalues --   -0.58674  -0.58151  -0.57584  -0.55918  -0.55373
 Alpha  occ. eigenvalues --   -0.54675  -0.54249  -0.53495  -0.52608  -0.52526
 Alpha  occ. eigenvalues --   -0.51730  -0.51247  -0.50725  -0.50193  -0.49507
 Alpha  occ. eigenvalues --   -0.49426  -0.48994  -0.48255  -0.48200  -0.46864
 Alpha  occ. eigenvalues --   -0.46452  -0.46136  -0.45984  -0.45604  -0.44933
 Alpha  occ. eigenvalues --   -0.44479  -0.43520  -0.43418  -0.43198  -0.42727
 Alpha  occ. eigenvalues --   -0.42251  -0.42163  -0.41806  -0.41544  -0.41315
 Alpha  occ. eigenvalues --   -0.41028  -0.40873  -0.40770  -0.40096  -0.39937
 Alpha  occ. eigenvalues --   -0.39748  -0.39667  -0.39401  -0.39292  -0.39194
 Alpha  occ. eigenvalues --   -0.39174  -0.38981  -0.38740  -0.38567  -0.38436
 Alpha  occ. eigenvalues --   -0.37998  -0.37970  -0.37753  -0.37505  -0.37476
 Alpha  occ. eigenvalues --   -0.37262  -0.36988  -0.36621  -0.36514  -0.36345
 Alpha  occ. eigenvalues --   -0.36291  -0.36129  -0.35937  -0.35711  -0.35659
 Alpha  occ. eigenvalues --   -0.35408  -0.35275  -0.35018  -0.34914  -0.34758
 Alpha  occ. eigenvalues --   -0.34731  -0.34384  -0.34213  -0.34191  -0.33931
 Alpha  occ. eigenvalues --   -0.33900  -0.33604  -0.33560  -0.33416  -0.33297
 Alpha  occ. eigenvalues --   -0.33073  -0.32955  -0.32849  -0.32627  -0.32361
 Alpha  occ. eigenvalues --   -0.32269  -0.32038  -0.31675  -0.31608  -0.31323
 Alpha  occ. eigenvalues --   -0.31007  -0.30979  -0.30765  -0.30609  -0.30441
 Alpha  occ. eigenvalues --   -0.30057  -0.29994  -0.29947  -0.29870  -0.29769
 Alpha  occ. eigenvalues --   -0.29687  -0.29341  -0.29217  -0.28941  -0.28822
 Alpha  occ. eigenvalues --   -0.28664  -0.28497  -0.27794  -0.27783  -0.27713
 Alpha  occ. eigenvalues --   -0.27426  -0.27235  -0.27149  -0.26723  -0.26408
 Alpha  occ. eigenvalues --   -0.26346  -0.25921  -0.25882  -0.25622  -0.25026
 Alpha  occ. eigenvalues --   -0.24704  -0.24470  -0.24315  -0.24277  -0.24006
 Alpha  occ. eigenvalues --   -0.23743  -0.22301  -0.21502  -0.21315  -0.21214
 Alpha  occ. eigenvalues --   -0.20455  -0.19313  -0.19210  -0.17543  -0.17379
 Alpha  occ. eigenvalues --   -0.16213
 Alpha virt. eigenvalues --   -0.12078  -0.06797  -0.06285  -0.04627  -0.04060
 Alpha virt. eigenvalues --   -0.03505  -0.02742  -0.01627  -0.01099   0.00573
 Alpha virt. eigenvalues --    0.01625   0.02165   0.02603   0.02701   0.03054

 Mulliken charges:
               1
     1  Mg   0.679776
     2  C    0.019633
     3  C   -0.116307
     4  C   -0.063912
     5  C   -0.095370
     6  N   -0.188975
     7  C   -0.099031
     8  C   -0.002507
     9  C    0.074617
    10  C   -0.025228
    11  C    0.116463
    12  C    0.128680
    13  C    0.194710
    14  C    0.012050
    15  O   -0.230807
    16  O   -0.249241
    17  N   -0.232951
    18  C    0.212328
    19  C   -0.135908
    20  C    0.087958
    21  C    0.099131
    22  C    0.185489
    23  C   -0.157060
    24  O   -0.173295
    25  C    0.146352
    26  N   -0.222428
    27  C    0.001900
    28  C    0.007306
    29  C   -0.029003
    30  C    0.064686
    31  C    0.140852
    32  C    0.139662
    33  C    0.074463
    34  N   -0.194270
    35  C    0.063581
    36  C   -0.185554
    37  C    0.123704
    38  C    0.065733
    39  C    0.174821
    40  C   -0.067454
    41  O   -0.137757
    42  C    0.045543
    43  C    0.118859
    44  O   -0.213723
    45  O   -0.271409
    46  C    0.198090
    47  C    0.291819
    48  C   -0.091455
    49  C   -0.156720
    50  C    0.138934
    51  C    0.159142
    52  C    0.120519
    53  C    0.083941
    54  C   -0.110253
    55  C    0.123348
    56  C    0.153188
    57  C    0.028029
    58  C    0.100478
    59  C   -0.075637
    60  C    0.099527
    61  C    0.149386
    62  C    0.086562
    63  C    0.104899
    64  C   -0.104999
    65  C    0.134734
    66  C    0.105135
    67  H   -0.063550
    68  H   -0.093813
    69  H   -0.068276
    70  H   -0.027042
    71  H   -0.016903
    72  H   -0.002270
    73  H   -0.015184
    74  H   -0.006913
    75  H   -0.032199
    76  H    0.023088
    77  H   -0.014728
    78  H   -0.017885
    79  H    0.006930
    80  H   -0.026078
    81  H   -0.000953
    82  H    0.012112
    83  H    0.018805
    84  H   -0.017560
    85  H   -0.018261
    86  H   -0.027219
    87  H   -0.006153
    88  H    0.004777
    89  H   -0.003192
    90  H   -0.018590
    91  H   -0.021739
    92  H   -0.014276
    93  H   -0.025412
    94  H    0.001400
    95  H    0.012297
    96  H   -0.000863
    97  H    0.005729
    98  H   -0.001839
    99  H    0.029120
   100  H    0.030888
   101  H    0.027135
   102  H    0.000391
   103  H   -0.002241
   104  H   -0.037325
   105  H   -0.003328
   106  H    0.018177
   107  H   -0.007531
   108  H   -0.013438
   109  H   -0.055011
   110  H   -0.036342
   111  H   -0.029838
   112  H   -0.041860
   113  H   -0.049418
   114  H   -0.035854
   115  H   -0.003802
   116  H   -0.023388
   117  H   -0.024920
   118  H   -0.028059
   119  H   -0.042394
   120  H   -0.022506
   121  H   -0.042710
   122  H   -0.034504
   123  H   -0.039451
   124  H   -0.040402
   125  H   -0.009430
   126  H   -0.012488
   127  H   -0.020061
   128  H   -0.046688
   129  H   -0.041733
   130  H   -0.046791
   131  H   -0.037688
   132  H   -0.049047
   133  H   -0.048799
   134  H   -0.042526
   135  H   -0.025266
   136  H   -0.021617
   137  H   -0.017891
   138  H   -0.014851
   139  H   -0.022973
   140  H   -0.002555
 Sum of Mulliken charges =  -0.00000

 Dipole moment (field-independent basis, Debye):
    X=              1.4505    Y=              0.1116    Z=              1.5542  Tot=              2.1288
 Quadrupole moment (field-independent basis, Debye-Ang):
   XX=           -373.6124   YY=           -420.3864   ZZ=           -403.0869
   XY=             43.9339   XZ=             -6.6967   YZ=             15.1027

 Normal termination of Gaussian 16 at Fri Apr 29 13:43:21 2022.
