 Gaussian 16, Revision A.03,
 Gaussian 16:  ES64L-G16RevA.03 25-Dec-2016

 -----------------------------------
 #p cam-b3lyp/Def2SVP td=(nstates=5)
 -----------------------------------

 -------------------------------------------------------
 step_301_chromophore_20 TDDFT with cam-b3lyp functional
 -------------------------------------------------------
 Symbolic Z-matrix:
 Charge =  0 Multiplicity = 1

                         Standard orientation:
 ---------------------------------------------------------------------
 Center     Atomic      Atomic             Coordinates (Angstroms)
 Number     Number       Type             X           Y           Z
 ---------------------------------------------------------------------
      1         12           0        4.230583    1.171071   -0.441635
      2          6           0        3.996923   -2.358377   -0.871890
      3          6           0        1.840422    1.304549   -3.034747
      4          6           0        3.873407    4.291032    0.124790
      5          6           0        6.346999    0.681297    2.129882
      6          7           0        2.893154   -0.312826   -1.626959
      7          6           0        3.000048   -1.719357   -1.631108
      8          6           0        1.954623   -2.354474   -2.534794
      9          6           0        1.700584   -1.104432   -3.492505
     10          6           0        2.182793    0.010149   -2.719275
     11          6           0        2.490274   -1.244482   -4.823867
     12          6           0        0.766290   -2.704498   -1.592175
     13          6           0       -0.049177   -3.886979   -1.872145
     14          6           0       -1.539556   -3.791954   -2.137961
     15          8           0       -2.041257   -3.893437   -3.265121
     16          8           0       -2.259187   -3.587309   -1.052998
     17          7           0        2.990767    2.655523   -1.271174
     18          6           0        2.151371    2.485272   -2.359053
     19          6           0        1.568864    3.699558   -2.660923
     20          6           0        2.073950    4.702600   -1.743472
     21          6           0        3.012803    3.892927   -0.904481
     22          6           0        0.521535    3.918595   -3.770355
     23          6           0        1.787073    6.128496   -1.663374
     24          8           0        0.964491    6.709804   -2.370064
     25          6           0        2.620667    7.050718   -0.733454
     26          7           0        4.647689    2.263248    1.234046
     27          6           0        4.602936    3.574317    1.075464
     28          6           0        5.625964    4.334987    1.946966
     29          6           0        6.356856    3.135480    2.641469
     30          6           0        5.716002    1.931335    1.986346
     31          6           0        6.618862    5.178189    1.152934
     32          6           0        6.262710    3.273930    4.119591
     33          6           0        7.454885    2.726697    4.871571
     34          7           0        5.100681   -0.494676    0.504464
     35          6           0        6.016911   -0.526345    1.443990
     36          6           0        6.442641   -1.865798    1.706251
     37          6           0        5.715821   -2.620513    0.771442
     38          6           0        4.897934   -1.727986    0.047707
     39          6           0        7.577578   -2.205396    2.711223
     40          6           0        5.539709   -3.955035    0.296724
     41          8           0        6.043981   -5.033180    0.628151
     42          6           0        4.355775   -3.879037   -0.840842
     43          6           0        3.290575   -4.684312   -0.351590
     44          8           0        2.464691   -4.329806    0.501994
     45          8           0        3.263792   -5.884089   -0.980105
     46          6           0        2.156524   -6.849275   -0.620889
     47          6           0       -3.775318   -3.552618   -1.214671
     48          6           0       -4.449609   -3.732859    0.110070
     49          6           0       -4.842337   -4.936178    0.564160
     50          6           0       -4.423345   -6.273873   -0.050746
     51          6           0       -5.859195   -5.000370    1.658524
     52          6           0       -7.073821   -4.095013    1.638853
     53          6           0       -7.278123   -3.249566    2.819181
     54          6           0       -6.665754   -1.830687    2.819330
     55          6           0       -5.212116   -1.825379    3.345618
     56          6           0       -7.480361   -0.851502    3.615640
     57          6           0       -7.094127    0.596583    3.109308
     58          6           0       -8.207722    1.556705    2.792228
     59          6           0       -7.709120    2.955106    2.312158
     60          6           0       -7.318876    3.908453    3.543768
     61          6           0       -8.668880    3.624831    1.298773
     62          6           0       -8.116229    4.114882   -0.073322
     63          6           0       -8.394981    3.208248   -1.295266
     64          6           0       -9.638584    3.575540   -2.077616
     65          6           0      -10.643238    2.522391   -2.107890
     66          6           0       -9.277473    4.152395   -3.485088
     67          1           0        1.344810    1.300060   -4.007620
     68          1           0        3.975990    5.376875    0.188908
     69          1           0        7.096552    0.559388    2.915295
     70          1           0        2.360155   -3.263866   -2.977337
     71          1           0        0.637844   -0.926415   -3.654966
     72          1           0        3.403096   -0.680683   -5.018948
     73          1           0        1.941979   -0.911846   -5.705354
     74          1           0        2.661154   -2.298228   -5.048709
     75          1           0        0.059377   -1.887013   -1.733726
     76          1           0        1.034950   -2.716586   -0.535853
     77          1           0       -0.088255   -4.404681   -0.914269
     78          1           0        0.366694   -4.472284   -2.691943
     79          1           0       -0.463701    4.229546   -3.422515
     80          1           0        0.368597    3.112319   -4.488244
     81          1           0        0.866700    4.776513   -4.347267
     82          1           0        3.634873    6.904044   -1.105297
     83          1           0        2.371325    6.725660    0.276727
     84          1           0        2.397476    8.096754   -0.943038
     85          1           0        5.073522    4.870676    2.718672
     86          1           0        7.396645    3.058378    2.323508
     87          1           0        6.507588    5.085213    0.072878
     88          1           0        7.658331    4.989938    1.424622
     89          1           0        6.231339    6.173307    1.370390
     90          1           0        5.385057    2.712236    4.439814
     91          1           0        6.132082    4.339789    4.305356
     92          1           0        7.768306    3.528882    5.538720
     93          1           0        8.215867    2.558222    4.110779
     94          1           0        7.483591    1.811393    5.463199
     95          1           0        8.362983   -1.455172    2.620791
     96          1           0        7.991361   -3.193828    2.515185
     97          1           0        7.091703   -2.307966    3.681280
     98          1           0        4.739151   -4.222103   -1.801559
     99          1           0        2.724880   -7.737282   -0.342313
    100          1           0        1.443432   -6.921580   -1.442154
    101          1           0        1.595602   -6.564008    0.268845
    102          1           0       -4.117249   -4.391779   -1.821413
    103          1           0       -4.160111   -2.627880   -1.644365
    104          1           0       -4.882636   -2.793044    0.454876
    105          1           0       -3.485604   -6.134138   -0.588659
    106          1           0       -5.143174   -6.793399   -0.683346
    107          1           0       -4.170971   -6.914904    0.794627
    108          1           0       -5.260495   -5.045513    2.567660
    109          1           0       -6.280225   -6.004214    1.714479
    110          1           0       -7.950205   -4.741804    1.679070
    111          1           0       -7.138701   -3.411112    0.791750
    112          1           0       -6.953203   -3.767517    3.720957
    113          1           0       -8.367596   -3.219920    2.779367
    114          1           0       -6.570685   -1.558054    1.767668
    115          1           0       -4.786865   -2.820021    3.482063
    116          1           0       -5.080215   -1.101906    4.150160
    117          1           0       -4.605652   -1.326726    2.588984
    118          1           0       -7.235350   -0.892564    4.676338
    119          1           0       -8.529498   -1.087657    3.440244
    120          1           0       -6.385817    0.521179    2.284545
    121          1           0       -6.582586    1.010352    3.978079
    122          1           0       -8.863868    1.663056    3.656364
    123          1           0       -8.792994    1.020760    2.044377
    124          1           0       -6.784709    2.734375    1.779619
    125          1           0       -7.646273    4.929173    3.349481
    126          1           0       -6.262612    3.917216    3.813296
    127          1           0       -7.783613    3.502045    4.442411
    128          1           0       -9.109056    4.428504    1.889482
    129          1           0       -9.478565    2.914843    1.130486
    130          1           0       -7.035041    4.168575    0.057596
    131          1           0       -8.313628    5.132003   -0.409427
    132          1           0       -8.449758    2.161107   -0.997044
    133          1           0       -7.511378    3.244702   -1.932759
    134          1           0      -10.065194    4.469682   -1.622821
    135          1           0      -10.565640    1.918758   -3.012042
    136          1           0      -11.610713    3.025122   -2.123126
    137          1           0      -10.588752    1.841555   -1.259180
    138          1           0       -9.035129    5.210438   -3.383764
    139          1           0      -10.229961    4.114774   -4.014114
    140          1           0       -8.456628    3.516887   -3.816414
 ---------------------------------------------------------------------

 SCF Done:  E(RCAM-B3LYP) =  -3007.12909986     A.U. after   17 cycles

 Excitation energies and oscillator strengths:

 Excited State   1:      Singlet-A      1.6814 eV  737.37 nm  f=0.3903  <S**2>=0.000
     245 -> 248        0.15631
     246 -> 247        0.69041
 This state for optimization and/or second-order correction.
 Total Energy, E(TD-HF/TD-DFT) =  -3007.06730804
 Copying the excited state density for this state as the 1-particle RhoCI density.

 Excited State   2:      Singlet-A      2.2114 eV  560.66 nm  f=0.1619  <S**2>=0.000
     245 -> 247        0.65965
     246 -> 248       -0.23262

 Excited State   3:      Singlet-A      3.2248 eV  384.47 nm  f=0.0017  <S**2>=0.000
     244 -> 247        0.61125
     244 -> 248        0.14265
     244 -> 249        0.15570
     244 -> 251       -0.21002

 Excited State   4:      Singlet-A      3.2959 eV  376.18 nm  f=0.0074  <S**2>=0.000
     243 -> 247        0.67285

 Excited State   5:      Singlet-A      3.4932 eV  354.93 nm  f=0.0023  <S**2>=0.000
     240 -> 247        0.54426
     240 -> 249       -0.26167
     240 -> 250        0.22104
     240 -> 251       -0.12639
     241 -> 247        0.20837

 The electronic state is 1-A.
 Alpha  occ. eigenvalues --  -46.89972 -19.25038 -19.24756 -19.19325 -19.18928
 Alpha  occ. eigenvalues --  -19.17635 -19.17580 -14.42524 -14.41925 -14.39685
 Alpha  occ. eigenvalues --  -14.39262 -10.38788 -10.37802 -10.35561 -10.34048
 Alpha  occ. eigenvalues --  -10.32037 -10.31880 -10.31426 -10.31142 -10.30759
 Alpha  occ. eigenvalues --  -10.30562 -10.30280 -10.29674 -10.28871 -10.28862
 Alpha  occ. eigenvalues --  -10.28826 -10.28725 -10.28655 -10.28545 -10.28263
 Alpha  occ. eigenvalues --  -10.27758 -10.27746 -10.27672 -10.27104 -10.26898
 Alpha  occ. eigenvalues --  -10.26757 -10.26622 -10.26596 -10.26490 -10.26466
 Alpha  occ. eigenvalues --  -10.26431 -10.26146 -10.26033 -10.25963 -10.25870
 Alpha  occ. eigenvalues --  -10.25865 -10.25770 -10.25642 -10.25471 -10.25378
 Alpha  occ. eigenvalues --  -10.25287 -10.25273 -10.25048 -10.24958 -10.24720
 Alpha  occ. eigenvalues --  -10.24665 -10.24541 -10.24526 -10.24505 -10.24436
 Alpha  occ. eigenvalues --  -10.24271 -10.24121 -10.24085 -10.23967 -10.23934
 Alpha  occ. eigenvalues --  -10.23663  -3.18502  -1.93349  -1.93001  -1.92782
 Alpha  occ. eigenvalues --   -1.16064  -1.15674  -1.09196  -1.08621  -1.06525
 Alpha  occ. eigenvalues --   -1.06198  -1.05421  -1.05407  -1.05049  -1.04020
 Alpha  occ. eigenvalues --   -0.92472  -0.91615  -0.90678  -0.90133  -0.89797
 Alpha  occ. eigenvalues --   -0.89563  -0.89371  -0.88288  -0.87813  -0.86921
 Alpha  occ. eigenvalues --   -0.86136  -0.85893  -0.85310  -0.84584  -0.84096
 Alpha  occ. eigenvalues --   -0.82808  -0.82327  -0.81531  -0.81116  -0.80418
 Alpha  occ. eigenvalues --   -0.79532  -0.78433  -0.77809  -0.77275  -0.76782
 Alpha  occ. eigenvalues --   -0.76462  -0.76010  -0.75622  -0.74608  -0.74318
 Alpha  occ. eigenvalues --   -0.73714  -0.73177  -0.72520  -0.70794  -0.69961
 Alpha  occ. eigenvalues --   -0.69370  -0.68859  -0.68047  -0.66950  -0.66683
 Alpha  occ. eigenvalues --   -0.65990  -0.65295  -0.64789  -0.64311  -0.63506
 Alpha  occ. eigenvalues --   -0.63192  -0.62946  -0.62143  -0.61894  -0.60550
 Alpha  occ. eigenvalues --   -0.59999  -0.59676  -0.59537  -0.59024  -0.58487
 Alpha  occ. eigenvalues --   -0.57967  -0.56752  -0.56712  -0.56376  -0.55905
 Alpha  occ. eigenvalues --   -0.55257  -0.54984  -0.54879  -0.54451  -0.54166
 Alpha  occ. eigenvalues --   -0.53825  -0.53646  -0.53516  -0.53110  -0.52780
 Alpha  occ. eigenvalues --   -0.52646  -0.52461  -0.51933  -0.51804  -0.51721
 Alpha  occ. eigenvalues --   -0.51577  -0.51433  -0.51293  -0.51180  -0.51104
 Alpha  occ. eigenvalues --   -0.50766  -0.50495  -0.50152  -0.50030  -0.49741
 Alpha  occ. eigenvalues --   -0.49556  -0.49408  -0.49115  -0.48749  -0.48661
 Alpha  occ. eigenvalues --   -0.48403  -0.48310  -0.48052  -0.47918  -0.47723
 Alpha  occ. eigenvalues --   -0.47521  -0.47491  -0.47090  -0.46898  -0.46794
 Alpha  occ. eigenvalues --   -0.46575  -0.46487  -0.46227  -0.45933  -0.45643
 Alpha  occ. eigenvalues --   -0.45615  -0.45531  -0.45326  -0.45212  -0.45067
 Alpha  occ. eigenvalues --   -0.44888  -0.44763  -0.44577  -0.44219  -0.44028
 Alpha  occ. eigenvalues --   -0.44004  -0.43847  -0.43348  -0.43142  -0.42871
 Alpha  occ. eigenvalues --   -0.42557  -0.42473  -0.42269  -0.42101  -0.41971
 Alpha  occ. eigenvalues --   -0.41938  -0.41692  -0.41246  -0.41203  -0.41100
 Alpha  occ. eigenvalues --   -0.40898  -0.40754  -0.40512  -0.40084  -0.40079
 Alpha  occ. eigenvalues --   -0.39683  -0.39415  -0.38895  -0.38744  -0.38714
 Alpha  occ. eigenvalues --   -0.38649  -0.38043  -0.37970  -0.37763  -0.37255
 Alpha  occ. eigenvalues --   -0.37094  -0.37078  -0.36587  -0.36302  -0.36237
 Alpha  occ. eigenvalues --   -0.35856  -0.35654  -0.34780  -0.34634  -0.34395
 Alpha  occ. eigenvalues --   -0.34020  -0.33726  -0.32366  -0.31481  -0.30871
 Alpha  occ. eigenvalues --   -0.30326  -0.30158  -0.29994  -0.29756  -0.24320
 Alpha  occ. eigenvalues --   -0.21609
 Alpha virt. eigenvalues --   -0.09339  -0.01333   0.00003   0.00672   0.02642
 Alpha virt. eigenvalues --    0.03859   0.04605   0.05707   0.06608   0.07499
 Alpha virt. eigenvalues --    0.08312   0.08739   0.08833   0.09144   0.09380

 Mulliken charges:
               1
     1  Mg   0.812925
     2  C    0.002030
     3  C   -0.114934
     4  C   -0.100283
     5  C   -0.100087
     6  N   -0.246166
     7  C   -0.064312
     8  C   -0.048750
     9  C    0.006483
    10  C   -0.007725
    11  C    0.058493
    12  C    0.075236
    13  C    0.119343
    14  C    0.096538
    15  O   -0.274168
    16  O   -0.312288
    17  N   -0.325287
    18  C    0.211341
    19  C   -0.135326
    20  C    0.009037
    21  C    0.136488
    22  C    0.133493
    23  C   -0.075551
    24  O   -0.214617
    25  C    0.062221
    26  N   -0.300874
    27  C    0.043275
    28  C   -0.055163
    29  C   -0.085931
    30  C    0.086136
    31  C    0.079760
    32  C    0.081245
    33  C    0.010017
    34  N   -0.285760
    35  C    0.064863
    36  C   -0.174970
    37  C    0.037384
    38  C    0.093509
    39  C    0.123508
    40  C    0.030515
    41  O   -0.178825
    42  C   -0.032026
    43  C    0.208386
    44  O   -0.252640
    45  O   -0.334906
    46  C    0.162990
    47  C    0.260207
    48  C   -0.111836
    49  C   -0.168897
    50  C    0.075835
    51  C    0.095600
    52  C    0.055195
    53  C    0.035641
    54  C   -0.165454
    55  C    0.062378
    56  C    0.095865
    57  C   -0.018662
    58  C    0.050680
    59  C   -0.131937
    60  C    0.042318
    61  C    0.094418
    62  C    0.030256
    63  C    0.046197
    64  C   -0.165298
    65  C    0.070695
    66  C    0.049467
    67  H   -0.026187
    68  H   -0.056102
    69  H   -0.034045
    70  H    0.006237
    71  H    0.020363
    72  H    0.024159
    73  H    0.010497
    74  H    0.018911
    75  H   -0.002344
    76  H    0.058618
    77  H    0.018713
    78  H    0.013694
    79  H    0.036753
    80  H    0.001598
    81  H    0.028092
    82  H    0.037305
    83  H    0.046082
    84  H    0.020184
    85  H    0.017341
    86  H    0.007487
    87  H    0.020006
    88  H    0.029919
    89  H    0.019658
    90  H    0.012056
    91  H    0.007179
    92  H    0.010554
    93  H   -0.003389
    94  H    0.025687
    95  H    0.033795
    96  H    0.026417
    97  H    0.031220
    98  H    0.042702
    99  H    0.053089
   100  H    0.050059
   101  H    0.053325
   102  H    0.031743
   103  H    0.026647
   104  H   -0.008757
   105  H    0.020182
   106  H    0.042954
   107  H    0.017391
   108  H    0.015337
   109  H   -0.020548
   110  H   -0.004193
   111  H   -0.000255
   112  H   -0.013091
   113  H   -0.018381
   114  H   -0.008163
   115  H    0.019158
   116  H    0.002862
   117  H   -0.001350
   118  H    0.002063
   119  H   -0.012751
   120  H    0.002462
   121  H   -0.015812
   122  H   -0.006808
   123  H   -0.012605
   124  H   -0.009323
   125  H    0.014099
   126  H    0.011617
   127  H    0.002811
   128  H   -0.016089
   129  H   -0.013943
   130  H   -0.016486
   131  H   -0.008834
   132  H   -0.020175
   133  H   -0.017346
   134  H   -0.010042
   135  H    0.000079
   136  H    0.003695
   137  H    0.005635
   138  H    0.008898
   139  H    0.001892
   140  H    0.018498
 Sum of Mulliken charges =  -0.00000

 Dipole moment (field-independent basis, Debye):
    X=              1.1397    Y=              0.5337    Z=              1.0547  Tot=              1.6420
 Quadrupole moment (field-independent basis, Debye-Ang):
   XX=           -375.1572   YY=           -416.0971   ZZ=           -401.8259
   XY=             47.1529   XZ=             -7.9231   YZ=             15.2356

 Normal termination of Gaussian 16 at Fri Apr 29 12:28:07 2022.
