 Gaussian 16, Revision A.03,
 Gaussian 16:  ES64L-G16RevA.03 25-Dec-2016

 ---------------------------------
 #p PBE1PBE/Def2SVP td=(nstates=5)
 ---------------------------------

 -----------------------------------------------------
 step_301_chromophore_20 TDDFT with PBE1PBE functional
 -----------------------------------------------------
 Symbolic Z-matrix:
 Charge =  0 Multiplicity = 1

                         Standard orientation:
 ---------------------------------------------------------------------
 Center     Atomic      Atomic             Coordinates (Angstroms)
 Number     Number       Type             X           Y           Z
 ---------------------------------------------------------------------
      1         12           0        4.230583    1.171071   -0.441635
      2          6           0        3.996923   -2.358377   -0.871890
      3          6           0        1.840422    1.304549   -3.034747
      4          6           0        3.873407    4.291032    0.124790
      5          6           0        6.346999    0.681297    2.129882
      6          7           0        2.893154   -0.312826   -1.626959
      7          6           0        3.000048   -1.719357   -1.631108
      8          6           0        1.954623   -2.354474   -2.534794
      9          6           0        1.700584   -1.104432   -3.492505
     10          6           0        2.182793    0.010149   -2.719275
     11          6           0        2.490274   -1.244482   -4.823867
     12          6           0        0.766290   -2.704498   -1.592175
     13          6           0       -0.049177   -3.886979   -1.872145
     14          6           0       -1.539556   -3.791954   -2.137961
     15          8           0       -2.041257   -3.893437   -3.265121
     16          8           0       -2.259187   -3.587309   -1.052998
     17          7           0        2.990767    2.655523   -1.271174
     18          6           0        2.151371    2.485272   -2.359053
     19          6           0        1.568864    3.699558   -2.660923
     20          6           0        2.073950    4.702600   -1.743472
     21          6           0        3.012803    3.892927   -0.904481
     22          6           0        0.521535    3.918595   -3.770355
     23          6           0        1.787073    6.128496   -1.663374
     24          8           0        0.964491    6.709804   -2.370064
     25          6           0        2.620667    7.050718   -0.733454
     26          7           0        4.647689    2.263248    1.234046
     27          6           0        4.602936    3.574317    1.075464
     28          6           0        5.625964    4.334987    1.946966
     29          6           0        6.356856    3.135480    2.641469
     30          6           0        5.716002    1.931335    1.986346
     31          6           0        6.618862    5.178189    1.152934
     32          6           0        6.262710    3.273930    4.119591
     33          6           0        7.454885    2.726697    4.871571
     34          7           0        5.100681   -0.494676    0.504464
     35          6           0        6.016911   -0.526345    1.443990
     36          6           0        6.442641   -1.865798    1.706251
     37          6           0        5.715821   -2.620513    0.771442
     38          6           0        4.897934   -1.727986    0.047707
     39          6           0        7.577578   -2.205396    2.711223
     40          6           0        5.539709   -3.955035    0.296724
     41          8           0        6.043981   -5.033180    0.628151
     42          6           0        4.355775   -3.879037   -0.840842
     43          6           0        3.290575   -4.684312   -0.351590
     44          8           0        2.464691   -4.329806    0.501994
     45          8           0        3.263792   -5.884089   -0.980105
     46          6           0        2.156524   -6.849275   -0.620889
     47          6           0       -3.775318   -3.552618   -1.214671
     48          6           0       -4.449609   -3.732859    0.110070
     49          6           0       -4.842337   -4.936178    0.564160
     50          6           0       -4.423345   -6.273873   -0.050746
     51          6           0       -5.859195   -5.000370    1.658524
     52          6           0       -7.073821   -4.095013    1.638853
     53          6           0       -7.278123   -3.249566    2.819181
     54          6           0       -6.665754   -1.830687    2.819330
     55          6           0       -5.212116   -1.825379    3.345618
     56          6           0       -7.480361   -0.851502    3.615640
     57          6           0       -7.094127    0.596583    3.109308
     58          6           0       -8.207722    1.556705    2.792228
     59          6           0       -7.709120    2.955106    2.312158
     60          6           0       -7.318876    3.908453    3.543768
     61          6           0       -8.668880    3.624831    1.298773
     62          6           0       -8.116229    4.114882   -0.073322
     63          6           0       -8.394981    3.208248   -1.295266
     64          6           0       -9.638584    3.575540   -2.077616
     65          6           0      -10.643238    2.522391   -2.107890
     66          6           0       -9.277473    4.152395   -3.485088
     67          1           0        1.344810    1.300060   -4.007620
     68          1           0        3.975990    5.376875    0.188908
     69          1           0        7.096552    0.559388    2.915295
     70          1           0        2.360155   -3.263866   -2.977337
     71          1           0        0.637844   -0.926415   -3.654966
     72          1           0        3.403096   -0.680683   -5.018948
     73          1           0        1.941979   -0.911846   -5.705354
     74          1           0        2.661154   -2.298228   -5.048709
     75          1           0        0.059377   -1.887013   -1.733726
     76          1           0        1.034950   -2.716586   -0.535853
     77          1           0       -0.088255   -4.404681   -0.914269
     78          1           0        0.366694   -4.472284   -2.691943
     79          1           0       -0.463701    4.229546   -3.422515
     80          1           0        0.368597    3.112319   -4.488244
     81          1           0        0.866700    4.776513   -4.347267
     82          1           0        3.634873    6.904044   -1.105297
     83          1           0        2.371325    6.725660    0.276727
     84          1           0        2.397476    8.096754   -0.943038
     85          1           0        5.073522    4.870676    2.718672
     86          1           0        7.396645    3.058378    2.323508
     87          1           0        6.507588    5.085213    0.072878
     88          1           0        7.658331    4.989938    1.424622
     89          1           0        6.231339    6.173307    1.370390
     90          1           0        5.385057    2.712236    4.439814
     91          1           0        6.132082    4.339789    4.305356
     92          1           0        7.768306    3.528882    5.538720
     93          1           0        8.215867    2.558222    4.110779
     94          1           0        7.483591    1.811393    5.463199
     95          1           0        8.362983   -1.455172    2.620791
     96          1           0        7.991361   -3.193828    2.515185
     97          1           0        7.091703   -2.307966    3.681280
     98          1           0        4.739151   -4.222103   -1.801559
     99          1           0        2.724880   -7.737282   -0.342313
    100          1           0        1.443432   -6.921580   -1.442154
    101          1           0        1.595602   -6.564008    0.268845
    102          1           0       -4.117249   -4.391779   -1.821413
    103          1           0       -4.160111   -2.627880   -1.644365
    104          1           0       -4.882636   -2.793044    0.454876
    105          1           0       -3.485604   -6.134138   -0.588659
    106          1           0       -5.143174   -6.793399   -0.683346
    107          1           0       -4.170971   -6.914904    0.794627
    108          1           0       -5.260495   -5.045513    2.567660
    109          1           0       -6.280225   -6.004214    1.714479
    110          1           0       -7.950205   -4.741804    1.679070
    111          1           0       -7.138701   -3.411112    0.791750
    112          1           0       -6.953203   -3.767517    3.720957
    113          1           0       -8.367596   -3.219920    2.779367
    114          1           0       -6.570685   -1.558054    1.767668
    115          1           0       -4.786865   -2.820021    3.482063
    116          1           0       -5.080215   -1.101906    4.150160
    117          1           0       -4.605652   -1.326726    2.588984
    118          1           0       -7.235350   -0.892564    4.676338
    119          1           0       -8.529498   -1.087657    3.440244
    120          1           0       -6.385817    0.521179    2.284545
    121          1           0       -6.582586    1.010352    3.978079
    122          1           0       -8.863868    1.663056    3.656364
    123          1           0       -8.792994    1.020760    2.044377
    124          1           0       -6.784709    2.734375    1.779619
    125          1           0       -7.646273    4.929173    3.349481
    126          1           0       -6.262612    3.917216    3.813296
    127          1           0       -7.783613    3.502045    4.442411
    128          1           0       -9.109056    4.428504    1.889482
    129          1           0       -9.478565    2.914843    1.130486
    130          1           0       -7.035041    4.168575    0.057596
    131          1           0       -8.313628    5.132003   -0.409427
    132          1           0       -8.449758    2.161107   -0.997044
    133          1           0       -7.511378    3.244702   -1.932759
    134          1           0      -10.065194    4.469682   -1.622821
    135          1           0      -10.565640    1.918758   -3.012042
    136          1           0      -11.610713    3.025122   -2.123126
    137          1           0      -10.588752    1.841555   -1.259180
    138          1           0       -9.035129    5.210438   -3.383764
    139          1           0      -10.229961    4.114774   -4.014114
    140          1           0       -8.456628    3.516887   -3.816414
 ---------------------------------------------------------------------

 SCF Done:  E(RPBE1PBE) =  -3005.31970223     A.U. after   15 cycles

 Excitation energies and oscillator strengths:

 Excited State   1:      Singlet-A      1.8305 eV  677.31 nm  f=0.3714  <S**2>=0.000
     245 -> 248        0.15094
     246 -> 247        0.69807
     246 <- 247       -0.11631
 This state for optimization and/or second-order correction.
 Total Energy, E(TD-HF/TD-DFT) =  -3005.25243146
 Copying the excited state density for this state as the 1-particle RhoCI density.

 Excited State   2:      Singlet-A      2.2115 eV  560.64 nm  f=0.1523  <S**2>=0.000
     245 -> 247        0.66730
     246 -> 248       -0.20907

 Excited State   3:      Singlet-A      2.6079 eV  475.42 nm  f=0.0002  <S**2>=0.000
     244 -> 247        0.68354
     244 -> 248        0.10150
     244 -> 251       -0.10302

 Excited State   4:      Singlet-A      2.9666 eV  417.93 nm  f=0.0101  <S**2>=0.000
     241 -> 247       -0.23183
     242 -> 247        0.65484

 Excited State   5:      Singlet-A      2.9743 eV  416.85 nm  f=0.0010  <S**2>=0.000
     240 -> 247       -0.13905
     241 -> 247        0.62549
     241 -> 249        0.16238
     242 -> 247        0.22088

 The electronic state is 1-A.
 Alpha  occ. eigenvalues --  -46.93334 -19.25668 -19.25383 -19.19718 -19.19160
 Alpha  occ. eigenvalues --  -19.17896 -19.17752 -14.41843 -14.41547 -14.39210
 Alpha  occ. eigenvalues --  -14.38977 -10.35721 -10.34829 -10.32838 -10.31072
 Alpha  occ. eigenvalues --  -10.29256 -10.29234 -10.29045 -10.29004 -10.28643
 Alpha  occ. eigenvalues --  -10.27966 -10.27759 -10.27107 -10.26792 -10.26782
 Alpha  occ. eigenvalues --  -10.26614 -10.26559 -10.26258 -10.26010 -10.25924
 Alpha  occ. eigenvalues --  -10.25667 -10.25582 -10.25388 -10.24510 -10.24497
 Alpha  occ. eigenvalues --  -10.24479 -10.24444 -10.24185 -10.24078 -10.23985
 Alpha  occ. eigenvalues --  -10.23817 -10.23815 -10.23805 -10.23502 -10.23464
 Alpha  occ. eigenvalues --  -10.23434 -10.23190 -10.23133 -10.23019 -10.22896
 Alpha  occ. eigenvalues --  -10.22883 -10.22835 -10.22743 -10.22492 -10.22236
 Alpha  occ. eigenvalues --  -10.22099 -10.22057 -10.22055 -10.22034 -10.21965
 Alpha  occ. eigenvalues --  -10.21721 -10.21649 -10.21515 -10.21481 -10.21450
 Alpha  occ. eigenvalues --  -10.20985  -3.15445  -1.88230  -1.87863  -1.87647
 Alpha  occ. eigenvalues --   -1.10872  -1.10404  -1.04066  -1.03246  -1.01300
 Alpha  occ. eigenvalues --   -1.00951  -1.00260  -1.00209  -0.99636  -0.98556
 Alpha  occ. eigenvalues --   -0.86864  -0.85743  -0.85032  -0.84337  -0.83933
 Alpha  occ. eigenvalues --   -0.83799  -0.83481  -0.82617  -0.81920  -0.81212
 Alpha  occ. eigenvalues --   -0.80533  -0.80097  -0.79475  -0.78940  -0.78349
 Alpha  occ. eigenvalues --   -0.76989  -0.76588  -0.75721  -0.75449  -0.74590
 Alpha  occ. eigenvalues --   -0.73667  -0.72732  -0.72188  -0.71453  -0.70925
 Alpha  occ. eigenvalues --   -0.70735  -0.70285  -0.69693  -0.68726  -0.68463
 Alpha  occ. eigenvalues --   -0.68166  -0.67539  -0.66931  -0.65127  -0.64418
 Alpha  occ. eigenvalues --   -0.63712  -0.63157  -0.62456  -0.61189  -0.61157
 Alpha  occ. eigenvalues --   -0.60452  -0.59865  -0.59309  -0.58558  -0.57705
 Alpha  occ. eigenvalues --   -0.57585  -0.57090  -0.56488  -0.56286  -0.55091
 Alpha  occ. eigenvalues --   -0.54595  -0.54209  -0.53866  -0.53643  -0.53005
 Alpha  occ. eigenvalues --   -0.52508  -0.51182  -0.51063  -0.50951  -0.50423
 Alpha  occ. eigenvalues --   -0.49757  -0.49470  -0.49377  -0.48924  -0.48708
 Alpha  occ. eigenvalues --   -0.48387  -0.48165  -0.47879  -0.47711  -0.47399
 Alpha  occ. eigenvalues --   -0.47002  -0.46858  -0.46472  -0.46366  -0.46318
 Alpha  occ. eigenvalues --   -0.46188  -0.45949  -0.45870  -0.45758  -0.45603
 Alpha  occ. eigenvalues --   -0.45354  -0.45126  -0.44697  -0.44516  -0.44319
 Alpha  occ. eigenvalues --   -0.44166  -0.44039  -0.43804  -0.43374  -0.43228
 Alpha  occ. eigenvalues --   -0.43081  -0.42928  -0.42704  -0.42570  -0.42320
 Alpha  occ. eigenvalues --   -0.42200  -0.42165  -0.41721  -0.41668  -0.41336
 Alpha  occ. eigenvalues --   -0.41194  -0.41109  -0.40875  -0.40534  -0.40413
 Alpha  occ. eigenvalues --   -0.40196  -0.40192  -0.40086  -0.39909  -0.39696
 Alpha  occ. eigenvalues --   -0.39622  -0.39447  -0.39390  -0.38894  -0.38826
 Alpha  occ. eigenvalues --   -0.38695  -0.38585  -0.38140  -0.38023  -0.37719
 Alpha  occ. eigenvalues --   -0.37450  -0.37221  -0.37016  -0.36801  -0.36764
 Alpha  occ. eigenvalues --   -0.36702  -0.36428  -0.36096  -0.36055  -0.35855
 Alpha  occ. eigenvalues --   -0.35661  -0.35602  -0.35284  -0.34931  -0.34874
 Alpha  occ. eigenvalues --   -0.34487  -0.34377  -0.33826  -0.33569  -0.33489
 Alpha  occ. eigenvalues --   -0.33414  -0.32830  -0.32776  -0.32769  -0.32344
 Alpha  occ. eigenvalues --   -0.32087  -0.31848  -0.31410  -0.31190  -0.31125
 Alpha  occ. eigenvalues --   -0.30815  -0.30437  -0.29861  -0.29622  -0.29379
 Alpha  occ. eigenvalues --   -0.29361  -0.28686  -0.27322  -0.27065  -0.26149
 Alpha  occ. eigenvalues --   -0.25904  -0.25451  -0.25366  -0.24403  -0.21245
 Alpha  occ. eigenvalues --   -0.19206
 Alpha virt. eigenvalues --   -0.11753  -0.04987  -0.04047  -0.02347  -0.01608
 Alpha virt. eigenvalues --   -0.00597   0.00107   0.01304   0.02111   0.03620
 Alpha virt. eigenvalues --    0.04668   0.04967   0.05407   0.05551   0.06117

 Mulliken charges:
               1
     1  Mg   0.953685
     2  C   -0.007479
     3  C   -0.093901
     4  C   -0.100460
     5  C   -0.085955
     6  N   -0.341804
     7  C    0.009264
     8  C   -0.121315
     9  C   -0.083858
    10  C    0.034946
    11  C    0.010454
    12  C    0.032850
    13  C    0.040473
    14  C    0.168276
    15  O   -0.306979
    16  O   -0.341920
    17  N   -0.446677
    18  C    0.222749
    19  C   -0.156966
    20  C   -0.041776
    21  C    0.174899
    22  C    0.080826
    23  C   -0.022481
    24  O   -0.251347
    25  C   -0.022338
    26  N   -0.406870
    27  C    0.084177
    28  C   -0.139314
    29  C   -0.163974
    30  C    0.120741
    31  C    0.023000
    32  C    0.022127
    33  C   -0.061440
    34  N   -0.420655
    35  C    0.091789
    36  C   -0.175038
    37  C   -0.024416
    38  C    0.147103
    39  C    0.067290
    40  C    0.119895
    41  O   -0.222210
    42  C   -0.140007
    43  C    0.306714
    44  O   -0.287945
    45  O   -0.369068
    46  C    0.108665
    47  C    0.211719
    48  C   -0.123979
    49  C   -0.208250
    50  C    0.006422
    51  C    0.042033
    52  C   -0.018553
    53  C   -0.015642
    54  C   -0.254843
    55  C    0.006806
    56  C    0.038523
    57  C   -0.077997
    58  C   -0.006535
    59  C   -0.213352
    60  C   -0.017580
    61  C    0.039997
    62  C   -0.038920
    63  C   -0.008143
    64  C   -0.253236
    65  C    0.006412
    66  C   -0.015161
    67  H    0.004382
    68  H   -0.019245
    69  H    0.001869
    70  H    0.041984
    71  H    0.054956
    72  H    0.050258
    73  H    0.037674
    74  H    0.045731
    75  H    0.033489
    76  H    0.089889
    77  H    0.052847
    78  H    0.045223
    79  H    0.062670
    80  H    0.027266
    81  H    0.054704
    82  H    0.063902
    83  H    0.072967
    84  H    0.048920
    85  H    0.053317
    86  H    0.044659
    87  H    0.048455
    88  H    0.056518
    89  H    0.047265
    90  H    0.045725
    91  H    0.040688
    92  H    0.039484
    93  H    0.023413
    94  H    0.052043
    95  H    0.059675
    96  H    0.055724
    97  H    0.060601
    98  H    0.077477
    99  H    0.074535
   100  H    0.071096
   101  H    0.073020
   102  H    0.058674
   103  H    0.052610
   104  H    0.025516
   105  H    0.049451
   106  H    0.069727
   107  H    0.046055
   108  H    0.046672
   109  H    0.012500
   110  H    0.029705
   111  H    0.031979
   112  H    0.020291
   113  H    0.013924
   114  H    0.029835
   115  H    0.047159
   116  H    0.030569
   117  H    0.025971
   118  H    0.035030
   119  H    0.019448
   120  H    0.032852
   121  H    0.018634
   122  H    0.025976
   123  H    0.020700
   124  H    0.029576
   125  H    0.040691
   126  H    0.038701
   127  H    0.029766
   128  H    0.017030
   129  H    0.020569
   130  H    0.017217
   131  H    0.023427
   132  H    0.013522
   133  H    0.015299
   134  H    0.028634
   135  H    0.028191
   136  H    0.031719
   137  H    0.032563
   138  H    0.037193
   139  H    0.030523
   140  H    0.045467
 Sum of Mulliken charges =  -0.00000

 Dipole moment (field-independent basis, Debye):
    X=              1.4046    Y=              0.3305    Z=              1.3683  Tot=              1.9886
 Quadrupole moment (field-independent basis, Debye-Ang):
   XX=           -368.9710   YY=           -413.4369   ZZ=           -398.2658
   XY=             47.3664   XZ=             -5.9708   YZ=             15.8385

 Normal termination of Gaussian 16 at Fri Apr 29 12:49:56 2022.
