 Gaussian 16, Revision A.03,
 Gaussian 16:  ES64L-G16RevA.03 25-Dec-2016

 --------------------------------
 #p wB97XD/Def2SVP td=(nstates=5)
 --------------------------------

 ----------------------------------------------------
 step_301_chromophore_20 TDDFT with wB97XD functional
 ----------------------------------------------------
 Symbolic Z-matrix:
 Charge =  0 Multiplicity = 1

                         Standard orientation:
 ---------------------------------------------------------------------
 Center     Atomic      Atomic             Coordinates (Angstroms)
 Number     Number       Type             X           Y           Z
 ---------------------------------------------------------------------
      1         12           0        4.230583    1.171071   -0.441635
      2          6           0        3.996923   -2.358377   -0.871890
      3          6           0        1.840422    1.304549   -3.034747
      4          6           0        3.873407    4.291032    0.124790
      5          6           0        6.346999    0.681297    2.129882
      6          7           0        2.893154   -0.312826   -1.626959
      7          6           0        3.000048   -1.719357   -1.631108
      8          6           0        1.954623   -2.354474   -2.534794
      9          6           0        1.700584   -1.104432   -3.492505
     10          6           0        2.182793    0.010149   -2.719275
     11          6           0        2.490274   -1.244482   -4.823867
     12          6           0        0.766290   -2.704498   -1.592175
     13          6           0       -0.049177   -3.886979   -1.872145
     14          6           0       -1.539556   -3.791954   -2.137961
     15          8           0       -2.041257   -3.893437   -3.265121
     16          8           0       -2.259187   -3.587309   -1.052998
     17          7           0        2.990767    2.655523   -1.271174
     18          6           0        2.151371    2.485272   -2.359053
     19          6           0        1.568864    3.699558   -2.660923
     20          6           0        2.073950    4.702600   -1.743472
     21          6           0        3.012803    3.892927   -0.904481
     22          6           0        0.521535    3.918595   -3.770355
     23          6           0        1.787073    6.128496   -1.663374
     24          8           0        0.964491    6.709804   -2.370064
     25          6           0        2.620667    7.050718   -0.733454
     26          7           0        4.647689    2.263248    1.234046
     27          6           0        4.602936    3.574317    1.075464
     28          6           0        5.625964    4.334987    1.946966
     29          6           0        6.356856    3.135480    2.641469
     30          6           0        5.716002    1.931335    1.986346
     31          6           0        6.618862    5.178189    1.152934
     32          6           0        6.262710    3.273930    4.119591
     33          6           0        7.454885    2.726697    4.871571
     34          7           0        5.100681   -0.494676    0.504464
     35          6           0        6.016911   -0.526345    1.443990
     36          6           0        6.442641   -1.865798    1.706251
     37          6           0        5.715821   -2.620513    0.771442
     38          6           0        4.897934   -1.727986    0.047707
     39          6           0        7.577578   -2.205396    2.711223
     40          6           0        5.539709   -3.955035    0.296724
     41          8           0        6.043981   -5.033180    0.628151
     42          6           0        4.355775   -3.879037   -0.840842
     43          6           0        3.290575   -4.684312   -0.351590
     44          8           0        2.464691   -4.329806    0.501994
     45          8           0        3.263792   -5.884089   -0.980105
     46          6           0        2.156524   -6.849275   -0.620889
     47          6           0       -3.775318   -3.552618   -1.214671
     48          6           0       -4.449609   -3.732859    0.110070
     49          6           0       -4.842337   -4.936178    0.564160
     50          6           0       -4.423345   -6.273873   -0.050746
     51          6           0       -5.859195   -5.000370    1.658524
     52          6           0       -7.073821   -4.095013    1.638853
     53          6           0       -7.278123   -3.249566    2.819181
     54          6           0       -6.665754   -1.830687    2.819330
     55          6           0       -5.212116   -1.825379    3.345618
     56          6           0       -7.480361   -0.851502    3.615640
     57          6           0       -7.094127    0.596583    3.109308
     58          6           0       -8.207722    1.556705    2.792228
     59          6           0       -7.709120    2.955106    2.312158
     60          6           0       -7.318876    3.908453    3.543768
     61          6           0       -8.668880    3.624831    1.298773
     62          6           0       -8.116229    4.114882   -0.073322
     63          6           0       -8.394981    3.208248   -1.295266
     64          6           0       -9.638584    3.575540   -2.077616
     65          6           0      -10.643238    2.522391   -2.107890
     66          6           0       -9.277473    4.152395   -3.485088
     67          1           0        1.344810    1.300060   -4.007620
     68          1           0        3.975990    5.376875    0.188908
     69          1           0        7.096552    0.559388    2.915295
     70          1           0        2.360155   -3.263866   -2.977337
     71          1           0        0.637844   -0.926415   -3.654966
     72          1           0        3.403096   -0.680683   -5.018948
     73          1           0        1.941979   -0.911846   -5.705354
     74          1           0        2.661154   -2.298228   -5.048709
     75          1           0        0.059377   -1.887013   -1.733726
     76          1           0        1.034950   -2.716586   -0.535853
     77          1           0       -0.088255   -4.404681   -0.914269
     78          1           0        0.366694   -4.472284   -2.691943
     79          1           0       -0.463701    4.229546   -3.422515
     80          1           0        0.368597    3.112319   -4.488244
     81          1           0        0.866700    4.776513   -4.347267
     82          1           0        3.634873    6.904044   -1.105297
     83          1           0        2.371325    6.725660    0.276727
     84          1           0        2.397476    8.096754   -0.943038
     85          1           0        5.073522    4.870676    2.718672
     86          1           0        7.396645    3.058378    2.323508
     87          1           0        6.507588    5.085213    0.072878
     88          1           0        7.658331    4.989938    1.424622
     89          1           0        6.231339    6.173307    1.370390
     90          1           0        5.385057    2.712236    4.439814
     91          1           0        6.132082    4.339789    4.305356
     92          1           0        7.768306    3.528882    5.538720
     93          1           0        8.215867    2.558222    4.110779
     94          1           0        7.483591    1.811393    5.463199
     95          1           0        8.362983   -1.455172    2.620791
     96          1           0        7.991361   -3.193828    2.515185
     97          1           0        7.091703   -2.307966    3.681280
     98          1           0        4.739151   -4.222103   -1.801559
     99          1           0        2.724880   -7.737282   -0.342313
    100          1           0        1.443432   -6.921580   -1.442154
    101          1           0        1.595602   -6.564008    0.268845
    102          1           0       -4.117249   -4.391779   -1.821413
    103          1           0       -4.160111   -2.627880   -1.644365
    104          1           0       -4.882636   -2.793044    0.454876
    105          1           0       -3.485604   -6.134138   -0.588659
    106          1           0       -5.143174   -6.793399   -0.683346
    107          1           0       -4.170971   -6.914904    0.794627
    108          1           0       -5.260495   -5.045513    2.567660
    109          1           0       -6.280225   -6.004214    1.714479
    110          1           0       -7.950205   -4.741804    1.679070
    111          1           0       -7.138701   -3.411112    0.791750
    112          1           0       -6.953203   -3.767517    3.720957
    113          1           0       -8.367596   -3.219920    2.779367
    114          1           0       -6.570685   -1.558054    1.767668
    115          1           0       -4.786865   -2.820021    3.482063
    116          1           0       -5.080215   -1.101906    4.150160
    117          1           0       -4.605652   -1.326726    2.588984
    118          1           0       -7.235350   -0.892564    4.676338
    119          1           0       -8.529498   -1.087657    3.440244
    120          1           0       -6.385817    0.521179    2.284545
    121          1           0       -6.582586    1.010352    3.978079
    122          1           0       -8.863868    1.663056    3.656364
    123          1           0       -8.792994    1.020760    2.044377
    124          1           0       -6.784709    2.734375    1.779619
    125          1           0       -7.646273    4.929173    3.349481
    126          1           0       -6.262612    3.917216    3.813296
    127          1           0       -7.783613    3.502045    4.442411
    128          1           0       -9.109056    4.428504    1.889482
    129          1           0       -9.478565    2.914843    1.130486
    130          1           0       -7.035041    4.168575    0.057596
    131          1           0       -8.313628    5.132003   -0.409427
    132          1           0       -8.449758    2.161107   -0.997044
    133          1           0       -7.511378    3.244702   -1.932759
    134          1           0      -10.065194    4.469682   -1.622821
    135          1           0      -10.565640    1.918758   -3.012042
    136          1           0      -11.610713    3.025122   -2.123126
    137          1           0      -10.588752    1.841555   -1.259180
    138          1           0       -9.035129    5.210438   -3.383764
    139          1           0      -10.229961    4.114774   -4.014114
    140          1           0       -8.456628    3.516887   -3.816414
 ---------------------------------------------------------------------

 SCF Done:  E(RwB97XD) =  -3007.82751137     A.U. after   17 cycles

 Excitation energies and oscillator strengths:

 Excited State   1:      Singlet-A      1.6325 eV  759.48 nm  f=0.3912  <S**2>=0.000
     245 -> 248       -0.16205
     246 -> 247        0.68797
     245 <- 248       -0.10846
 This state for optimization and/or second-order correction.
 Total Energy, E(TD-HF/TD-DFT) =  -3007.76751892
 Copying the excited state density for this state as the 1-particle RhoCI density.

 Excited State   2:      Singlet-A      2.1620 eV  573.47 nm  f=0.1569  <S**2>=0.000
     245 -> 247        0.65712
     246 -> 248        0.23731

 Excited State   3:      Singlet-A      3.2509 eV  381.39 nm  f=0.0013  <S**2>=0.000
     242 -> 247       -0.14425
     244 -> 247        0.57627
     244 -> 248        0.15472
     244 -> 249       -0.21272
     244 -> 251       -0.23710

 Excited State   4:      Singlet-A      3.3241 eV  372.98 nm  f=0.0061  <S**2>=0.000
     242 -> 247        0.65807

 Excited State   5:      Singlet-A      3.5450 eV  349.74 nm  f=0.0047  <S**2>=0.000
     240 -> 247        0.50988
     240 -> 249        0.34844
     240 -> 250        0.11739
     240 -> 251       -0.12539
     241 -> 247        0.23460

 The electronic state is 1-A.
 Alpha  occ. eigenvalues --  -46.96327 -19.30242 -19.29969 -19.24355 -19.23862
 Alpha  occ. eigenvalues --  -19.22701 -19.22560 -14.47186 -14.46450 -14.44286
 Alpha  occ. eigenvalues --  -14.43785 -10.42585 -10.41609 -10.39564 -10.38047
 Alpha  occ. eigenvalues --  -10.35795 -10.35781 -10.35466 -10.35160 -10.34720
 Alpha  occ. eigenvalues --  -10.34637 -10.34303 -10.33760 -10.32996 -10.32885
 Alpha  occ. eigenvalues --  -10.32816 -10.32801 -10.32788 -10.32605 -10.32278
 Alpha  occ. eigenvalues --  -10.31784 -10.31752 -10.31729 -10.31224 -10.31061
 Alpha  occ. eigenvalues --  -10.30657 -10.30608 -10.30601 -10.30368 -10.30306
 Alpha  occ. eigenvalues --  -10.30274 -10.30071 -10.30033 -10.29867 -10.29852
 Alpha  occ. eigenvalues --  -10.29829 -10.29755 -10.29546 -10.29399 -10.29268
 Alpha  occ. eigenvalues --  -10.29221 -10.29185 -10.29023 -10.28871 -10.28624
 Alpha  occ. eigenvalues --  -10.28494 -10.28468 -10.28445 -10.28422 -10.28353
 Alpha  occ. eigenvalues --  -10.28090 -10.28018 -10.27917 -10.27878 -10.27829
 Alpha  occ. eigenvalues --  -10.27444  -3.22302  -1.95834  -1.95469  -1.95251
 Alpha  occ. eigenvalues --   -1.18258  -1.17819  -1.11404  -1.10871  -1.08682
 Alpha  occ. eigenvalues --   -1.08195  -1.07609  -1.07456  -1.07088  -1.06065
 Alpha  occ. eigenvalues --   -0.94419  -0.93407  -0.92514  -0.91988  -0.91625
 Alpha  occ. eigenvalues --   -0.91492  -0.91141  -0.90212  -0.89590  -0.88864
 Alpha  occ. eigenvalues --   -0.88029  -0.87851  -0.87150  -0.86467  -0.86012
 Alpha  occ. eigenvalues --   -0.84644  -0.84221  -0.83407  -0.83071  -0.82359
 Alpha  occ. eigenvalues --   -0.81341  -0.80332  -0.79714  -0.79234  -0.78608
 Alpha  occ. eigenvalues --   -0.78384  -0.77957  -0.77403  -0.76416  -0.76139
 Alpha  occ. eigenvalues --   -0.75661  -0.75129  -0.74481  -0.72747  -0.71872
 Alpha  occ. eigenvalues --   -0.71291  -0.70751  -0.70037  -0.68813  -0.68585
 Alpha  occ. eigenvalues --   -0.67971  -0.67298  -0.66796  -0.66177  -0.65304
 Alpha  occ. eigenvalues --   -0.65162  -0.64761  -0.63947  -0.63881  -0.62567
 Alpha  occ. eigenvalues --   -0.61956  -0.61653  -0.61416  -0.60999  -0.60428
 Alpha  occ. eigenvalues --   -0.59946  -0.58660  -0.58586  -0.58363  -0.57809
 Alpha  occ. eigenvalues --   -0.57234  -0.56860  -0.56814  -0.56377  -0.56068
 Alpha  occ. eigenvalues --   -0.55738  -0.55540  -0.55352  -0.55055  -0.54723
 Alpha  occ. eigenvalues --   -0.54594  -0.54351  -0.53850  -0.53724  -0.53625
 Alpha  occ. eigenvalues --   -0.53469  -0.53311  -0.53211  -0.53117  -0.52978
 Alpha  occ. eigenvalues --   -0.52676  -0.52419  -0.52104  -0.51988  -0.51633
 Alpha  occ. eigenvalues --   -0.51482  -0.51331  -0.51021  -0.50708  -0.50533
 Alpha  occ. eigenvalues --   -0.50314  -0.50202  -0.49937  -0.49861  -0.49599
 Alpha  occ. eigenvalues --   -0.49461  -0.49384  -0.49025  -0.48792  -0.48637
 Alpha  occ. eigenvalues --   -0.48522  -0.48344  -0.48156  -0.47792  -0.47572
 Alpha  occ. eigenvalues --   -0.47489  -0.47455  -0.47210  -0.47122  -0.46926
 Alpha  occ. eigenvalues --   -0.46819  -0.46674  -0.46480  -0.46100  -0.45964
 Alpha  occ. eigenvalues --   -0.45919  -0.45801  -0.45269  -0.45039  -0.44809
 Alpha  occ. eigenvalues --   -0.44484  -0.44376  -0.44168  -0.43950  -0.43937
 Alpha  occ. eigenvalues --   -0.43904  -0.43714  -0.43150  -0.43071  -0.42970
 Alpha  occ. eigenvalues --   -0.42749  -0.42633  -0.42383  -0.41987  -0.41944
 Alpha  occ. eigenvalues --   -0.41536  -0.41270  -0.40788  -0.40618  -0.40562
 Alpha  occ. eigenvalues --   -0.40487  -0.39869  -0.39820  -0.39681  -0.39426
 Alpha  occ. eigenvalues --   -0.39026  -0.38912  -0.38423  -0.38238  -0.38142
 Alpha  occ. eigenvalues --   -0.37875  -0.37480  -0.36601  -0.36599  -0.36228
 Alpha  occ. eigenvalues --   -0.35992  -0.35890  -0.34319  -0.33712  -0.32840
 Alpha  occ. eigenvalues --   -0.32459  -0.32222  -0.32159  -0.31738  -0.26250
 Alpha  occ. eigenvalues --   -0.23431
 Alpha virt. eigenvalues --   -0.07689   0.00609   0.02238   0.03681   0.04772
 Alpha virt. eigenvalues --    0.06053   0.06811   0.08037   0.08992   0.10284
 Alpha virt. eigenvalues --    0.11308   0.11568   0.11958   0.12225   0.12916

 Mulliken charges:
               1
     1  Mg   0.948152
     2  C   -0.006651
     3  C   -0.113240
     4  C   -0.113590
     5  C   -0.103260
     6  N   -0.307393
     7  C   -0.025856
     8  C   -0.093564
     9  C   -0.052846
    10  C    0.018762
    11  C    0.013202
    12  C    0.040672
    13  C    0.059134
    14  C    0.156044
    15  O   -0.304535
    16  O   -0.340741
    17  N   -0.412166
    18  C    0.220288
    19  C   -0.148163
    20  C   -0.037892
    21  C    0.168206
    22  C    0.088987
    23  C   -0.027916
    24  O   -0.245740
    25  C   -0.000418
    26  N   -0.376528
    27  C    0.074457
    28  C   -0.112064
    29  C   -0.128930
    30  C    0.107241
    31  C    0.033213
    32  C    0.032086
    33  C   -0.045858
    34  N   -0.377856
    35  C    0.079321
    36  C   -0.179134
    37  C   -0.016160
    38  C    0.125156
    39  C    0.078365
    40  C    0.102754
    41  O   -0.214564
    42  C   -0.102388
    43  C    0.278190
    44  O   -0.281180
    45  O   -0.366955
    46  C    0.123948
    47  C    0.228828
    48  C   -0.129967
    49  C   -0.191534
    50  C    0.021805
    51  C    0.049993
    52  C    0.004163
    53  C   -0.001251
    54  C   -0.218391
    55  C    0.015706
    56  C    0.052392
    57  C   -0.058652
    58  C    0.010922
    59  C   -0.186259
    60  C   -0.005161
    61  C    0.055282
    62  C   -0.017574
    63  C    0.005163
    64  C   -0.225583
    65  C    0.018719
    66  C   -0.000682
    67  H   -0.001772
    68  H   -0.035816
    69  H   -0.009194
    70  H    0.030217
    71  H    0.047257
    72  H    0.045509
    73  H    0.032561
    74  H    0.041151
    75  H    0.022218
    76  H    0.082738
    77  H    0.044550
    78  H    0.039451
    79  H    0.061048
    80  H    0.024162
    81  H    0.051144
    82  H    0.056449
    83  H    0.066920
    84  H    0.048005
    85  H    0.043549
    86  H    0.028553
    87  H    0.040901
    88  H    0.052249
    89  H    0.041306
    90  H    0.038379
    91  H    0.031214
    92  H    0.034200
    93  H    0.015414
    94  H    0.047739
    95  H    0.053845
    96  H    0.051163
    97  H    0.054616
    98  H    0.073351
    99  H    0.071925
   100  H    0.067382
   101  H    0.069169
   102  H    0.051894
   103  H    0.049835
   104  H    0.013925
   105  H    0.041823
   106  H    0.065756
   107  H    0.040245
   108  H    0.038260
   109  H    0.006044
   110  H    0.023146
   111  H    0.021681
   112  H    0.010694
   113  H    0.005914
   114  H    0.011629
   115  H    0.039619
   116  H    0.024483
   117  H    0.019499
   118  H    0.027008
   119  H    0.010369
   120  H    0.022075
   121  H    0.007764
   122  H    0.017041
   123  H    0.009985
   124  H    0.014056
   125  H    0.034922
   126  H    0.033663
   127  H    0.022700
   128  H    0.008671
   129  H    0.007972
   130  H    0.007982
   131  H    0.015277
   132  H    0.002628
   133  H    0.007181
   134  H    0.015562
   135  H    0.022082
   136  H    0.026328
   137  H    0.026250
   138  H    0.031536
   139  H    0.024296
   140  H    0.038145
 Sum of Mulliken charges =  -0.00000

 Dipole moment (field-independent basis, Debye):
    X=              1.0795    Y=              0.6391    Z=              0.9505  Tot=              1.5739
 Quadrupole moment (field-independent basis, Debye-Ang):
   XX=           -371.5983   YY=           -411.4745   ZZ=           -397.9005
   XY=             48.0519   XZ=             -7.6613   YZ=             15.1005

 Normal termination of Gaussian 16 at Fri Apr 29 13:25:09 2022.
