 Gaussian 16, Revision A.03,
 Gaussian 16:  ES64L-G16RevA.03 25-Dec-2016

 --------------------
 #p ZINDO=(nstates=5)
 --------------------

 -----------------------------
 step_301_chromophore_20 ZINDO
 -----------------------------
 Symbolic Z-matrix:
 Charge =  0 Multiplicity = 1

                         Standard orientation:
 ---------------------------------------------------------------------
 Center     Atomic      Atomic             Coordinates (Angstroms)
 Number     Number       Type             X           Y           Z
 ---------------------------------------------------------------------
      1         12           0        4.230583    1.171071   -0.441635
      2          6           0        3.996923   -2.358377   -0.871890
      3          6           0        1.840422    1.304549   -3.034747
      4          6           0        3.873407    4.291032    0.124790
      5          6           0        6.346999    0.681297    2.129882
      6          7           0        2.893154   -0.312826   -1.626959
      7          6           0        3.000048   -1.719357   -1.631108
      8          6           0        1.954623   -2.354474   -2.534794
      9          6           0        1.700584   -1.104432   -3.492505
     10          6           0        2.182793    0.010149   -2.719275
     11          6           0        2.490274   -1.244482   -4.823867
     12          6           0        0.766290   -2.704498   -1.592175
     13          6           0       -0.049177   -3.886979   -1.872145
     14          6           0       -1.539556   -3.791954   -2.137961
     15          8           0       -2.041257   -3.893437   -3.265121
     16          8           0       -2.259187   -3.587309   -1.052998
     17          7           0        2.990767    2.655523   -1.271174
     18          6           0        2.151371    2.485272   -2.359053
     19          6           0        1.568864    3.699558   -2.660923
     20          6           0        2.073950    4.702600   -1.743472
     21          6           0        3.012803    3.892927   -0.904481
     22          6           0        0.521535    3.918595   -3.770355
     23          6           0        1.787073    6.128496   -1.663374
     24          8           0        0.964491    6.709804   -2.370064
     25          6           0        2.620667    7.050718   -0.733454
     26          7           0        4.647689    2.263248    1.234046
     27          6           0        4.602936    3.574317    1.075464
     28          6           0        5.625964    4.334987    1.946966
     29          6           0        6.356856    3.135480    2.641469
     30          6           0        5.716002    1.931335    1.986346
     31          6           0        6.618862    5.178189    1.152934
     32          6           0        6.262710    3.273930    4.119591
     33          6           0        7.454885    2.726697    4.871571
     34          7           0        5.100681   -0.494676    0.504464
     35          6           0        6.016911   -0.526345    1.443990
     36          6           0        6.442641   -1.865798    1.706251
     37          6           0        5.715821   -2.620513    0.771442
     38          6           0        4.897934   -1.727986    0.047707
     39          6           0        7.577578   -2.205396    2.711223
     40          6           0        5.539709   -3.955035    0.296724
     41          8           0        6.043981   -5.033180    0.628151
     42          6           0        4.355775   -3.879037   -0.840842
     43          6           0        3.290575   -4.684312   -0.351590
     44          8           0        2.464691   -4.329806    0.501994
     45          8           0        3.263792   -5.884089   -0.980105
     46          6           0        2.156524   -6.849275   -0.620889
     47          6           0       -3.775318   -3.552618   -1.214671
     48          6           0       -4.449609   -3.732859    0.110070
     49          6           0       -4.842337   -4.936178    0.564160
     50          6           0       -4.423345   -6.273873   -0.050746
     51          6           0       -5.859195   -5.000370    1.658524
     52          6           0       -7.073821   -4.095013    1.638853
     53          6           0       -7.278123   -3.249566    2.819181
     54          6           0       -6.665754   -1.830687    2.819330
     55          6           0       -5.212116   -1.825379    3.345618
     56          6           0       -7.480361   -0.851502    3.615640
     57          6           0       -7.094127    0.596583    3.109308
     58          6           0       -8.207722    1.556705    2.792228
     59          6           0       -7.709120    2.955106    2.312158
     60          6           0       -7.318876    3.908453    3.543768
     61          6           0       -8.668880    3.624831    1.298773
     62          6           0       -8.116229    4.114882   -0.073322
     63          6           0       -8.394981    3.208248   -1.295266
     64          6           0       -9.638584    3.575540   -2.077616
     65          6           0      -10.643238    2.522391   -2.107890
     66          6           0       -9.277473    4.152395   -3.485088
     67          1           0        1.344810    1.300060   -4.007620
     68          1           0        3.975990    5.376875    0.188908
     69          1           0        7.096552    0.559388    2.915295
     70          1           0        2.360155   -3.263866   -2.977337
     71          1           0        0.637844   -0.926415   -3.654966
     72          1           0        3.403096   -0.680683   -5.018948
     73          1           0        1.941979   -0.911846   -5.705354
     74          1           0        2.661154   -2.298228   -5.048709
     75          1           0        0.059377   -1.887013   -1.733726
     76          1           0        1.034950   -2.716586   -0.535853
     77          1           0       -0.088255   -4.404681   -0.914269
     78          1           0        0.366694   -4.472284   -2.691943
     79          1           0       -0.463701    4.229546   -3.422515
     80          1           0        0.368597    3.112319   -4.488244
     81          1           0        0.866700    4.776513   -4.347267
     82          1           0        3.634873    6.904044   -1.105297
     83          1           0        2.371325    6.725660    0.276727
     84          1           0        2.397476    8.096754   -0.943038
     85          1           0        5.073522    4.870676    2.718672
     86          1           0        7.396645    3.058378    2.323508
     87          1           0        6.507588    5.085213    0.072878
     88          1           0        7.658331    4.989938    1.424622
     89          1           0        6.231339    6.173307    1.370390
     90          1           0        5.385057    2.712236    4.439814
     91          1           0        6.132082    4.339789    4.305356
     92          1           0        7.768306    3.528882    5.538720
     93          1           0        8.215867    2.558222    4.110779
     94          1           0        7.483591    1.811393    5.463199
     95          1           0        8.362983   -1.455172    2.620791
     96          1           0        7.991361   -3.193828    2.515185
     97          1           0        7.091703   -2.307966    3.681280
     98          1           0        4.739151   -4.222103   -1.801559
     99          1           0        2.724880   -7.737282   -0.342313
    100          1           0        1.443432   -6.921580   -1.442154
    101          1           0        1.595602   -6.564008    0.268845
    102          1           0       -4.117249   -4.391779   -1.821413
    103          1           0       -4.160111   -2.627880   -1.644365
    104          1           0       -4.882636   -2.793044    0.454876
    105          1           0       -3.485604   -6.134138   -0.588659
    106          1           0       -5.143174   -6.793399   -0.683346
    107          1           0       -4.170971   -6.914904    0.794627
    108          1           0       -5.260495   -5.045513    2.567660
    109          1           0       -6.280225   -6.004214    1.714479
    110          1           0       -7.950205   -4.741804    1.679070
    111          1           0       -7.138701   -3.411112    0.791750
    112          1           0       -6.953203   -3.767517    3.720957
    113          1           0       -8.367596   -3.219920    2.779367
    114          1           0       -6.570685   -1.558054    1.767668
    115          1           0       -4.786865   -2.820021    3.482063
    116          1           0       -5.080215   -1.101906    4.150160
    117          1           0       -4.605652   -1.326726    2.588984
    118          1           0       -7.235350   -0.892564    4.676338
    119          1           0       -8.529498   -1.087657    3.440244
    120          1           0       -6.385817    0.521179    2.284545
    121          1           0       -6.582586    1.010352    3.978079
    122          1           0       -8.863868    1.663056    3.656364
    123          1           0       -8.792994    1.020760    2.044377
    124          1           0       -6.784709    2.734375    1.779619
    125          1           0       -7.646273    4.929173    3.349481
    126          1           0       -6.262612    3.917216    3.813296
    127          1           0       -7.783613    3.502045    4.442411
    128          1           0       -9.109056    4.428504    1.889482
    129          1           0       -9.478565    2.914843    1.130486
    130          1           0       -7.035041    4.168575    0.057596
    131          1           0       -8.313628    5.132003   -0.409427
    132          1           0       -8.449758    2.161107   -0.997044
    133          1           0       -7.511378    3.244702   -1.932759
    134          1           0      -10.065194    4.469682   -1.622821
    135          1           0      -10.565640    1.918758   -3.012042
    136          1           0      -11.610713    3.025122   -2.123126
    137          1           0      -10.588752    1.841555   -1.259180
    138          1           0       -9.035129    5.210438   -3.383764
    139          1           0      -10.229961    4.114774   -4.014114
    140          1           0       -8.456628    3.516887   -3.816414
 ---------------------------------------------------------------------

 SCF Done:  E(RZINDO/S) =  -474.857980475     A.U. after   20 cycles

 Excitation energies and oscillator strengths:

 Excited State   1:      Singlet-A      1.1888 eV 1042.96 nm  f=0.5893  <S**2>=0.000
     175 ->178        -0.16733
     176 ->177         0.66877
 This state for optimization and/or second-order correction.
 Total Energy, E(CIS/TDA) =  -474.814294104
 Copying the excited state density for this state as the 1-particle RhoCI density.

 Excited State   2:      Singlet-A      1.8651 eV  664.77 nm  f=0.1098  <S**2>=0.000
     175 ->177         0.59162
     176 ->178         0.34857

 Excited State   3:      Singlet-A      2.8487 eV  435.23 nm  f=0.0003  <S**2>=0.000
     169 ->177         0.37739
     169 ->178         0.18753
     169 ->179        -0.30661
     169 ->181        -0.31455
     169 ->186        -0.22277
     169 ->187        -0.11962
     169 ->194        -0.14750

 Excited State   4:      Singlet-A      2.9400 eV  421.71 nm  f=0.0279  <S**2>=0.000
     176 ->178        -0.15272
     176 ->179         0.48114
     176 ->180        -0.42364
     176 ->181        -0.16234

 Excited State   5:      Singlet-A      2.9834 eV  415.57 nm  f=0.5228  <S**2>=0.000
     170 ->179         0.12273
     171 ->177        -0.11667
     175 ->177        -0.25667
     176 ->178         0.44651
     176 ->179         0.29396
     176 ->180         0.20812

 The electronic state is 1-A.
 Alpha  occ. eigenvalues --   -1.87581  -1.85413  -1.84157  -1.75440  -1.72993
 Alpha  occ. eigenvalues --   -1.72255  -1.66807  -1.62751  -1.58863  -1.57057
 Alpha  occ. eigenvalues --   -1.56892  -1.52152  -1.51538  -1.48814  -1.46972
 Alpha  occ. eigenvalues --   -1.43737  -1.43331  -1.40593  -1.39957  -1.39437
 Alpha  occ. eigenvalues --   -1.36847  -1.33979  -1.32874  -1.31954  -1.29021
 Alpha  occ. eigenvalues --   -1.28080  -1.25924  -1.23873  -1.22579  -1.18654
 Alpha  occ. eigenvalues --   -1.17813  -1.16600  -1.16144  -1.15767  -1.13058
 Alpha  occ. eigenvalues --   -1.12016  -1.10740  -1.10486  -1.06455  -1.05222
 Alpha  occ. eigenvalues --   -1.02726  -1.02171  -1.00309  -0.99402  -0.98434
 Alpha  occ. eigenvalues --   -0.96805  -0.94840  -0.93992  -0.92942  -0.91843
 Alpha  occ. eigenvalues --   -0.91048  -0.89568  -0.88833  -0.87871  -0.86683
 Alpha  occ. eigenvalues --   -0.86376  -0.84555  -0.83401  -0.81647  -0.80287
 Alpha  occ. eigenvalues --   -0.79558  -0.79020  -0.77375  -0.77303  -0.76825
 Alpha  occ. eigenvalues --   -0.76129  -0.75849  -0.75534  -0.74754  -0.74390
 Alpha  occ. eigenvalues --   -0.73346  -0.73102  -0.71589  -0.71543  -0.71023
 Alpha  occ. eigenvalues --   -0.70415  -0.69972  -0.68666  -0.67930  -0.67775
 Alpha  occ. eigenvalues --   -0.67405  -0.66997  -0.66552  -0.66322  -0.66001
 Alpha  occ. eigenvalues --   -0.65385  -0.65261  -0.64362  -0.63679  -0.63488
 Alpha  occ. eigenvalues --   -0.62929  -0.62736  -0.62470  -0.62191  -0.61658
 Alpha  occ. eigenvalues --   -0.61618  -0.61163  -0.60680  -0.60214  -0.60030
 Alpha  occ. eigenvalues --   -0.58993  -0.58869  -0.58678  -0.57967  -0.57787
 Alpha  occ. eigenvalues --   -0.57581  -0.57300  -0.57213  -0.56696  -0.56345
 Alpha  occ. eigenvalues --   -0.56251  -0.56042  -0.55647  -0.55433  -0.54866
 Alpha  occ. eigenvalues --   -0.54228  -0.53611  -0.52934  -0.52759  -0.52503
 Alpha  occ. eigenvalues --   -0.52111  -0.51917  -0.51489  -0.51209  -0.50952
 Alpha  occ. eigenvalues --   -0.50797  -0.50612  -0.50228  -0.49993  -0.49816
 Alpha  occ. eigenvalues --   -0.49590  -0.49525  -0.49333  -0.49039  -0.48779
 Alpha  occ. eigenvalues --   -0.48400  -0.47994  -0.47576  -0.47464  -0.47277
 Alpha  occ. eigenvalues --   -0.47102  -0.46535  -0.46339  -0.46260  -0.46111
 Alpha  occ. eigenvalues --   -0.45816  -0.45586  -0.45415  -0.45091  -0.44931
 Alpha  occ. eigenvalues --   -0.44877  -0.44645  -0.44488  -0.43950  -0.43941
 Alpha  occ. eigenvalues --   -0.43171  -0.42999  -0.42431  -0.42203  -0.41875
 Alpha  occ. eigenvalues --   -0.41359  -0.41149  -0.40779  -0.39100  -0.38165
 Alpha  occ. eigenvalues --   -0.37723  -0.37265  -0.35313  -0.35079  -0.34647
 Alpha  occ. eigenvalues --   -0.33242  -0.32695  -0.32334  -0.32268  -0.26747
 Alpha  occ. eigenvalues --   -0.22096
 Alpha virt. eigenvalues --   -0.09171  -0.01785  -0.00808   0.00480   0.01296
 Alpha virt. eigenvalues --    0.02633   0.02943   0.03145   0.04356   0.04904
 Alpha virt. eigenvalues --    0.06249   0.07155   0.07339   0.08051   0.08500

 Mulliken charges:
               1
     1  Mg   0.444042
     2  C   -0.037958
     3  C   -0.070174
     4  C   -0.118556
     5  C   -0.092757
     6  N   -0.303041
     7  C    0.100207
     8  C    0.004729
     9  C    0.023992
    10  C    0.174303
    11  C   -0.053001
    12  C   -0.012779
    13  C    0.007691
    14  C    0.471593
    15  O   -0.554251
    16  O   -0.254509
    17  N   -0.321698
    18  C    0.119981
    19  C    0.059218
    20  C   -0.066311
    21  C    0.166645
    22  C   -0.043601
    23  C    0.321010
    24  O   -0.535397
    25  C   -0.034320
    26  N   -0.264451
    27  C    0.173171
    28  C   -0.007414
    29  C   -0.003604
    30  C    0.113155
    31  C   -0.050442
    32  C   -0.015489
    33  C   -0.064065
    34  N   -0.295884
    35  C    0.091574
    36  C   -0.002037
    37  C   -0.044565
    38  C    0.092686
    39  C   -0.041817
    40  C    0.329684
    41  O   -0.527483
    42  C    0.051803
    43  C    0.504066
    44  O   -0.555796
    45  O   -0.272372
    46  C    0.069662
    47  C    0.099720
    48  C   -0.105142
    49  C    0.017626
    50  C   -0.041914
    51  C   -0.021542
    52  C   -0.021900
    53  C   -0.036127
    54  C   -0.009209
    55  C   -0.065584
    56  C   -0.032450
    57  C   -0.041771
    58  C   -0.027432
    59  C   -0.012882
    60  C   -0.062083
    61  C   -0.029699
    62  C   -0.035561
    63  C   -0.029758
    64  C   -0.008941
    65  C   -0.044251
    66  C   -0.066082
    67  H    0.030374
    68  H    0.018572
    69  H    0.025622
    70  H    0.035659
    71  H    0.042302
    72  H    0.031237
    73  H    0.014258
    74  H    0.019677
    75  H    0.016111
    76  H    0.050282
    77  H    0.040687
    78  H    0.037162
    79  H    0.042108
    80  H    0.023012
    81  H    0.033037
    82  H    0.036846
    83  H    0.045558
    84  H    0.037752
    85  H    0.039527
    86  H    0.028528
    87  H    0.023936
    88  H    0.031703
    89  H    0.017276
    90  H    0.023142
    91  H    0.022307
    92  H    0.011964
    93  H    0.013078
    94  H    0.031515
    95  H    0.031118
    96  H    0.028166
    97  H    0.035702
    98  H    0.053125
    99  H    0.044445
   100  H    0.043369
   101  H    0.050239
   102  H    0.048727
   103  H    0.046000
   104  H    0.030499
   105  H    0.023348
   106  H    0.040096
   107  H    0.019909
   108  H    0.032372
   109  H    0.007084
   110  H    0.011892
   111  H    0.026243
   112  H    0.016278
   113  H    0.008605
   114  H    0.021185
   115  H    0.028640
   116  H    0.023977
   117  H    0.006778
   118  H    0.024908
   119  H    0.015961
   120  H    0.025846
   121  H    0.008686
   122  H    0.017229
   123  H    0.012640
   124  H    0.016906
   125  H    0.023796
   126  H    0.019569
   127  H    0.017499
   128  H    0.015682
   129  H    0.015956
   130  H    0.006370
   131  H    0.024959
   132  H    0.014055
   133  H    0.011680
   134  H    0.010373
   135  H    0.015668
   136  H    0.012082
   137  H    0.016725
   138  H    0.019724
   139  H    0.019350
   140  H    0.032847
 Sum of Mulliken charges =  -0.00000

 Dipole moment (field-independent basis, Debye):
    X=              2.6219    Y=              3.1281    Z=             -0.8662  Tot=              4.1725
 N-N= 4.489263473127D+03 E-N= 0.000000000000D+00  KE=-9.653416339459D+03
 Leave Link  601 at Fri Apr 29 13:43:28 2022, MaxMem=  6710886400 cpu:               0.7 elap:               0.0
 (Enter /sw/apps/gaussian-16.0/g16/l9999.exe)
 1\1\GINC-BP1-COMPUTE142\SP\RZINDO CIS\STO-3G\C55H74Mg1N4O6\OF15641\29-
 Apr-2022\0\\#p ZINDO=(nstates=5)\\step_301_chromophore_20 ZINDO\\0,1\M
 g,0,6.566,57.614,41.715\C,0,5.378,54.263,41.478\C,0,9.61,56.258,40.553
 \C,0,7.677,60.581,41.334\C,0,3.478,58.607,42.615\N,0,7.339,55.591,40.8
 75\C,0,6.656,54.357,40.898\C,0,7.483,53.251,40.261\C,0,8.924,53.901,40
 .474\C,0,8.633,55.297,40.672\C,0,9.637,53.297,41.716\C,0,7.007,53.194,
 38.78\C,0,6.994,51.91,38.078\C,0,7.809,51.672,36.821\O,0,8.858,51.015,

 Normal termination of Gaussian 16 at Fri Apr 29 13:43:28 2022.
