 Gaussian 16, Revision A.03,
 Gaussian 16:  ES64L-G16RevA.03 25-Dec-2016

 ------------------------------
 #p blyp/Def2SVP td=(nstates=5)
 ------------------------------

 ---------------------------------------------------
 step_1651_chromophore_10 TDDFT with blyp functional
 ---------------------------------------------------
 Symbolic Z-matrix:
 Charge =  0 Multiplicity = 1

                         Standard orientation:
 ---------------------------------------------------------------------
 Center     Atomic      Atomic             Coordinates (Angstroms)
 Number     Number       Type             X           Y           Z
 ---------------------------------------------------------------------
      1         12           0        6.315867    0.456674    0.103297
      2          6           0        4.074894   -2.183608    0.002117
      3          6           0        3.989945    2.334337   -1.743685
      4          6           0        8.387627    2.958983    0.076540
      5          6           0        8.637044   -1.604956    1.541390
      6          7           0        4.219058    0.159186   -0.651200
      7          6           0        3.529596   -1.012746   -0.540830
      8          6           0        2.010652   -0.858664   -0.998561
      9          6           0        2.089101    0.508984   -1.769350
     10          6           0        3.531376    1.017801   -1.473350
     11          6           0        1.612517    0.429529   -3.240825
     12          6           0        0.893851   -1.025781    0.063391
     13          6           0       -0.578101   -0.710015   -0.360932
     14          6           0       -1.731871   -1.607037    0.175049
     15          8           0       -1.580509   -2.750262    0.706685
     16          8           0       -2.938168   -1.018984   -0.101435
     17          7           0        6.130932    2.414434   -0.554039
     18          6           0        5.144020    3.023098   -1.288806
     19          6           0        5.392916    4.376972   -1.508978
     20          6           0        6.683118    4.612010   -0.889570
     21          6           0        7.155334    3.310978   -0.452117
     22          6           0        4.472939    5.291971   -2.219074
     23          6           0        7.461599    5.918733   -0.779058
     24          8           0        8.515174    6.000040   -0.167392
     25          6           0        6.811990    7.192841   -1.246439
     26          7           0        8.228280    0.642632    0.626319
     27          6           0        8.852255    1.850025    0.663275
     28          6           0       10.335523    1.708580    1.022983
     29          6           0       10.393044    0.266810    1.637313
     30          6           0        9.028955   -0.295430    1.213430
     31          6           0       11.362061    1.947136   -0.134242
     32          6           0       10.443493    0.215767    3.238876
     33          6           0        9.326529    1.010223    4.067379
     34          7           0        6.418274   -1.545209    0.592118
     35          6           0        7.404555   -2.263518    1.163565
     36          6           0        7.000958   -3.636382    1.369874
     37          6           0        5.673469   -3.614355    0.984176
     38          6           0        5.425247   -2.350946    0.400026
     39          6           0        7.786720   -4.804136    1.887577
     40          6           0        4.494795   -4.503317    0.854909
     41          8           0        4.329631   -5.667525    1.170005
     42          6           0        3.475053   -3.553854    0.229005
     43          6           0        2.948936   -4.192736   -1.014326
     44          8           0        3.573517   -4.593749   -1.994485
     45          8           0        1.618255   -4.208786   -0.926273
     46          6           0        0.768605   -4.769352   -1.972865
     47          6           0       -3.960016   -2.020005    0.136589
     48          6           0       -5.174082   -1.745428   -0.779963
     49          6           0       -6.198510   -2.550619   -1.076121
     50          6           0       -6.481984   -3.968141   -0.620665
     51          6           0       -7.213089   -1.903720   -2.067825
     52          6           0       -8.618467   -1.599480   -1.686723
     53          6           0       -9.153738   -0.176082   -1.931579
     54          6           0      -10.579182   -0.081827   -2.506780
     55          6           0      -10.587640   -0.159581   -4.029593
     56          6           0      -11.267901    1.219221   -1.971962
     57          6           0      -12.808091    1.070337   -2.001659
     58          6           0      -13.528622    0.407829   -0.757798
     59          6           0      -14.290878    1.326016    0.220529
     60          6           0      -15.512058    2.035961   -0.348618
     61          6           0      -13.460438    2.330400    0.906094
     62          6           0      -12.557929    1.677594    1.925318
     63          6           0      -12.520076    2.380756    3.316314
     64          6           0      -13.250510    1.588734    4.482015
     65          6           0      -14.699154    1.965704    4.436755
     66          6           0      -12.646019    1.591443    5.881802
     67          1           0        3.254773    2.933670   -2.285150
     68          1           0        9.128860    3.758604    0.135823
     69          1           0        9.360602   -2.165374    2.136935
     70          1           0        1.826220   -1.676317   -1.695053
     71          1           0        1.381817    1.181782   -1.284807
     72          1           0        2.425187    0.798274   -3.867418
     73          1           0        0.661110    0.936905   -3.394808
     74          1           0        1.278445   -0.573801   -3.507979
     75          1           0        1.171957   -0.397288    0.909109
     76          1           0        0.863683   -2.070031    0.372803
     77          1           0       -0.770301   -0.794690   -1.430284
     78          1           0       -0.824797    0.322127   -0.111534
     79          1           0        5.016791    5.602748   -3.111332
     80          1           0        4.327057    6.155370   -1.569466
     81          1           0        3.509615    4.893412   -2.537840
     82          1           0        7.475970    8.056690   -1.250684
     83          1           0        6.107485    7.422653   -0.448413
     84          1           0        6.355082    7.201458   -2.236313
     85          1           0       10.595352    2.379890    1.841250
     86          1           0       11.235446   -0.283618    1.218306
     87          1           0       10.827624    2.464052   -0.931758
     88          1           0       11.649017    1.005802   -0.602891
     89          1           0       12.188517    2.580839    0.186274
     90          1           0       11.314453    0.751834    3.615964
     91          1           0       10.549762   -0.798815    3.624009
     92          1           0        9.066804    0.455637    4.969527
     93          1           0        8.447013    0.994865    3.423892
     94          1           0        9.626770    2.019063    4.347730
     95          1           0        7.078166   -5.488765    2.353429
     96          1           0        8.489749   -4.518761    2.670161
     97          1           0        8.228973   -5.416970    1.102157
     98          1           0        2.610268   -3.566218    0.891009
     99          1           0        1.362559   -4.896176   -2.877616
    100          1           0       -0.143053   -4.194152   -2.132835
    101          1           0        0.421310   -5.757211   -1.667865
    102          1           0       -4.245560   -1.828030    1.170213
    103          1           0       -3.762890   -3.090690    0.080832
    104          1           0       -5.031878   -0.832032   -1.356931
    105          1           0       -5.729994   -4.242517    0.118995
    106          1           0       -6.462312   -4.689976   -1.437798
    107          1           0       -7.437800   -4.036688   -0.102111
    108          1           0       -7.263719   -2.588563   -2.913232
    109          1           0       -6.820312   -0.964860   -2.457568
    110          1           0       -8.781558   -1.948682   -0.667459
    111          1           0       -9.236631   -2.381765   -2.126870
    112          1           0       -8.501355    0.389230   -2.596414
    113          1           0       -9.166425    0.362300   -0.984023
    114          1           0      -11.026813   -0.947344   -2.018134
    115          1           0      -10.559169   -1.205872   -4.334738
    116          1           0       -9.669015    0.259797   -4.437454
    117          1           0      -11.457188    0.377822   -4.407665
    118          1           0      -10.854890    2.104568   -2.455112
    119          1           0      -11.019912    1.366024   -0.921097
    120          1           0      -13.247711    0.502457   -2.821463
    121          1           0      -13.227479    2.072641   -1.906910
    122          1           0      -12.705357   -0.087539   -0.241235
    123          1           0      -14.262117   -0.354442   -1.021381
    124          1           0      -14.583658    0.589992    0.969032
    125          1           0      -16.431822    1.875227    0.213098
    126          1           0      -15.676144    1.749951   -1.387246
    127          1           0      -15.316345    3.103932   -0.442083
    128          1           0      -13.922055    3.242651    1.283384
    129          1           0      -12.704822    2.716026    0.220911
    130          1           0      -11.494296    1.693510    1.688314
    131          1           0      -12.781278    0.613914    2.007522
    132          1           0      -12.905136    3.393453    3.189489
    133          1           0      -11.496961    2.528760    3.661926
    134          1           0      -13.249130    0.559987    4.119947
    135          1           0      -15.093786    2.387778    5.360555
    136          1           0      -15.255344    1.068866    4.164592
    137          1           0      -14.825296    2.654494    3.601562
    138          1           0      -12.189217    0.603181    5.926589
    139          1           0      -13.338105    1.706741    6.716359
    140          1           0      -11.956392    2.432604    5.956490
 ---------------------------------------------------------------------

 SCF Done:  E(RB-LYP) =  -3007.37482498     A.U. after   20 cycles

 Excitation energies and oscillator strengths:

 Excited State   1:      Singlet-A      1.8222 eV  680.41 nm  f=0.2724  <S**2>=0.000
     244 -> 247        0.11691
     245 -> 248        0.18277
     246 -> 247        0.67716
     246 <- 247       -0.14744
 This state for optimization and/or second-order correction.
 Total Energy, E(TD-HF/TD-DFT) =  -3007.30786010
 Copying the excited state density for this state as the 1-particle RhoCI density.

 Excited State   2:      Singlet-A      1.8868 eV  657.10 nm  f=0.0294  <S**2>=0.000
     244 -> 247        0.66682
     245 -> 247        0.18476
     246 -> 247       -0.13358

 Excited State   3:      Singlet-A      1.9897 eV  623.12 nm  f=0.0146  <S**2>=0.000
     243 -> 247        0.66558
     245 -> 247       -0.20566

 Excited State   4:      Singlet-A      2.0372 eV  608.61 nm  f=0.1018  <S**2>=0.000
     243 -> 247        0.23369
     244 -> 247       -0.18230
     245 -> 247        0.59115
     246 -> 248       -0.21189

 Excited State   5:      Singlet-A      2.4529 eV  505.45 nm  f=0.0086  <S**2>=0.000
     242 -> 247        0.68847

 The electronic state is 1-A.
 Alpha  occ. eigenvalues --  -46.26083 -18.84321 -18.82190 -18.77838 -18.76007
 Alpha  occ. eigenvalues --  -18.75816 -18.75270 -14.03488 -14.02840 -14.00644
 Alpha  occ. eigenvalues --  -14.00495 -10.05570 -10.03525  -9.99709  -9.99441
 Alpha  occ. eigenvalues --   -9.98091  -9.97792  -9.96860  -9.96800  -9.96359
 Alpha  occ. eigenvalues --   -9.95436  -9.95408  -9.95178  -9.94914  -9.94863
 Alpha  occ. eigenvalues --   -9.94291  -9.94104  -9.93994  -9.93986  -9.93630
 Alpha  occ. eigenvalues --   -9.93494  -9.93401  -9.93335  -9.93245  -9.93224
 Alpha  occ. eigenvalues --   -9.93201  -9.93149  -9.93072  -9.93023  -9.92922
 Alpha  occ. eigenvalues --   -9.92729  -9.92629  -9.92475  -9.92186  -9.92101
 Alpha  occ. eigenvalues --   -9.92039  -9.91972  -9.91940  -9.91803  -9.91763
 Alpha  occ. eigenvalues --   -9.91570  -9.91439  -9.91403  -9.91364  -9.91314
 Alpha  occ. eigenvalues --   -9.91275  -9.91193  -9.91113  -9.90950  -9.90812
 Alpha  occ. eigenvalues --   -9.90760  -9.90712  -9.90701  -9.90450  -9.90325
 Alpha  occ. eigenvalues --   -9.89892  -2.90978  -1.71410  -1.70860  -1.70688
 Alpha  occ. eigenvalues --   -0.99353  -0.98440  -0.91611  -0.91442  -0.89358
 Alpha  occ. eigenvalues --   -0.89020  -0.88198  -0.86276  -0.85638  -0.84924
 Alpha  occ. eigenvalues --   -0.75702  -0.74205  -0.73686  -0.72599  -0.72419
 Alpha  occ. eigenvalues --   -0.72197  -0.71272  -0.71263  -0.70700  -0.70597
 Alpha  occ. eigenvalues --   -0.69789  -0.69297  -0.68300  -0.67810  -0.66893
 Alpha  occ. eigenvalues --   -0.66465  -0.65832  -0.65567  -0.65295  -0.64650
 Alpha  occ. eigenvalues --   -0.64213  -0.62636  -0.62552  -0.61859  -0.61049
 Alpha  occ. eigenvalues --   -0.60845  -0.60314  -0.60122  -0.60029  -0.59367
 Alpha  occ. eigenvalues --   -0.58804  -0.57925  -0.56918  -0.56039  -0.54716
 Alpha  occ. eigenvalues --   -0.54240  -0.53942  -0.52798  -0.52209  -0.51854
 Alpha  occ. eigenvalues --   -0.51131  -0.50677  -0.50553  -0.50301  -0.50137
 Alpha  occ. eigenvalues --   -0.49883  -0.48914  -0.48832  -0.47220  -0.46783
 Alpha  occ. eigenvalues --   -0.46576  -0.46131  -0.45617  -0.45248  -0.44489
 Alpha  occ. eigenvalues --   -0.44054  -0.43714  -0.43352  -0.43100  -0.42689
 Alpha  occ. eigenvalues --   -0.42231  -0.41921  -0.41843  -0.41769  -0.41474
 Alpha  occ. eigenvalues --   -0.41338  -0.41218  -0.40507  -0.40409  -0.40009
 Alpha  occ. eigenvalues --   -0.39842  -0.39828  -0.39604  -0.39280  -0.39211
 Alpha  occ. eigenvalues --   -0.39139  -0.38733  -0.38542  -0.38340  -0.38228
 Alpha  occ. eigenvalues --   -0.38076  -0.37873  -0.37640  -0.37608  -0.37086
 Alpha  occ. eigenvalues --   -0.36999  -0.36977  -0.36710  -0.36658  -0.36608
 Alpha  occ. eigenvalues --   -0.36424  -0.36314  -0.35984  -0.35852  -0.35700
 Alpha  occ. eigenvalues --   -0.35557  -0.35242  -0.35143  -0.35050  -0.34810
 Alpha  occ. eigenvalues --   -0.34674  -0.34579  -0.34241  -0.34102  -0.33873
 Alpha  occ. eigenvalues --   -0.33841  -0.33732  -0.33550  -0.33463  -0.33289
 Alpha  occ. eigenvalues --   -0.33099  -0.32985  -0.32823  -0.32612  -0.32432
 Alpha  occ. eigenvalues --   -0.32309  -0.32288  -0.31929  -0.31668  -0.31576
 Alpha  occ. eigenvalues --   -0.31539  -0.31367  -0.31026  -0.30807  -0.30516
 Alpha  occ. eigenvalues --   -0.30453  -0.30244  -0.30146  -0.30140  -0.29753
 Alpha  occ. eigenvalues --   -0.29677  -0.29650  -0.29449  -0.29181  -0.28984
 Alpha  occ. eigenvalues --   -0.28640  -0.28506  -0.28341  -0.27952  -0.27899
 Alpha  occ. eigenvalues --   -0.27786  -0.27191  -0.26954  -0.26497  -0.26329
 Alpha  occ. eigenvalues --   -0.26265  -0.26204  -0.25851  -0.25758  -0.25129
 Alpha  occ. eigenvalues --   -0.24757  -0.24744  -0.24073  -0.23876  -0.23771
 Alpha  occ. eigenvalues --   -0.23488  -0.22505  -0.22262  -0.21276  -0.20979
 Alpha  occ. eigenvalues --   -0.20746  -0.20091  -0.18831  -0.18505  -0.17183
 Alpha  occ. eigenvalues --   -0.15925
 Alpha virt. eigenvalues --   -0.11624  -0.06574  -0.05780  -0.04406  -0.04191
 Alpha virt. eigenvalues --   -0.02152  -0.01775  -0.01632  -0.00837   0.00172
 Alpha virt. eigenvalues --    0.01094   0.01662   0.01909   0.02060   0.02672

 Mulliken charges:
               1
     1  Mg   0.712790
     2  C    0.048317
     3  C   -0.092719
     4  C   -0.057247
     5  C   -0.077426
     6  N   -0.202004
     7  C   -0.083158
     8  C    0.014075
     9  C   -0.007443
    10  C    0.041175
    11  C    0.130850
    12  C    0.143745
    13  C    0.081981
    14  C    0.108199
    15  O   -0.229495
    16  O   -0.250681
    17  N   -0.280553
    18  C    0.151035
    19  C   -0.146730
    20  C    0.022797
    21  C    0.126706
    22  C    0.190385
    23  C   -0.068899
    24  O   -0.161404
    25  C    0.119074
    26  N   -0.276879
    27  C    0.028578
    28  C    0.034648
    29  C    0.046527
    30  C    0.031937
    31  C    0.144326
    32  C    0.042222
    33  C    0.031608
    34  N   -0.200930
    35  C    0.096668
    36  C   -0.158633
    37  C   -0.002418
    38  C    0.045891
    39  C    0.173304
    40  C    0.012303
    41  O   -0.111095
    42  C    0.060468
    43  C    0.074288
    44  O   -0.183281
    45  O   -0.250231
    46  C    0.209388
    47  C    0.287623
    48  C   -0.115333
    49  C   -0.123276
    50  C    0.153454
    51  C    0.121960
    52  C    0.096403
    53  C    0.111998
    54  C   -0.094861
    55  C    0.143472
    56  C    0.096889
    57  C    0.087819
    58  C    0.052204
    59  C   -0.072718
    60  C    0.136541
    61  C    0.152741
    62  C    0.035483
    63  C    0.082149
    64  C   -0.125019
    65  C    0.119755
    66  C    0.134625
    67  H   -0.076636
    68  H   -0.044116
    69  H   -0.065937
    70  H   -0.030441
    71  H   -0.020333
    72  H    0.003502
    73  H   -0.019693
    74  H   -0.015096
    75  H   -0.023983
    76  H    0.008279
    77  H   -0.001225
    78  H    0.002963
    79  H    0.009878
    80  H    0.005416
    81  H   -0.011972
    82  H   -0.018190
    83  H    0.014988
    84  H   -0.002362
    85  H   -0.028882
    86  H   -0.026655
    87  H   -0.012825
    88  H   -0.011160
    89  H    0.004127
    90  H   -0.024860
    91  H   -0.010581
    92  H   -0.006949
    93  H    0.007662
    94  H    0.008780
    95  H   -0.002795
    96  H   -0.008742
    97  H    0.011793
    98  H    0.004748
    99  H    0.020895
   100  H    0.015671
   101  H    0.018127
   102  H   -0.005156
   103  H    0.023739
   104  H   -0.029095
   105  H   -0.019446
   106  H    0.008395
   107  H    0.000281
   108  H   -0.037620
   109  H   -0.041665
   110  H   -0.047334
   111  H   -0.048761
   112  H   -0.037266
   113  H   -0.040214
   114  H   -0.036602
   115  H   -0.018002
   116  H   -0.024306
   117  H   -0.006988
   118  H   -0.031656
   119  H   -0.038687
   120  H   -0.023517
   121  H   -0.035960
   122  H   -0.038697
   123  H   -0.031836
   124  H   -0.042653
   125  H   -0.006088
   126  H   -0.032240
   127  H   -0.023497
   128  H   -0.026835
   129  H   -0.045381
   130  H   -0.031084
   131  H   -0.024292
   132  H   -0.036673
   133  H   -0.054205
   134  H   -0.042050
   135  H   -0.018108
   136  H   -0.023614
   137  H   -0.026604
   138  H   -0.009798
   139  H   -0.019449
   140  H   -0.014398
 Sum of Mulliken charges =  -0.00000

 Dipole moment (field-independent basis, Debye):
    X=             -3.9759    Y=              3.2634    Z=             -1.2673  Tot=              5.2975
 Quadrupole moment (field-independent basis, Debye-Ang):
   XX=           -389.1994   YY=           -433.3223   ZZ=           -401.9014
   XY=             12.0290   XZ=             15.9330   YZ=             -3.0119

 Normal termination of Gaussian 16 at Thu Apr 28 17:01:30 2022.
