 Gaussian 16, Revision A.03,
 Gaussian 16:  ES64L-G16RevA.03 25-Dec-2016

 -----------------------------------
 #p cam-b3lyp/Def2SVP td=(nstates=5)
 -----------------------------------

 --------------------------------------------------------
 step_1651_chromophore_10 TDDFT with cam-b3lyp functional
 --------------------------------------------------------
 Symbolic Z-matrix:
 Charge =  0 Multiplicity = 1

                         Standard orientation:
 ---------------------------------------------------------------------
 Center     Atomic      Atomic             Coordinates (Angstroms)
 Number     Number       Type             X           Y           Z
 ---------------------------------------------------------------------
      1         12           0        6.315867    0.456674    0.103297
      2          6           0        4.074894   -2.183608    0.002117
      3          6           0        3.989945    2.334337   -1.743685
      4          6           0        8.387627    2.958983    0.076540
      5          6           0        8.637044   -1.604956    1.541390
      6          7           0        4.219058    0.159186   -0.651200
      7          6           0        3.529596   -1.012746   -0.540830
      8          6           0        2.010652   -0.858664   -0.998561
      9          6           0        2.089101    0.508984   -1.769350
     10          6           0        3.531376    1.017801   -1.473350
     11          6           0        1.612517    0.429529   -3.240825
     12          6           0        0.893851   -1.025781    0.063391
     13          6           0       -0.578101   -0.710015   -0.360932
     14          6           0       -1.731871   -1.607037    0.175049
     15          8           0       -1.580509   -2.750262    0.706685
     16          8           0       -2.938168   -1.018984   -0.101435
     17          7           0        6.130932    2.414434   -0.554039
     18          6           0        5.144020    3.023098   -1.288806
     19          6           0        5.392916    4.376972   -1.508978
     20          6           0        6.683118    4.612010   -0.889570
     21          6           0        7.155334    3.310978   -0.452117
     22          6           0        4.472939    5.291971   -2.219074
     23          6           0        7.461599    5.918733   -0.779058
     24          8           0        8.515174    6.000040   -0.167392
     25          6           0        6.811990    7.192841   -1.246439
     26          7           0        8.228280    0.642632    0.626319
     27          6           0        8.852255    1.850025    0.663275
     28          6           0       10.335523    1.708580    1.022983
     29          6           0       10.393044    0.266810    1.637313
     30          6           0        9.028955   -0.295430    1.213430
     31          6           0       11.362061    1.947136   -0.134242
     32          6           0       10.443493    0.215767    3.238876
     33          6           0        9.326529    1.010223    4.067379
     34          7           0        6.418274   -1.545209    0.592118
     35          6           0        7.404555   -2.263518    1.163565
     36          6           0        7.000958   -3.636382    1.369874
     37          6           0        5.673469   -3.614355    0.984176
     38          6           0        5.425247   -2.350946    0.400026
     39          6           0        7.786720   -4.804136    1.887577
     40          6           0        4.494795   -4.503317    0.854909
     41          8           0        4.329631   -5.667525    1.170005
     42          6           0        3.475053   -3.553854    0.229005
     43          6           0        2.948936   -4.192736   -1.014326
     44          8           0        3.573517   -4.593749   -1.994485
     45          8           0        1.618255   -4.208786   -0.926273
     46          6           0        0.768605   -4.769352   -1.972865
     47          6           0       -3.960016   -2.020005    0.136589
     48          6           0       -5.174082   -1.745428   -0.779963
     49          6           0       -6.198510   -2.550619   -1.076121
     50          6           0       -6.481984   -3.968141   -0.620665
     51          6           0       -7.213089   -1.903720   -2.067825
     52          6           0       -8.618467   -1.599480   -1.686723
     53          6           0       -9.153738   -0.176082   -1.931579
     54          6           0      -10.579182   -0.081827   -2.506780
     55          6           0      -10.587640   -0.159581   -4.029593
     56          6           0      -11.267901    1.219221   -1.971962
     57          6           0      -12.808091    1.070337   -2.001659
     58          6           0      -13.528622    0.407829   -0.757798
     59          6           0      -14.290878    1.326016    0.220529
     60          6           0      -15.512058    2.035961   -0.348618
     61          6           0      -13.460438    2.330400    0.906094
     62          6           0      -12.557929    1.677594    1.925318
     63          6           0      -12.520076    2.380756    3.316314
     64          6           0      -13.250510    1.588734    4.482015
     65          6           0      -14.699154    1.965704    4.436755
     66          6           0      -12.646019    1.591443    5.881802
     67          1           0        3.254773    2.933670   -2.285150
     68          1           0        9.128860    3.758604    0.135823
     69          1           0        9.360602   -2.165374    2.136935
     70          1           0        1.826220   -1.676317   -1.695053
     71          1           0        1.381817    1.181782   -1.284807
     72          1           0        2.425187    0.798274   -3.867418
     73          1           0        0.661110    0.936905   -3.394808
     74          1           0        1.278445   -0.573801   -3.507979
     75          1           0        1.171957   -0.397288    0.909109
     76          1           0        0.863683   -2.070031    0.372803
     77          1           0       -0.770301   -0.794690   -1.430284
     78          1           0       -0.824797    0.322127   -0.111534
     79          1           0        5.016791    5.602748   -3.111332
     80          1           0        4.327057    6.155370   -1.569466
     81          1           0        3.509615    4.893412   -2.537840
     82          1           0        7.475970    8.056690   -1.250684
     83          1           0        6.107485    7.422653   -0.448413
     84          1           0        6.355082    7.201458   -2.236313
     85          1           0       10.595352    2.379890    1.841250
     86          1           0       11.235446   -0.283618    1.218306
     87          1           0       10.827624    2.464052   -0.931758
     88          1           0       11.649017    1.005802   -0.602891
     89          1           0       12.188517    2.580839    0.186274
     90          1           0       11.314453    0.751834    3.615964
     91          1           0       10.549762   -0.798815    3.624009
     92          1           0        9.066804    0.455637    4.969527
     93          1           0        8.447013    0.994865    3.423892
     94          1           0        9.626770    2.019063    4.347730
     95          1           0        7.078166   -5.488765    2.353429
     96          1           0        8.489749   -4.518761    2.670161
     97          1           0        8.228973   -5.416970    1.102157
     98          1           0        2.610268   -3.566218    0.891009
     99          1           0        1.362559   -4.896176   -2.877616
    100          1           0       -0.143053   -4.194152   -2.132835
    101          1           0        0.421310   -5.757211   -1.667865
    102          1           0       -4.245560   -1.828030    1.170213
    103          1           0       -3.762890   -3.090690    0.080832
    104          1           0       -5.031878   -0.832032   -1.356931
    105          1           0       -5.729994   -4.242517    0.118995
    106          1           0       -6.462312   -4.689976   -1.437798
    107          1           0       -7.437800   -4.036688   -0.102111
    108          1           0       -7.263719   -2.588563   -2.913232
    109          1           0       -6.820312   -0.964860   -2.457568
    110          1           0       -8.781558   -1.948682   -0.667459
    111          1           0       -9.236631   -2.381765   -2.126870
    112          1           0       -8.501355    0.389230   -2.596414
    113          1           0       -9.166425    0.362300   -0.984023
    114          1           0      -11.026813   -0.947344   -2.018134
    115          1           0      -10.559169   -1.205872   -4.334738
    116          1           0       -9.669015    0.259797   -4.437454
    117          1           0      -11.457188    0.377822   -4.407665
    118          1           0      -10.854890    2.104568   -2.455112
    119          1           0      -11.019912    1.366024   -0.921097
    120          1           0      -13.247711    0.502457   -2.821463
    121          1           0      -13.227479    2.072641   -1.906910
    122          1           0      -12.705357   -0.087539   -0.241235
    123          1           0      -14.262117   -0.354442   -1.021381
    124          1           0      -14.583658    0.589992    0.969032
    125          1           0      -16.431822    1.875227    0.213098
    126          1           0      -15.676144    1.749951   -1.387246
    127          1           0      -15.316345    3.103932   -0.442083
    128          1           0      -13.922055    3.242651    1.283384
    129          1           0      -12.704822    2.716026    0.220911
    130          1           0      -11.494296    1.693510    1.688314
    131          1           0      -12.781278    0.613914    2.007522
    132          1           0      -12.905136    3.393453    3.189489
    133          1           0      -11.496961    2.528760    3.661926
    134          1           0      -13.249130    0.559987    4.119947
    135          1           0      -15.093786    2.387778    5.360555
    136          1           0      -15.255344    1.068866    4.164592
    137          1           0      -14.825296    2.654494    3.601562
    138          1           0      -12.189217    0.603181    5.926589
    139          1           0      -13.338105    1.706741    6.716359
    140          1           0      -11.956392    2.432604    5.956490
 ---------------------------------------------------------------------

 SCF Done:  E(RCAM-B3LYP) =  -3007.17896065     A.U. after   18 cycles

 Excitation energies and oscillator strengths:

 Excited State   1:      Singlet-A      1.7101 eV  725.01 nm  f=0.3798  <S**2>=0.000
     245 -> 248        0.17622
     246 -> 247        0.68717
     245 <- 248        0.10730
 This state for optimization and/or second-order correction.
 Total Energy, E(TD-HF/TD-DFT) =  -3007.11611525
 Copying the excited state density for this state as the 1-particle RhoCI density.

 Excited State   2:      Singlet-A      2.2138 eV  560.04 nm  f=0.1623  <S**2>=0.000
     245 -> 247        0.65285
     246 -> 248       -0.26105

 Excited State   3:      Singlet-A      3.2965 eV  376.10 nm  f=0.0049  <S**2>=0.000
     244 -> 247        0.68629

 Excited State   4:      Singlet-A      3.4789 eV  356.38 nm  f=0.0003  <S**2>=0.000
     239 -> 247        0.12058
     240 -> 247        0.17801
     240 -> 249       -0.14732
     240 -> 250       -0.11121
     243 -> 247        0.59286
     243 -> 249       -0.13341

 Excited State   5:      Singlet-A      3.6302 eV  341.54 nm  f=0.2856  <S**2>=0.000
     239 -> 247       -0.20858
     239 -> 249        0.10321
     240 -> 247       -0.36709
     240 -> 249        0.11955
     243 -> 247        0.18211
     245 -> 247        0.16529
     246 -> 248        0.46341

 The electronic state is 1-A.
 Alpha  occ. eigenvalues --  -46.87532 -19.27290 -19.25195 -19.20841 -19.19383
 Alpha  occ. eigenvalues --  -19.18888 -19.18405 -14.42492 -14.41604 -14.39112
 Alpha  occ. eigenvalues --  -14.38868 -10.41058 -10.38946 -10.34891 -10.34848
 Alpha  occ. eigenvalues --  -10.32123 -10.31876 -10.31488 -10.31261 -10.30814
 Alpha  occ. eigenvalues --  -10.29802 -10.29706 -10.29471 -10.29028 -10.28998
 Alpha  occ. eigenvalues --  -10.28351 -10.28346 -10.28288 -10.28033 -10.27916
 Alpha  occ. eigenvalues --  -10.27871 -10.27634 -10.27529 -10.27485 -10.27361
 Alpha  occ. eigenvalues --  -10.27239 -10.27152 -10.26997 -10.26881 -10.26843
 Alpha  occ. eigenvalues --  -10.26804 -10.26711 -10.26396 -10.26128 -10.25835
 Alpha  occ. eigenvalues --  -10.25817 -10.25779 -10.25688 -10.25542 -10.25470
 Alpha  occ. eigenvalues --  -10.25288 -10.25109 -10.25088 -10.25037 -10.25004
 Alpha  occ. eigenvalues --  -10.24955 -10.24793 -10.24768 -10.24673 -10.24665
 Alpha  occ. eigenvalues --  -10.24597 -10.24432 -10.24280 -10.24278 -10.24048
 Alpha  occ. eigenvalues --  -10.23437  -3.16347  -1.91250  -1.90815  -1.90653
 Alpha  occ. eigenvalues --   -1.17803  -1.17035  -1.10185  -1.09789  -1.07246
 Alpha  occ. eigenvalues --   -1.07015  -1.06014  -1.03903  -1.03291  -1.02441
 Alpha  occ. eigenvalues --   -0.92987  -0.91109  -0.90557  -0.89410  -0.89165
 Alpha  occ. eigenvalues --   -0.88942  -0.87897  -0.87790  -0.87321  -0.87236
 Alpha  occ. eigenvalues --   -0.86327  -0.85674  -0.84591  -0.83969  -0.83006
 Alpha  occ. eigenvalues --   -0.82552  -0.81821  -0.81546  -0.81169  -0.80503
 Alpha  occ. eigenvalues --   -0.80100  -0.78338  -0.78240  -0.77409  -0.76509
 Alpha  occ. eigenvalues --   -0.76276  -0.75694  -0.75403  -0.75321  -0.74661
 Alpha  occ. eigenvalues --   -0.73944  -0.73023  -0.71849  -0.70886  -0.69301
 Alpha  occ. eigenvalues --   -0.68869  -0.68582  -0.67265  -0.66619  -0.66096
 Alpha  occ. eigenvalues --   -0.65298  -0.64664  -0.64537  -0.64325  -0.64119
 Alpha  occ. eigenvalues --   -0.63888  -0.62766  -0.62712  -0.60912  -0.60429
 Alpha  occ. eigenvalues --   -0.60115  -0.59787  -0.59179  -0.58657  -0.58017
 Alpha  occ. eigenvalues --   -0.57607  -0.57106  -0.56760  -0.56293  -0.55619
 Alpha  occ. eigenvalues --   -0.55594  -0.55155  -0.55042  -0.54840  -0.54648
 Alpha  occ. eigenvalues --   -0.54172  -0.54044  -0.53238  -0.53012  -0.52927
 Alpha  occ. eigenvalues --   -0.52616  -0.52362  -0.52290  -0.51898  -0.51661
 Alpha  occ. eigenvalues --   -0.51604  -0.51443  -0.51203  -0.50904  -0.50541
 Alpha  occ. eigenvalues --   -0.50412  -0.50186  -0.49886  -0.49804  -0.49733
 Alpha  occ. eigenvalues --   -0.49518  -0.49377  -0.49168  -0.49089  -0.48977
 Alpha  occ. eigenvalues --   -0.48769  -0.48572  -0.48376  -0.48131  -0.47722
 Alpha  occ. eigenvalues --   -0.47600  -0.47333  -0.47189  -0.47069  -0.46719
 Alpha  occ. eigenvalues --   -0.46648  -0.46302  -0.46102  -0.45933  -0.45814
 Alpha  occ. eigenvalues --   -0.45690  -0.45672  -0.45326  -0.45234  -0.45075
 Alpha  occ. eigenvalues --   -0.45037  -0.44752  -0.44652  -0.44407  -0.44047
 Alpha  occ. eigenvalues --   -0.43975  -0.43822  -0.43617  -0.43178  -0.43085
 Alpha  occ. eigenvalues --   -0.42974  -0.42748  -0.42594  -0.42372  -0.42162
 Alpha  occ. eigenvalues --   -0.41721  -0.41695  -0.41609  -0.41340  -0.41145
 Alpha  occ. eigenvalues --   -0.40877  -0.40839  -0.40693  -0.40450  -0.40114
 Alpha  occ. eigenvalues --   -0.40006  -0.39661  -0.39626  -0.38858  -0.38812
 Alpha  occ. eigenvalues --   -0.38688  -0.38093  -0.37882  -0.37848  -0.37454
 Alpha  occ. eigenvalues --   -0.36999  -0.36871  -0.36785  -0.36506  -0.36113
 Alpha  occ. eigenvalues --   -0.35794  -0.35328  -0.34829  -0.34618  -0.34542
 Alpha  occ. eigenvalues --   -0.34218  -0.34076  -0.32683  -0.31364  -0.31157
 Alpha  occ. eigenvalues --   -0.30634  -0.30457  -0.30304  -0.29367  -0.23908
 Alpha  occ. eigenvalues --   -0.21326
 Alpha virt. eigenvalues --   -0.08829  -0.01257   0.00730   0.02568   0.03653
 Alpha virt. eigenvalues --    0.03752   0.05125   0.05780   0.06191   0.06390
 Alpha virt. eigenvalues --    0.07797   0.08245   0.08594   0.08792   0.08991

 Mulliken charges:
               1
     1  Mg   0.850741
     2  C    0.013705
     3  C   -0.097240
     4  C   -0.080039
     5  C   -0.082122
     6  N   -0.269856
     7  C   -0.043724
     8  C   -0.020893
     9  C   -0.063365
    10  C    0.055603
    11  C    0.071712
    12  C    0.090957
    13  C    0.015825
    14  C    0.188428
    15  O   -0.273227
    16  O   -0.313318
    17  N   -0.368904
    18  C    0.154571
    19  C   -0.152643
    20  C   -0.043712
    21  C    0.146322
    22  C    0.128773
    23  C    0.010879
    24  O   -0.203135
    25  C    0.035875
    26  N   -0.351988
    27  C    0.053156
    28  C   -0.025830
    29  C   -0.008026
    30  C    0.046708
    31  C    0.085662
    32  C   -0.009762
    33  C   -0.023679
    34  N   -0.292848
    35  C    0.099871
    36  C   -0.159275
    37  C   -0.071903
    38  C    0.089777
    39  C    0.123129
    40  C    0.111193
    41  O   -0.148913
    42  C   -0.023396
    43  C    0.166755
    44  O   -0.223212
    45  O   -0.315509
    46  C    0.173885
    47  C    0.253524
    48  C   -0.137192
    49  C   -0.148520
    50  C    0.095951
    51  C    0.066269
    52  C    0.036170
    53  C    0.059526
    54  C   -0.152479
    55  C    0.086507
    56  C    0.047028
    57  C    0.026784
    58  C    0.011421
    59  C   -0.130797
    60  C    0.072826
    61  C    0.087617
    62  C   -0.015034
    63  C    0.029241
    64  C   -0.181148
    65  C    0.061841
    66  C    0.072371
    67  H   -0.042130
    68  H   -0.003797
    69  H   -0.030670
    70  H    0.000962
    71  H    0.013566
    72  H    0.029260
    73  H    0.005265
    74  H    0.009519
    75  H    0.007327
    76  H    0.039066
    77  H    0.028322
    78  H    0.035827
    79  H    0.035201
    80  H    0.030728
    81  H    0.016920
    82  H    0.017882
    83  H    0.042378
    84  H    0.025813
    85  H    0.006927
    86  H    0.009883
    87  H    0.013314
    88  H    0.013220
    89  H    0.028426
    90  H    0.004239
    91  H    0.016267
    92  H    0.017834
    93  H    0.026295
    94  H    0.030250
    95  H    0.025151
    96  H    0.015599
    97  H    0.039256
    98  H    0.049771
    99  H    0.048319
   100  H    0.034907
   101  H    0.040625
   102  H    0.024507
   103  H    0.051900
   104  H    0.005954
   105  H    0.004371
   106  H    0.032823
   107  H    0.023767
   108  H   -0.008241
   109  H   -0.011407
   110  H   -0.017362
   111  H   -0.018530
   112  H   -0.010549
   113  H   -0.008724
   114  H   -0.006884
   115  H    0.006388
   116  H   -0.000492
   117  H    0.016135
   118  H   -0.001530
   119  H   -0.014555
   120  H    0.004701
   121  H   -0.007368
   122  H   -0.011999
   123  H   -0.001488
   124  H   -0.009927
   125  H    0.019212
   126  H   -0.006749
   127  H    0.001179
   128  H    0.002931
   129  H   -0.016052
   130  H   -0.002387
   131  H    0.001201
   132  H   -0.008585
   133  H   -0.022901
   134  H   -0.009829
   135  H    0.006534
   136  H    0.000133
   137  H   -0.004722
   138  H    0.013505
   139  H    0.005796
   140  H    0.008608
 Sum of Mulliken charges =  -0.00000

 Dipole moment (field-independent basis, Debye):
    X=             -4.1320    Y=              3.5105    Z=             -1.4177  Tot=              5.6042
 Quadrupole moment (field-independent basis, Debye-Ang):
   XX=           -390.3239   YY=           -429.6134   ZZ=           -401.2519
   XY=             13.2567   XZ=             16.5201   YZ=             -4.3429

 Normal termination of Gaussian 16 at Thu Apr 28 15:42:23 2022.
