 Gaussian 16, Revision A.03,
 Gaussian 16:  ES64L-G16RevA.03 25-Dec-2016

 ---------------------------------
 #p PBE1PBE/Def2SVP td=(nstates=5)
 ---------------------------------

 ------------------------------------------------------
 step_1651_chromophore_10 TDDFT with PBE1PBE functional
 ------------------------------------------------------
 Symbolic Z-matrix:
 Charge =  0 Multiplicity = 1

                         Standard orientation:
 ---------------------------------------------------------------------
 Center     Atomic      Atomic             Coordinates (Angstroms)
 Number     Number       Type             X           Y           Z
 ---------------------------------------------------------------------
      1         12           0        6.315867    0.456674    0.103297
      2          6           0        4.074894   -2.183608    0.002117
      3          6           0        3.989945    2.334337   -1.743685
      4          6           0        8.387627    2.958983    0.076540
      5          6           0        8.637044   -1.604956    1.541390
      6          7           0        4.219058    0.159186   -0.651200
      7          6           0        3.529596   -1.012746   -0.540830
      8          6           0        2.010652   -0.858664   -0.998561
      9          6           0        2.089101    0.508984   -1.769350
     10          6           0        3.531376    1.017801   -1.473350
     11          6           0        1.612517    0.429529   -3.240825
     12          6           0        0.893851   -1.025781    0.063391
     13          6           0       -0.578101   -0.710015   -0.360932
     14          6           0       -1.731871   -1.607037    0.175049
     15          8           0       -1.580509   -2.750262    0.706685
     16          8           0       -2.938168   -1.018984   -0.101435
     17          7           0        6.130932    2.414434   -0.554039
     18          6           0        5.144020    3.023098   -1.288806
     19          6           0        5.392916    4.376972   -1.508978
     20          6           0        6.683118    4.612010   -0.889570
     21          6           0        7.155334    3.310978   -0.452117
     22          6           0        4.472939    5.291971   -2.219074
     23          6           0        7.461599    5.918733   -0.779058
     24          8           0        8.515174    6.000040   -0.167392
     25          6           0        6.811990    7.192841   -1.246439
     26          7           0        8.228280    0.642632    0.626319
     27          6           0        8.852255    1.850025    0.663275
     28          6           0       10.335523    1.708580    1.022983
     29          6           0       10.393044    0.266810    1.637313
     30          6           0        9.028955   -0.295430    1.213430
     31          6           0       11.362061    1.947136   -0.134242
     32          6           0       10.443493    0.215767    3.238876
     33          6           0        9.326529    1.010223    4.067379
     34          7           0        6.418274   -1.545209    0.592118
     35          6           0        7.404555   -2.263518    1.163565
     36          6           0        7.000958   -3.636382    1.369874
     37          6           0        5.673469   -3.614355    0.984176
     38          6           0        5.425247   -2.350946    0.400026
     39          6           0        7.786720   -4.804136    1.887577
     40          6           0        4.494795   -4.503317    0.854909
     41          8           0        4.329631   -5.667525    1.170005
     42          6           0        3.475053   -3.553854    0.229005
     43          6           0        2.948936   -4.192736   -1.014326
     44          8           0        3.573517   -4.593749   -1.994485
     45          8           0        1.618255   -4.208786   -0.926273
     46          6           0        0.768605   -4.769352   -1.972865
     47          6           0       -3.960016   -2.020005    0.136589
     48          6           0       -5.174082   -1.745428   -0.779963
     49          6           0       -6.198510   -2.550619   -1.076121
     50          6           0       -6.481984   -3.968141   -0.620665
     51          6           0       -7.213089   -1.903720   -2.067825
     52          6           0       -8.618467   -1.599480   -1.686723
     53          6           0       -9.153738   -0.176082   -1.931579
     54          6           0      -10.579182   -0.081827   -2.506780
     55          6           0      -10.587640   -0.159581   -4.029593
     56          6           0      -11.267901    1.219221   -1.971962
     57          6           0      -12.808091    1.070337   -2.001659
     58          6           0      -13.528622    0.407829   -0.757798
     59          6           0      -14.290878    1.326016    0.220529
     60          6           0      -15.512058    2.035961   -0.348618
     61          6           0      -13.460438    2.330400    0.906094
     62          6           0      -12.557929    1.677594    1.925318
     63          6           0      -12.520076    2.380756    3.316314
     64          6           0      -13.250510    1.588734    4.482015
     65          6           0      -14.699154    1.965704    4.436755
     66          6           0      -12.646019    1.591443    5.881802
     67          1           0        3.254773    2.933670   -2.285150
     68          1           0        9.128860    3.758604    0.135823
     69          1           0        9.360602   -2.165374    2.136935
     70          1           0        1.826220   -1.676317   -1.695053
     71          1           0        1.381817    1.181782   -1.284807
     72          1           0        2.425187    0.798274   -3.867418
     73          1           0        0.661110    0.936905   -3.394808
     74          1           0        1.278445   -0.573801   -3.507979
     75          1           0        1.171957   -0.397288    0.909109
     76          1           0        0.863683   -2.070031    0.372803
     77          1           0       -0.770301   -0.794690   -1.430284
     78          1           0       -0.824797    0.322127   -0.111534
     79          1           0        5.016791    5.602748   -3.111332
     80          1           0        4.327057    6.155370   -1.569466
     81          1           0        3.509615    4.893412   -2.537840
     82          1           0        7.475970    8.056690   -1.250684
     83          1           0        6.107485    7.422653   -0.448413
     84          1           0        6.355082    7.201458   -2.236313
     85          1           0       10.595352    2.379890    1.841250
     86          1           0       11.235446   -0.283618    1.218306
     87          1           0       10.827624    2.464052   -0.931758
     88          1           0       11.649017    1.005802   -0.602891
     89          1           0       12.188517    2.580839    0.186274
     90          1           0       11.314453    0.751834    3.615964
     91          1           0       10.549762   -0.798815    3.624009
     92          1           0        9.066804    0.455637    4.969527
     93          1           0        8.447013    0.994865    3.423892
     94          1           0        9.626770    2.019063    4.347730
     95          1           0        7.078166   -5.488765    2.353429
     96          1           0        8.489749   -4.518761    2.670161
     97          1           0        8.228973   -5.416970    1.102157
     98          1           0        2.610268   -3.566218    0.891009
     99          1           0        1.362559   -4.896176   -2.877616
    100          1           0       -0.143053   -4.194152   -2.132835
    101          1           0        0.421310   -5.757211   -1.667865
    102          1           0       -4.245560   -1.828030    1.170213
    103          1           0       -3.762890   -3.090690    0.080832
    104          1           0       -5.031878   -0.832032   -1.356931
    105          1           0       -5.729994   -4.242517    0.118995
    106          1           0       -6.462312   -4.689976   -1.437798
    107          1           0       -7.437800   -4.036688   -0.102111
    108          1           0       -7.263719   -2.588563   -2.913232
    109          1           0       -6.820312   -0.964860   -2.457568
    110          1           0       -8.781558   -1.948682   -0.667459
    111          1           0       -9.236631   -2.381765   -2.126870
    112          1           0       -8.501355    0.389230   -2.596414
    113          1           0       -9.166425    0.362300   -0.984023
    114          1           0      -11.026813   -0.947344   -2.018134
    115          1           0      -10.559169   -1.205872   -4.334738
    116          1           0       -9.669015    0.259797   -4.437454
    117          1           0      -11.457188    0.377822   -4.407665
    118          1           0      -10.854890    2.104568   -2.455112
    119          1           0      -11.019912    1.366024   -0.921097
    120          1           0      -13.247711    0.502457   -2.821463
    121          1           0      -13.227479    2.072641   -1.906910
    122          1           0      -12.705357   -0.087539   -0.241235
    123          1           0      -14.262117   -0.354442   -1.021381
    124          1           0      -14.583658    0.589992    0.969032
    125          1           0      -16.431822    1.875227    0.213098
    126          1           0      -15.676144    1.749951   -1.387246
    127          1           0      -15.316345    3.103932   -0.442083
    128          1           0      -13.922055    3.242651    1.283384
    129          1           0      -12.704822    2.716026    0.220911
    130          1           0      -11.494296    1.693510    1.688314
    131          1           0      -12.781278    0.613914    2.007522
    132          1           0      -12.905136    3.393453    3.189489
    133          1           0      -11.496961    2.528760    3.661926
    134          1           0      -13.249130    0.559987    4.119947
    135          1           0      -15.093786    2.387778    5.360555
    136          1           0      -15.255344    1.068866    4.164592
    137          1           0      -14.825296    2.654494    3.601562
    138          1           0      -12.189217    0.603181    5.926589
    139          1           0      -13.338105    1.706741    6.716359
    140          1           0      -11.956392    2.432604    5.956490
 ---------------------------------------------------------------------

 SCF Done:  E(RPBE1PBE) =  -3005.36803354     A.U. after   15 cycles

 Excitation energies and oscillator strengths:

 Excited State   1:      Singlet-A      1.8678 eV  663.81 nm  f=0.3629  <S**2>=0.000
     245 -> 248        0.16986
     246 -> 247        0.69413
     246 <- 247       -0.10959
 This state for optimization and/or second-order correction.
 Total Energy, E(TD-HF/TD-DFT) =  -3005.29939483
 Copying the excited state density for this state as the 1-particle RhoCI density.

 Excited State   2:      Singlet-A      2.2298 eV  556.03 nm  f=0.1558  <S**2>=0.000
     245 -> 247        0.66073
     246 -> 248       -0.23991

 Excited State   3:      Singlet-A      2.9642 eV  418.27 nm  f=0.0071  <S**2>=0.000
     242 -> 247       -0.16856
     244 -> 247        0.67918

 Excited State   4:      Singlet-A      3.0079 eV  412.19 nm  f=0.0039  <S**2>=0.000
     240 -> 247        0.16689
     242 -> 247        0.57792
     242 -> 249       -0.11797
     243 -> 247       -0.28768
     244 -> 247        0.15604

 Excited State   5:      Singlet-A      3.0442 eV  407.28 nm  f=0.0002  <S**2>=0.000
     242 -> 247        0.27832
     243 -> 247        0.61720
     243 -> 249        0.12235

 The electronic state is 1-A.
 Alpha  occ. eigenvalues --  -46.90951 -19.27997 -19.25799 -19.21199 -19.19519
 Alpha  occ. eigenvalues --  -19.19086 -19.18671 -14.41958 -14.41183 -14.38680
 Alpha  occ. eigenvalues --  -14.38574 -10.38147 -10.35912 -10.32019 -10.31966
 Alpha  occ. eigenvalues --  -10.29568 -10.29199 -10.29049 -10.29043 -10.28549
 Alpha  occ. eigenvalues --  -10.27452 -10.27449 -10.27181 -10.26779 -10.26504
 Alpha  occ. eigenvalues --  -10.26137 -10.26076 -10.25948 -10.25776 -10.25765
 Alpha  occ. eigenvalues --  -10.25568 -10.25207 -10.25198 -10.25160 -10.25143
 Alpha  occ. eigenvalues --  -10.24832 -10.24760 -10.24547 -10.24543 -10.24484
 Alpha  occ. eigenvalues --  -10.24449 -10.24261 -10.23849 -10.23696 -10.23390
 Alpha  occ. eigenvalues --  -10.23304 -10.23195 -10.23144 -10.23054 -10.22985
 Alpha  occ. eigenvalues --  -10.22846 -10.22764 -10.22677 -10.22612 -10.22538
 Alpha  occ. eigenvalues --  -10.22531 -10.22452 -10.22360 -10.22266 -10.22235
 Alpha  occ. eigenvalues --  -10.22146 -10.22002 -10.21667 -10.21653 -10.21595
 Alpha  occ. eigenvalues --  -10.20785  -3.13339  -1.86186  -1.85730  -1.85568
 Alpha  occ. eigenvalues --   -1.12662  -1.11779  -1.04853  -1.04568  -1.02103
 Alpha  occ. eigenvalues --   -1.01775  -1.00700  -0.98560  -0.97912  -0.97126
 Alpha  occ. eigenvalues --   -0.87282  -0.85201  -0.84693  -0.83580  -0.83509
 Alpha  occ. eigenvalues --   -0.83086  -0.82095  -0.82014  -0.81619  -0.81570
 Alpha  occ. eigenvalues --   -0.80629  -0.79926  -0.78794  -0.78254  -0.77225
 Alpha  occ. eigenvalues --   -0.76760  -0.76029  -0.75819  -0.75427  -0.74700
 Alpha  occ. eigenvalues --   -0.74372  -0.72628  -0.72517  -0.71722  -0.70787
 Alpha  occ. eigenvalues --   -0.70486  -0.69790  -0.69730  -0.69495  -0.68810
 Alpha  occ. eigenvalues --   -0.68244  -0.67442  -0.66226  -0.65267  -0.63643
 Alpha  occ. eigenvalues --   -0.63201  -0.62950  -0.61735  -0.60853  -0.60405
 Alpha  occ. eigenvalues --   -0.59690  -0.59200  -0.59084  -0.58832  -0.58582
 Alpha  occ. eigenvalues --   -0.58045  -0.57240  -0.56939  -0.55176  -0.54988
 Alpha  occ. eigenvalues --   -0.54546  -0.54331  -0.53756  -0.53227  -0.52535
 Alpha  occ. eigenvalues --   -0.52055  -0.51551  -0.51169  -0.50895  -0.50148
 Alpha  occ. eigenvalues --   -0.49913  -0.49692  -0.49643  -0.49313  -0.49155
 Alpha  occ. eigenvalues --   -0.48663  -0.48496  -0.47692  -0.47587  -0.47541
 Alpha  occ. eigenvalues --   -0.46977  -0.46902  -0.46773  -0.46497  -0.46199
 Alpha  occ. eigenvalues --   -0.46116  -0.45930  -0.45742  -0.45433  -0.45150
 Alpha  occ. eigenvalues --   -0.44938  -0.44751  -0.44511  -0.44414  -0.44313
 Alpha  occ. eigenvalues --   -0.44067  -0.43963  -0.43773  -0.43615  -0.43603
 Alpha  occ. eigenvalues --   -0.43415  -0.43204  -0.43017  -0.42770  -0.42364
 Alpha  occ. eigenvalues --   -0.42175  -0.42009  -0.41852  -0.41735  -0.41407
 Alpha  occ. eigenvalues --   -0.41300  -0.40902  -0.40815  -0.40605  -0.40505
 Alpha  occ. eigenvalues --   -0.40431  -0.40373  -0.40113  -0.39985  -0.39751
 Alpha  occ. eigenvalues --   -0.39719  -0.39475  -0.39411  -0.39160  -0.38801
 Alpha  occ. eigenvalues --   -0.38623  -0.38551  -0.38386  -0.38049  -0.37920
 Alpha  occ. eigenvalues --   -0.37873  -0.37449  -0.37358  -0.37240  -0.37013
 Alpha  occ. eigenvalues --   -0.36562  -0.36474  -0.36431  -0.36059  -0.35983
 Alpha  occ. eigenvalues --   -0.35745  -0.35644  -0.35564  -0.35288  -0.34916
 Alpha  occ. eigenvalues --   -0.34847  -0.34533  -0.34374  -0.33783  -0.33732
 Alpha  occ. eigenvalues --   -0.33653  -0.32963  -0.32845  -0.32686  -0.32347
 Alpha  occ. eigenvalues --   -0.31918  -0.31908  -0.31837  -0.31277  -0.31064
 Alpha  occ. eigenvalues --   -0.30633  -0.30231  -0.29942  -0.29551  -0.29444
 Alpha  occ. eigenvalues --   -0.29115  -0.29062  -0.28107  -0.26891  -0.26316
 Alpha  occ. eigenvalues --   -0.25725  -0.25561  -0.25466  -0.25040  -0.20864
 Alpha  occ. eigenvalues --   -0.18912
 Alpha virt. eigenvalues --   -0.11259  -0.04833  -0.03492  -0.01846  -0.00923
 Alpha virt. eigenvalues --    0.00489   0.01273   0.01479   0.01528   0.02897
 Alpha virt. eigenvalues --    0.04095   0.04638   0.04663   0.04967   0.05741

 Mulliken charges:
               1
     1  Mg   1.009040
     2  C   -0.006176
     3  C   -0.088756
     4  C   -0.082494
     5  C   -0.067077
     6  N   -0.374100
     7  C    0.021313
     8  C   -0.079854
     9  C   -0.141158
    10  C    0.095867
    11  C    0.014475
    12  C    0.030539
    13  C   -0.055250
    14  C    0.246217
    15  O   -0.302681
    16  O   -0.342836
    17  N   -0.486837
    18  C    0.175408
    19  C   -0.184481
    20  C   -0.082310
    21  C    0.170782
    22  C    0.065842
    23  C    0.062594
    24  O   -0.239874
    25  C   -0.036837
    26  N   -0.460463
    27  C    0.093835
    28  C   -0.100122
    29  C   -0.084730
    30  C    0.081187
    31  C    0.027672
    32  C   -0.068393
    33  C   -0.098230
    34  N   -0.425820
    35  C    0.116703
    36  C   -0.180617
    37  C   -0.115525
    38  C    0.157221
    39  C    0.070406
    40  C    0.206362
    41  O   -0.199034
    42  C   -0.134454
    43  C    0.263749
    44  O   -0.260745
    45  O   -0.350251
    46  C    0.120874
    47  C    0.215026
    48  C   -0.149872
    49  C   -0.194900
    50  C    0.033487
    51  C    0.002768
    52  C   -0.020904
    53  C    0.004761
    54  C   -0.241626
    55  C    0.029822
    56  C   -0.014385
    57  C   -0.040024
    58  C   -0.034307
    59  C   -0.230176
    60  C    0.013959
    61  C    0.033566
    62  C   -0.071457
    63  C   -0.030706
    64  C   -0.270551
    65  C    0.003554
    66  C    0.009424
    67  H   -0.008424
    68  H    0.028679
    69  H    0.001389
    70  H    0.045306
    71  H    0.052728
    72  H    0.056231
    73  H    0.032042
    74  H    0.035826
    75  H    0.040919
    76  H    0.075438
    77  H    0.061102
    78  H    0.066415
    79  H    0.063831
    80  H    0.059041
    81  H    0.044110
    82  H    0.046110
    83  H    0.069870
    84  H    0.051379
    85  H    0.045414
    86  H    0.045466
    87  H    0.042034
    88  H    0.040881
    89  H    0.055412
    90  H    0.038631
    91  H    0.047905
    92  H    0.046453
    93  H    0.059749
    94  H    0.056081
    95  H    0.053034
    96  H    0.041838
    97  H    0.066534
    98  H    0.086996
    99  H    0.068226
   100  H    0.056084
   101  H    0.062359
   102  H    0.053882
   103  H    0.077462
   104  H    0.035492
   105  H    0.032570
   106  H    0.059485
   107  H    0.050808
   108  H    0.026164
   109  H    0.020526
   110  H    0.016338
   111  H    0.013079
   112  H    0.020961
   113  H    0.024354
   114  H    0.032539
   115  H    0.034396
   116  H    0.026559
   117  H    0.043424
   118  H    0.030314
   119  H    0.021016
   120  H    0.036535
   121  H    0.028200
   122  H    0.021637
   123  H    0.030986
   124  H    0.030127
   125  H    0.046783
   126  H    0.021458
   127  H    0.028187
   128  H    0.032273
   129  H    0.020091
   130  H    0.030489
   131  H    0.030546
   132  H    0.024292
   133  H    0.010881
   134  H    0.029654
   135  H    0.033460
   136  H    0.027313
   137  H    0.024995
   138  H    0.040663
   139  H    0.032827
   140  H    0.035715
 Sum of Mulliken charges =  -0.00000

 Dipole moment (field-independent basis, Debye):
    X=             -4.0760    Y=              3.6052    Z=             -1.3840  Tot=              5.6149
 Quadrupole moment (field-independent basis, Debye-Ang):
   XX=           -384.0983   YY=           -426.7630   ZZ=           -398.5106
   XY=             14.0041   XZ=             17.8248   YZ=             -4.6081

 Normal termination of Gaussian 16 at Thu Apr 28 16:06:03 2022.
