 Gaussian 16, Revision A.03,
 Gaussian 16:  ES64L-G16RevA.03 25-Dec-2016

 --------------------------------
 #p wB97XD/Def2SVP td=(nstates=5)
 --------------------------------

 -----------------------------------------------------
 step_1651_chromophore_10 TDDFT with wB97XD functional
 -----------------------------------------------------
 Symbolic Z-matrix:
 Charge =  0 Multiplicity = 1

                         Standard orientation:
 ---------------------------------------------------------------------
 Center     Atomic      Atomic             Coordinates (Angstroms)
 Number     Number       Type             X           Y           Z
 ---------------------------------------------------------------------
      1         12           0        6.315867    0.456674    0.103297
      2          6           0        4.074894   -2.183608    0.002117
      3          6           0        3.989945    2.334337   -1.743685
      4          6           0        8.387627    2.958983    0.076540
      5          6           0        8.637044   -1.604956    1.541390
      6          7           0        4.219058    0.159186   -0.651200
      7          6           0        3.529596   -1.012746   -0.540830
      8          6           0        2.010652   -0.858664   -0.998561
      9          6           0        2.089101    0.508984   -1.769350
     10          6           0        3.531376    1.017801   -1.473350
     11          6           0        1.612517    0.429529   -3.240825
     12          6           0        0.893851   -1.025781    0.063391
     13          6           0       -0.578101   -0.710015   -0.360932
     14          6           0       -1.731871   -1.607037    0.175049
     15          8           0       -1.580509   -2.750262    0.706685
     16          8           0       -2.938168   -1.018984   -0.101435
     17          7           0        6.130932    2.414434   -0.554039
     18          6           0        5.144020    3.023098   -1.288806
     19          6           0        5.392916    4.376972   -1.508978
     20          6           0        6.683118    4.612010   -0.889570
     21          6           0        7.155334    3.310978   -0.452117
     22          6           0        4.472939    5.291971   -2.219074
     23          6           0        7.461599    5.918733   -0.779058
     24          8           0        8.515174    6.000040   -0.167392
     25          6           0        6.811990    7.192841   -1.246439
     26          7           0        8.228280    0.642632    0.626319
     27          6           0        8.852255    1.850025    0.663275
     28          6           0       10.335523    1.708580    1.022983
     29          6           0       10.393044    0.266810    1.637313
     30          6           0        9.028955   -0.295430    1.213430
     31          6           0       11.362061    1.947136   -0.134242
     32          6           0       10.443493    0.215767    3.238876
     33          6           0        9.326529    1.010223    4.067379
     34          7           0        6.418274   -1.545209    0.592118
     35          6           0        7.404555   -2.263518    1.163565
     36          6           0        7.000958   -3.636382    1.369874
     37          6           0        5.673469   -3.614355    0.984176
     38          6           0        5.425247   -2.350946    0.400026
     39          6           0        7.786720   -4.804136    1.887577
     40          6           0        4.494795   -4.503317    0.854909
     41          8           0        4.329631   -5.667525    1.170005
     42          6           0        3.475053   -3.553854    0.229005
     43          6           0        2.948936   -4.192736   -1.014326
     44          8           0        3.573517   -4.593749   -1.994485
     45          8           0        1.618255   -4.208786   -0.926273
     46          6           0        0.768605   -4.769352   -1.972865
     47          6           0       -3.960016   -2.020005    0.136589
     48          6           0       -5.174082   -1.745428   -0.779963
     49          6           0       -6.198510   -2.550619   -1.076121
     50          6           0       -6.481984   -3.968141   -0.620665
     51          6           0       -7.213089   -1.903720   -2.067825
     52          6           0       -8.618467   -1.599480   -1.686723
     53          6           0       -9.153738   -0.176082   -1.931579
     54          6           0      -10.579182   -0.081827   -2.506780
     55          6           0      -10.587640   -0.159581   -4.029593
     56          6           0      -11.267901    1.219221   -1.971962
     57          6           0      -12.808091    1.070337   -2.001659
     58          6           0      -13.528622    0.407829   -0.757798
     59          6           0      -14.290878    1.326016    0.220529
     60          6           0      -15.512058    2.035961   -0.348618
     61          6           0      -13.460438    2.330400    0.906094
     62          6           0      -12.557929    1.677594    1.925318
     63          6           0      -12.520076    2.380756    3.316314
     64          6           0      -13.250510    1.588734    4.482015
     65          6           0      -14.699154    1.965704    4.436755
     66          6           0      -12.646019    1.591443    5.881802
     67          1           0        3.254773    2.933670   -2.285150
     68          1           0        9.128860    3.758604    0.135823
     69          1           0        9.360602   -2.165374    2.136935
     70          1           0        1.826220   -1.676317   -1.695053
     71          1           0        1.381817    1.181782   -1.284807
     72          1           0        2.425187    0.798274   -3.867418
     73          1           0        0.661110    0.936905   -3.394808
     74          1           0        1.278445   -0.573801   -3.507979
     75          1           0        1.171957   -0.397288    0.909109
     76          1           0        0.863683   -2.070031    0.372803
     77          1           0       -0.770301   -0.794690   -1.430284
     78          1           0       -0.824797    0.322127   -0.111534
     79          1           0        5.016791    5.602748   -3.111332
     80          1           0        4.327057    6.155370   -1.569466
     81          1           0        3.509615    4.893412   -2.537840
     82          1           0        7.475970    8.056690   -1.250684
     83          1           0        6.107485    7.422653   -0.448413
     84          1           0        6.355082    7.201458   -2.236313
     85          1           0       10.595352    2.379890    1.841250
     86          1           0       11.235446   -0.283618    1.218306
     87          1           0       10.827624    2.464052   -0.931758
     88          1           0       11.649017    1.005802   -0.602891
     89          1           0       12.188517    2.580839    0.186274
     90          1           0       11.314453    0.751834    3.615964
     91          1           0       10.549762   -0.798815    3.624009
     92          1           0        9.066804    0.455637    4.969527
     93          1           0        8.447013    0.994865    3.423892
     94          1           0        9.626770    2.019063    4.347730
     95          1           0        7.078166   -5.488765    2.353429
     96          1           0        8.489749   -4.518761    2.670161
     97          1           0        8.228973   -5.416970    1.102157
     98          1           0        2.610268   -3.566218    0.891009
     99          1           0        1.362559   -4.896176   -2.877616
    100          1           0       -0.143053   -4.194152   -2.132835
    101          1           0        0.421310   -5.757211   -1.667865
    102          1           0       -4.245560   -1.828030    1.170213
    103          1           0       -3.762890   -3.090690    0.080832
    104          1           0       -5.031878   -0.832032   -1.356931
    105          1           0       -5.729994   -4.242517    0.118995
    106          1           0       -6.462312   -4.689976   -1.437798
    107          1           0       -7.437800   -4.036688   -0.102111
    108          1           0       -7.263719   -2.588563   -2.913232
    109          1           0       -6.820312   -0.964860   -2.457568
    110          1           0       -8.781558   -1.948682   -0.667459
    111          1           0       -9.236631   -2.381765   -2.126870
    112          1           0       -8.501355    0.389230   -2.596414
    113          1           0       -9.166425    0.362300   -0.984023
    114          1           0      -11.026813   -0.947344   -2.018134
    115          1           0      -10.559169   -1.205872   -4.334738
    116          1           0       -9.669015    0.259797   -4.437454
    117          1           0      -11.457188    0.377822   -4.407665
    118          1           0      -10.854890    2.104568   -2.455112
    119          1           0      -11.019912    1.366024   -0.921097
    120          1           0      -13.247711    0.502457   -2.821463
    121          1           0      -13.227479    2.072641   -1.906910
    122          1           0      -12.705357   -0.087539   -0.241235
    123          1           0      -14.262117   -0.354442   -1.021381
    124          1           0      -14.583658    0.589992    0.969032
    125          1           0      -16.431822    1.875227    0.213098
    126          1           0      -15.676144    1.749951   -1.387246
    127          1           0      -15.316345    3.103932   -0.442083
    128          1           0      -13.922055    3.242651    1.283384
    129          1           0      -12.704822    2.716026    0.220911
    130          1           0      -11.494296    1.693510    1.688314
    131          1           0      -12.781278    0.613914    2.007522
    132          1           0      -12.905136    3.393453    3.189489
    133          1           0      -11.496961    2.528760    3.661926
    134          1           0      -13.249130    0.559987    4.119947
    135          1           0      -15.093786    2.387778    5.360555
    136          1           0      -15.255344    1.068866    4.164592
    137          1           0      -14.825296    2.654494    3.601562
    138          1           0      -12.189217    0.603181    5.926589
    139          1           0      -13.338105    1.706741    6.716359
    140          1           0      -11.956392    2.432604    5.956490
 ---------------------------------------------------------------------

 SCF Done:  E(RwB97XD) =  -3007.87752720     A.U. after   19 cycles

 Excitation energies and oscillator strengths:

 Excited State   1:      Singlet-A      1.6520 eV  750.52 nm  f=0.3784  <S**2>=0.000
     245 -> 248        0.18171
     246 -> 247        0.68498
     245 <- 248        0.11637
 This state for optimization and/or second-order correction.
 Total Energy, E(TD-HF/TD-DFT) =  -3007.81681810
 Copying the excited state density for this state as the 1-particle RhoCI density.

 Excited State   2:      Singlet-A      2.1584 eV  574.43 nm  f=0.1576  <S**2>=0.000
     245 -> 247        0.65061
     246 -> 248       -0.26448

 Excited State   3:      Singlet-A      3.3252 eV  372.87 nm  f=0.0039  <S**2>=0.000
     243 -> 247       -0.10044
     244 -> 247        0.67744

 Excited State   4:      Singlet-A      3.5055 eV  353.68 nm  f=0.0008  <S**2>=0.000
     240 -> 247        0.13409
     240 -> 249       -0.16237
     240 -> 250       -0.12101
     241 -> 247        0.16603
     243 -> 247        0.57896
     243 -> 249       -0.15693
     246 -> 248        0.11368

 Excited State   5:      Singlet-A      3.6472 eV  339.94 nm  f=0.3477  <S**2>=0.000
     239 -> 247       -0.10971
     240 -> 247       -0.39717
     240 -> 249        0.14993
     243 -> 247        0.10376
     245 -> 247        0.18035
     246 -> 248        0.48503

 The electronic state is 1-A.
 Alpha  occ. eigenvalues --  -46.93887 -19.32560 -19.30417 -19.25823 -19.24461
 Alpha  occ. eigenvalues --  -19.23858 -19.23414 -14.47115 -14.46207 -14.43699
 Alpha  occ. eigenvalues --  -14.43480 -10.44910 -10.42802 -10.38940 -10.38799
 Alpha  occ. eigenvalues --  -10.36039 -10.35603 -10.35551 -10.35293 -10.34842
 Alpha  occ. eigenvalues --  -10.33853 -10.33704 -10.33482 -10.33030 -10.32949
 Alpha  occ. eigenvalues --  -10.32399 -10.32379 -10.32351 -10.32185 -10.31983
 Alpha  occ. eigenvalues --  -10.31972 -10.31699 -10.31670 -10.31512 -10.31395
 Alpha  occ. eigenvalues --  -10.31249 -10.31212 -10.30921 -10.30850 -10.30812
 Alpha  occ. eigenvalues --  -10.30806 -10.30722 -10.30253 -10.30094 -10.29704
 Alpha  occ. eigenvalues --  -10.29693 -10.29678 -10.29635 -10.29433 -10.29374
 Alpha  occ. eigenvalues --  -10.29236 -10.29063 -10.29046 -10.28978 -10.28924
 Alpha  occ. eigenvalues --  -10.28900 -10.28721 -10.28673 -10.28673 -10.28601
 Alpha  occ. eigenvalues --  -10.28596 -10.28361 -10.28102 -10.28076 -10.27971
 Alpha  occ. eigenvalues --  -10.27222  -3.20105  -1.93706  -1.93248  -1.93089
 Alpha  occ. eigenvalues --   -1.20034  -1.19227  -1.12447  -1.11985  -1.09456
 Alpha  occ. eigenvalues --   -1.09210  -1.08081  -1.05910  -1.05306  -1.04483
 Alpha  occ. eigenvalues --   -0.94990  -0.92865  -0.92364  -0.91254  -0.91093
 Alpha  occ. eigenvalues --   -0.90756  -0.89663  -0.89651  -0.89276  -0.89167
 Alpha  occ. eigenvalues --   -0.88265  -0.87573  -0.86452  -0.85907  -0.84876
 Alpha  occ. eigenvalues --   -0.84408  -0.83692  -0.83470  -0.83078  -0.82362
 Alpha  occ. eigenvalues --   -0.82031  -0.80279  -0.80170  -0.79346  -0.78435
 Alpha  occ. eigenvalues --   -0.78156  -0.77477  -0.77307  -0.77171  -0.76480
 Alpha  occ. eigenvalues --   -0.75864  -0.75012  -0.73796  -0.72845  -0.71211
 Alpha  occ. eigenvalues --   -0.70796  -0.70556  -0.69253  -0.68480  -0.67998
 Alpha  occ. eigenvalues --   -0.67246  -0.66669  -0.66507  -0.66301  -0.66080
 Alpha  occ. eigenvalues --   -0.65717  -0.64697  -0.64579  -0.62774  -0.62412
 Alpha  occ. eigenvalues --   -0.62059  -0.61776  -0.61178  -0.60633  -0.59989
 Alpha  occ. eigenvalues --   -0.59588  -0.59050  -0.58657  -0.58277  -0.57577
 Alpha  occ. eigenvalues --   -0.57460  -0.57104  -0.57024  -0.56777  -0.56572
 Alpha  occ. eigenvalues --   -0.56082  -0.55940  -0.55119  -0.54925  -0.54907
 Alpha  occ. eigenvalues --   -0.54532  -0.54284  -0.54149  -0.53831  -0.53555
 Alpha  occ. eigenvalues --   -0.53476  -0.53411  -0.53109  -0.52802  -0.52446
 Alpha  occ. eigenvalues --   -0.52302  -0.52130  -0.51856  -0.51701  -0.51627
 Alpha  occ. eigenvalues --   -0.51436  -0.51340  -0.51079  -0.50938  -0.50862
 Alpha  occ. eigenvalues --   -0.50686  -0.50481  -0.50291  -0.50074  -0.49668
 Alpha  occ. eigenvalues --   -0.49460  -0.49277  -0.49155  -0.48968  -0.48637
 Alpha  occ. eigenvalues --   -0.48555  -0.48149  -0.48022  -0.47879  -0.47685
 Alpha  occ. eigenvalues --   -0.47614  -0.47587  -0.47228  -0.47190  -0.46995
 Alpha  occ. eigenvalues --   -0.46911  -0.46636  -0.46578  -0.46320  -0.45947
 Alpha  occ. eigenvalues --   -0.45836  -0.45709  -0.45552  -0.45113  -0.44984
 Alpha  occ. eigenvalues --   -0.44917  -0.44612  -0.44548  -0.44330  -0.44069
 Alpha  occ. eigenvalues --   -0.43736  -0.43550  -0.43525  -0.43192  -0.43099
 Alpha  occ. eigenvalues --   -0.42787  -0.42735  -0.42629  -0.42331  -0.41986
 Alpha  occ. eigenvalues --   -0.41910  -0.41564  -0.41477  -0.40736  -0.40733
 Alpha  occ. eigenvalues --   -0.40578  -0.40012  -0.39774  -0.39718  -0.39380
 Alpha  occ. eigenvalues --   -0.38993  -0.38836  -0.38706  -0.38338  -0.38170
 Alpha  occ. eigenvalues --   -0.37660  -0.37175  -0.36792  -0.36576  -0.36404
 Alpha  occ. eigenvalues --   -0.36083  -0.36072  -0.34907  -0.33535  -0.33239
 Alpha  occ. eigenvalues --   -0.32580  -0.32497  -0.32440  -0.31541  -0.25830
 Alpha  occ. eigenvalues --   -0.23140
 Alpha virt. eigenvalues --   -0.07180   0.00660   0.02784   0.04669   0.05980
 Alpha virt. eigenvalues --    0.06674   0.07690   0.08010   0.08309   0.09207
 Alpha virt. eigenvalues --    0.10805   0.11402   0.11472   0.11641   0.12565

 Mulliken charges:
               1
     1  Mg   0.995292
     2  C   -0.005036
     3  C   -0.101898
     4  C   -0.092792
     5  C   -0.087554
     6  N   -0.339575
     7  C   -0.007444
     8  C   -0.053300
     9  C   -0.115124
    10  C    0.078300
    11  C    0.024894
    12  C    0.051188
    13  C   -0.041633
    14  C    0.240194
    15  O   -0.301796
    16  O   -0.343297
    17  N   -0.453448
    18  C    0.167743
    19  C   -0.170816
    20  C   -0.082607
    21  C    0.165851
    22  C    0.078612
    23  C    0.058494
    24  O   -0.234816
    25  C   -0.026746
    26  N   -0.428923
    27  C    0.077154
    28  C   -0.077865
    29  C   -0.060359
    30  C    0.071282
    31  C    0.038446
    32  C   -0.055180
    33  C   -0.077087
    34  N   -0.385173
    35  C    0.110831
    36  C   -0.175425
    37  C   -0.111643
    38  C    0.133168
    39  C    0.080715
    40  C    0.186862
    41  O   -0.186879
    42  C   -0.094171
    43  C    0.236440
    44  O   -0.254257
    45  O   -0.346841
    46  C    0.135902
    47  C    0.229173
    48  C   -0.155900
    49  C   -0.185001
    50  C    0.047938
    51  C    0.026469
    52  C   -0.010362
    53  C    0.022576
    54  C   -0.210385
    55  C    0.039496
    56  C    0.011335
    57  C   -0.023295
    58  C   -0.023228
    59  C   -0.185991
    60  C    0.022511
    61  C    0.045731
    62  C   -0.056787
    63  C   -0.009539
    64  C   -0.240745
    65  C    0.015816
    66  C    0.020909
    67  H   -0.017284
    68  H    0.022369
    69  H   -0.004986
    70  H    0.024647
    71  H    0.040478
    72  H    0.051164
    73  H    0.026899
    74  H    0.029928
    75  H    0.034121
    76  H    0.059213
    77  H    0.053409
    78  H    0.061382
    79  H    0.057599
    80  H    0.052315
    81  H    0.041072
    82  H    0.044673
    83  H    0.064568
    84  H    0.046428
    85  H    0.034498
    86  H    0.037642
    87  H    0.034474
    88  H    0.034820
    89  H    0.051182
    90  H    0.030077
    91  H    0.040031
    92  H    0.041528
    93  H    0.045346
    94  H    0.051330
    95  H    0.048664
    96  H    0.037345
    97  H    0.062874
    98  H    0.080768
    99  H    0.065026
   100  H    0.053000
   101  H    0.058491
   102  H    0.048643
   103  H    0.070378
   104  H    0.032246
   105  H    0.026313
   106  H    0.054958
   107  H    0.045301
   108  H    0.017761
   109  H    0.009642
   110  H    0.007207
   111  H    0.004756
   112  H    0.009529
   113  H    0.016487
   114  H    0.017472
   115  H    0.028861
   116  H    0.020267
   117  H    0.036812
   118  H    0.024049
   119  H    0.002065
   120  H    0.028764
   121  H    0.015459
   122  H    0.008124
   123  H    0.024303
   124  H    0.015893
   125  H    0.042747
   126  H    0.015037
   127  H    0.021771
   128  H    0.023334
   129  H    0.007064
   130  H    0.022881
   131  H    0.018149
   132  H    0.013385
   133  H    0.002357
   134  H    0.015951
   135  H    0.028382
   136  H    0.022019
   137  H    0.013790
   138  H    0.035319
   139  H    0.027598
   140  H    0.029432
 Sum of Mulliken charges =  -0.00000

 Dipole moment (field-independent basis, Debye):
    X=             -4.1986    Y=              3.5352    Z=             -1.4131  Tot=              5.6677
 Quadrupole moment (field-independent basis, Debye-Ang):
   XX=           -385.6193   YY=           -425.3769   ZZ=           -397.9606
   XY=             13.6568   XZ=             17.5725   YZ=             -4.8396

 Normal termination of Gaussian 16 at Thu Apr 28 16:43:43 2022.
