 Gaussian 16, Revision A.03,
 Gaussian 16:  ES64L-G16RevA.03 25-Dec-2016

 --------------------
 #p ZINDO=(nstates=5)
 --------------------

 ------------------------------
 step_1651_chromophore_10 ZINDO
 ------------------------------
 Symbolic Z-matrix:
 Charge =  0 Multiplicity = 1

                         Standard orientation:
 ---------------------------------------------------------------------
 Center     Atomic      Atomic             Coordinates (Angstroms)
 Number     Number       Type             X           Y           Z
 ---------------------------------------------------------------------
      1         12           0        6.315867    0.456674    0.103297
      2          6           0        4.074894   -2.183608    0.002117
      3          6           0        3.989945    2.334337   -1.743685
      4          6           0        8.387627    2.958983    0.076540
      5          6           0        8.637044   -1.604956    1.541390
      6          7           0        4.219058    0.159186   -0.651200
      7          6           0        3.529596   -1.012746   -0.540830
      8          6           0        2.010652   -0.858664   -0.998561
      9          6           0        2.089101    0.508984   -1.769350
     10          6           0        3.531376    1.017801   -1.473350
     11          6           0        1.612517    0.429529   -3.240825
     12          6           0        0.893851   -1.025781    0.063391
     13          6           0       -0.578101   -0.710015   -0.360932
     14          6           0       -1.731871   -1.607037    0.175049
     15          8           0       -1.580509   -2.750262    0.706685
     16          8           0       -2.938168   -1.018984   -0.101435
     17          7           0        6.130932    2.414434   -0.554039
     18          6           0        5.144020    3.023098   -1.288806
     19          6           0        5.392916    4.376972   -1.508978
     20          6           0        6.683118    4.612010   -0.889570
     21          6           0        7.155334    3.310978   -0.452117
     22          6           0        4.472939    5.291971   -2.219074
     23          6           0        7.461599    5.918733   -0.779058
     24          8           0        8.515174    6.000040   -0.167392
     25          6           0        6.811990    7.192841   -1.246439
     26          7           0        8.228280    0.642632    0.626319
     27          6           0        8.852255    1.850025    0.663275
     28          6           0       10.335523    1.708580    1.022983
     29          6           0       10.393044    0.266810    1.637313
     30          6           0        9.028955   -0.295430    1.213430
     31          6           0       11.362061    1.947136   -0.134242
     32          6           0       10.443493    0.215767    3.238876
     33          6           0        9.326529    1.010223    4.067379
     34          7           0        6.418274   -1.545209    0.592118
     35          6           0        7.404555   -2.263518    1.163565
     36          6           0        7.000958   -3.636382    1.369874
     37          6           0        5.673469   -3.614355    0.984176
     38          6           0        5.425247   -2.350946    0.400026
     39          6           0        7.786720   -4.804136    1.887577
     40          6           0        4.494795   -4.503317    0.854909
     41          8           0        4.329631   -5.667525    1.170005
     42          6           0        3.475053   -3.553854    0.229005
     43          6           0        2.948936   -4.192736   -1.014326
     44          8           0        3.573517   -4.593749   -1.994485
     45          8           0        1.618255   -4.208786   -0.926273
     46          6           0        0.768605   -4.769352   -1.972865
     47          6           0       -3.960016   -2.020005    0.136589
     48          6           0       -5.174082   -1.745428   -0.779963
     49          6           0       -6.198510   -2.550619   -1.076121
     50          6           0       -6.481984   -3.968141   -0.620665
     51          6           0       -7.213089   -1.903720   -2.067825
     52          6           0       -8.618467   -1.599480   -1.686723
     53          6           0       -9.153738   -0.176082   -1.931579
     54          6           0      -10.579182   -0.081827   -2.506780
     55          6           0      -10.587640   -0.159581   -4.029593
     56          6           0      -11.267901    1.219221   -1.971962
     57          6           0      -12.808091    1.070337   -2.001659
     58          6           0      -13.528622    0.407829   -0.757798
     59          6           0      -14.290878    1.326016    0.220529
     60          6           0      -15.512058    2.035961   -0.348618
     61          6           0      -13.460438    2.330400    0.906094
     62          6           0      -12.557929    1.677594    1.925318
     63          6           0      -12.520076    2.380756    3.316314
     64          6           0      -13.250510    1.588734    4.482015
     65          6           0      -14.699154    1.965704    4.436755
     66          6           0      -12.646019    1.591443    5.881802
     67          1           0        3.254773    2.933670   -2.285150
     68          1           0        9.128860    3.758604    0.135823
     69          1           0        9.360602   -2.165374    2.136935
     70          1           0        1.826220   -1.676317   -1.695053
     71          1           0        1.381817    1.181782   -1.284807
     72          1           0        2.425187    0.798274   -3.867418
     73          1           0        0.661110    0.936905   -3.394808
     74          1           0        1.278445   -0.573801   -3.507979
     75          1           0        1.171957   -0.397288    0.909109
     76          1           0        0.863683   -2.070031    0.372803
     77          1           0       -0.770301   -0.794690   -1.430284
     78          1           0       -0.824797    0.322127   -0.111534
     79          1           0        5.016791    5.602748   -3.111332
     80          1           0        4.327057    6.155370   -1.569466
     81          1           0        3.509615    4.893412   -2.537840
     82          1           0        7.475970    8.056690   -1.250684
     83          1           0        6.107485    7.422653   -0.448413
     84          1           0        6.355082    7.201458   -2.236313
     85          1           0       10.595352    2.379890    1.841250
     86          1           0       11.235446   -0.283618    1.218306
     87          1           0       10.827624    2.464052   -0.931758
     88          1           0       11.649017    1.005802   -0.602891
     89          1           0       12.188517    2.580839    0.186274
     90          1           0       11.314453    0.751834    3.615964
     91          1           0       10.549762   -0.798815    3.624009
     92          1           0        9.066804    0.455637    4.969527
     93          1           0        8.447013    0.994865    3.423892
     94          1           0        9.626770    2.019063    4.347730
     95          1           0        7.078166   -5.488765    2.353429
     96          1           0        8.489749   -4.518761    2.670161
     97          1           0        8.228973   -5.416970    1.102157
     98          1           0        2.610268   -3.566218    0.891009
     99          1           0        1.362559   -4.896176   -2.877616
    100          1           0       -0.143053   -4.194152   -2.132835
    101          1           0        0.421310   -5.757211   -1.667865
    102          1           0       -4.245560   -1.828030    1.170213
    103          1           0       -3.762890   -3.090690    0.080832
    104          1           0       -5.031878   -0.832032   -1.356931
    105          1           0       -5.729994   -4.242517    0.118995
    106          1           0       -6.462312   -4.689976   -1.437798
    107          1           0       -7.437800   -4.036688   -0.102111
    108          1           0       -7.263719   -2.588563   -2.913232
    109          1           0       -6.820312   -0.964860   -2.457568
    110          1           0       -8.781558   -1.948682   -0.667459
    111          1           0       -9.236631   -2.381765   -2.126870
    112          1           0       -8.501355    0.389230   -2.596414
    113          1           0       -9.166425    0.362300   -0.984023
    114          1           0      -11.026813   -0.947344   -2.018134
    115          1           0      -10.559169   -1.205872   -4.334738
    116          1           0       -9.669015    0.259797   -4.437454
    117          1           0      -11.457188    0.377822   -4.407665
    118          1           0      -10.854890    2.104568   -2.455112
    119          1           0      -11.019912    1.366024   -0.921097
    120          1           0      -13.247711    0.502457   -2.821463
    121          1           0      -13.227479    2.072641   -1.906910
    122          1           0      -12.705357   -0.087539   -0.241235
    123          1           0      -14.262117   -0.354442   -1.021381
    124          1           0      -14.583658    0.589992    0.969032
    125          1           0      -16.431822    1.875227    0.213098
    126          1           0      -15.676144    1.749951   -1.387246
    127          1           0      -15.316345    3.103932   -0.442083
    128          1           0      -13.922055    3.242651    1.283384
    129          1           0      -12.704822    2.716026    0.220911
    130          1           0      -11.494296    1.693510    1.688314
    131          1           0      -12.781278    0.613914    2.007522
    132          1           0      -12.905136    3.393453    3.189489
    133          1           0      -11.496961    2.528760    3.661926
    134          1           0      -13.249130    0.559987    4.119947
    135          1           0      -15.093786    2.387778    5.360555
    136          1           0      -15.255344    1.068866    4.164592
    137          1           0      -14.825296    2.654494    3.601562
    138          1           0      -12.189217    0.603181    5.926589
    139          1           0      -13.338105    1.706741    6.716359
    140          1           0      -11.956392    2.432604    5.956490
 ---------------------------------------------------------------------

 SCF Done:  E(RZINDO/S) =  -474.586070431     A.U. after   19 cycles

 Excitation energies and oscillator strengths:

 Excited State   1:      Singlet-A      1.2576 eV  985.84 nm  f=0.5999  <S**2>=0.000
     175 ->178        -0.18967
     176 ->177         0.66398
 This state for optimization and/or second-order correction.
 Total Energy, E(CIS/TDA) =  -474.539852863
 Copying the excited state density for this state as the 1-particle RhoCI density.

 Excited State   2:      Singlet-A      1.9138 eV  647.83 nm  f=0.0850  <S**2>=0.000
     175 ->177         0.57010
     176 ->178         0.39074

 Excited State   3:      Singlet-A      2.9722 eV  417.14 nm  f=0.0055  <S**2>=0.000
     168 ->177         0.32150
     168 ->178        -0.14381
     168 ->179        -0.35566
     168 ->181         0.25725
     168 ->186        -0.18411
     168 ->197         0.10244
     171 ->177        -0.19337
     171 ->179         0.11789

 Excited State   4:      Singlet-A      3.0336 eV  408.70 nm  f=0.0225  <S**2>=0.000
     169 ->177         0.24153
     169 ->178        -0.10537
     169 ->179         0.29155
     169 ->181         0.32796
     169 ->186         0.20080
     169 ->187         0.16155
     170 ->177         0.13271
     170 ->179         0.16296
     170 ->181         0.17221
     170 ->186         0.10590
     174 ->177        -0.10410

 Excited State   5:      Singlet-A      3.0766 eV  402.99 nm  f=1.0869  <S**2>=0.000
     175 ->177        -0.34543
     176 ->178         0.53722
     176 ->179         0.15974

 The electronic state is 1-A.
 Alpha  occ. eigenvalues --   -1.88064  -1.83209  -1.79788  -1.74391  -1.73933
 Alpha  occ. eigenvalues --   -1.70618  -1.68753  -1.61957  -1.59535  -1.58444
 Alpha  occ. eigenvalues --   -1.55928  -1.51503  -1.48908  -1.47777  -1.45374
 Alpha  occ. eigenvalues --   -1.43919  -1.42775  -1.40816  -1.38947  -1.37884
 Alpha  occ. eigenvalues --   -1.35679  -1.33802  -1.33504  -1.31396  -1.28955
 Alpha  occ. eigenvalues --   -1.27551  -1.25594  -1.22300  -1.21278  -1.19115
 Alpha  occ. eigenvalues --   -1.18141  -1.16399  -1.16234  -1.15254  -1.13700
 Alpha  occ. eigenvalues --   -1.13130  -1.12338  -1.10507  -1.06065  -1.04916
 Alpha  occ. eigenvalues --   -1.04184  -1.01511  -1.00890  -0.98143  -0.97442
 Alpha  occ. eigenvalues --   -0.95765  -0.94171  -0.93548  -0.93335  -0.92057
 Alpha  occ. eigenvalues --   -0.90210  -0.89890  -0.88209  -0.87199  -0.85914
 Alpha  occ. eigenvalues --   -0.85042  -0.83129  -0.82665  -0.82313  -0.80863
 Alpha  occ. eigenvalues --   -0.80144  -0.79689  -0.78872  -0.77456  -0.76295
 Alpha  occ. eigenvalues --   -0.75954  -0.74886  -0.74678  -0.73924  -0.73802
 Alpha  occ. eigenvalues --   -0.73387  -0.72374  -0.72101  -0.71233  -0.70818
 Alpha  occ. eigenvalues --   -0.69882  -0.69141  -0.68873  -0.68217  -0.67923
 Alpha  occ. eigenvalues --   -0.67834  -0.67040  -0.66606  -0.66178  -0.65896
 Alpha  occ. eigenvalues --   -0.65395  -0.64964  -0.63885  -0.63870  -0.63434
 Alpha  occ. eigenvalues --   -0.63206  -0.63011  -0.62657  -0.61949  -0.61535
 Alpha  occ. eigenvalues --   -0.61395  -0.61190  -0.60619  -0.60074  -0.59986
 Alpha  occ. eigenvalues --   -0.59892  -0.59464  -0.58834  -0.58410  -0.58146
 Alpha  occ. eigenvalues --   -0.57975  -0.57644  -0.57112  -0.56938  -0.56758
 Alpha  occ. eigenvalues --   -0.56243  -0.55977  -0.55370  -0.55179  -0.54993
 Alpha  occ. eigenvalues --   -0.54731  -0.54004  -0.53582  -0.53252  -0.53111
 Alpha  occ. eigenvalues --   -0.52842  -0.52567  -0.51977  -0.51676  -0.51564
 Alpha  occ. eigenvalues --   -0.51352  -0.50938  -0.50594  -0.49942  -0.49733
 Alpha  occ. eigenvalues --   -0.49684  -0.49318  -0.49239  -0.49198  -0.48716
 Alpha  occ. eigenvalues --   -0.48641  -0.48078  -0.47988  -0.47793  -0.47623
 Alpha  occ. eigenvalues --   -0.47344  -0.47140  -0.46918  -0.46516  -0.46461
 Alpha  occ. eigenvalues --   -0.46210  -0.45964  -0.45789  -0.45629  -0.45232
 Alpha  occ. eigenvalues --   -0.45164  -0.44976  -0.44481  -0.44214  -0.43857
 Alpha  occ. eigenvalues --   -0.42983  -0.42788  -0.42622  -0.42111  -0.42038
 Alpha  occ. eigenvalues --   -0.41581  -0.41552  -0.41067  -0.39082  -0.38978
 Alpha  occ. eigenvalues --   -0.38005  -0.37302  -0.35345  -0.34758  -0.34468
 Alpha  occ. eigenvalues --   -0.33622  -0.32792  -0.32761  -0.31956  -0.26660
 Alpha  occ. eigenvalues --   -0.22115
 Alpha virt. eigenvalues --   -0.08801  -0.01885  -0.00268   0.00718   0.01603
 Alpha virt. eigenvalues --    0.02683   0.02997   0.03441   0.04752   0.04962
 Alpha virt. eigenvalues --    0.06132   0.06660   0.07343   0.07815   0.08144

 Mulliken charges:
               1
     1  Mg   0.426144
     2  C   -0.044256
     3  C   -0.069509
     4  C   -0.045517
     5  C   -0.083319
     6  N   -0.275842
     7  C    0.127215
     8  C   -0.004686
     9  C    0.004945
    10  C    0.099941
    11  C   -0.053876
    12  C   -0.017968
    13  C    0.006057
    14  C    0.461544
    15  O   -0.534087
    16  O   -0.248098
    17  N   -0.331280
    18  C    0.098566
    19  C    0.004794
    20  C   -0.069575
    21  C    0.140023
    22  C   -0.038461
    23  C    0.328064
    24  O   -0.529521
    25  C   -0.031874
    26  N   -0.269766
    27  C    0.123392
    28  C    0.000706
    29  C    0.001580
    30  C    0.145809
    31  C   -0.051592
    32  C   -0.039125
    33  C   -0.059696
    34  N   -0.296250
    35  C    0.112703
    36  C    0.041002
    37  C   -0.052541
    38  C    0.128633
    39  C   -0.036418
    40  C    0.337771
    41  O   -0.501067
    42  C    0.063935
    43  C    0.495268
    44  O   -0.536302
    45  O   -0.266627
    46  C    0.074114
    47  C    0.097134
    48  C   -0.091245
    49  C   -0.008596
    50  C   -0.035764
    51  C   -0.025079
    52  C   -0.029745
    53  C   -0.032584
    54  C   -0.013488
    55  C   -0.051667
    56  C   -0.030283
    57  C   -0.044881
    58  C   -0.037794
    59  C    0.003985
    60  C   -0.056898
    61  C   -0.024837
    62  C   -0.040054
    63  C   -0.038862
    64  C   -0.015237
    65  C   -0.057428
    66  C   -0.054430
    67  H    0.019581
    68  H    0.033579
    69  H    0.027218
    70  H    0.028437
    71  H    0.023739
    72  H    0.031944
    73  H    0.017465
    74  H    0.021305
    75  H    0.025594
    76  H    0.037134
    77  H    0.045035
    78  H    0.037398
    79  H    0.028870
    80  H    0.028608
    81  H    0.028593
    82  H    0.029275
    83  H    0.041022
    84  H    0.031611
    85  H    0.027902
    86  H    0.034748
    87  H    0.021545
    88  H    0.023662
    89  H    0.030437
    90  H    0.009868
    91  H    0.024737
    92  H    0.018943
    93  H    0.023932
    94  H    0.030176
    95  H    0.029614
    96  H    0.026377
    97  H    0.043782
    98  H    0.055627
    99  H    0.050174
   100  H    0.038009
   101  H    0.038617
   102  H    0.040021
   103  H    0.066715
   104  H    0.032381
   105  H    0.019577
   106  H    0.035268
   107  H    0.028796
   108  H    0.014586
   109  H    0.017070
   110  H    0.013295
   111  H    0.011486
   112  H    0.017718
   113  H    0.015047
   114  H    0.022612
   115  H    0.017270
   116  H    0.019878
   117  H    0.022871
   118  H    0.024744
   119  H    0.015436
   120  H    0.026609
   121  H    0.015447
   122  H    0.012733
   123  H    0.015942
   124  H    0.012910
   125  H    0.023192
   126  H    0.010966
   127  H    0.016035
   128  H    0.026900
   129  H    0.010282
   130  H    0.011659
   131  H    0.020614
   132  H    0.018956
   133  H    0.005925
   134  H    0.012471
   135  H    0.021373
   136  H    0.011927
   137  H    0.015950
   138  H    0.021091
   139  H    0.021572
   140  H    0.020916
 Sum of Mulliken charges =  -0.00000

 Dipole moment (field-independent basis, Debye):
    X=             -4.7406    Y=              4.3994    Z=             -1.9172  Tot=              6.7457
 N-N= 4.202781066773D+03 E-N= 0.000000000000D+00  KE=-9.080078458865D+03
 Leave Link  601 at Thu Apr 28 17:01:39 2022, MaxMem=  6710886400 cpu:               1.0 elap:               0.1
 (Enter /sw/apps/gaussian-16.0/g16/l9999.exe)
 1\1\GINC-BP1-COMPUTE191\SP\RZINDO CIS\STO-3G\C55H74Mg1N4O6\OF15641\28-
 Apr-2022\0\\#p ZINDO=(nstates=5)\\step_1651_chromophore_10 ZINDO\\0,1\
 Mg,0,42.068,7.787,28.858\C,0,43.719,9.212,31.55\C,0,40.113,6.,31.167\C
 ,0,40.52,6.339,26.396\C,0,44.301,9.276,26.736\N,0,41.842,7.727,31.094\
 C,0,42.634,8.425,31.958\C,0,42.113,8.325,33.461\C,0,41.124,7.11,33.333
 \C,0,41.068,6.839,31.8\C,0,41.446,5.934,34.288\C,0,41.592,9.61,34.154\
 C,0,40.932,9.469,35.565\C,0,41.202,10.56,36.642\O,0,42.133,11.422,36.5

 Normal termination of Gaussian 16 at Thu Apr 28 17:01:39 2022.
