 Gaussian 16, Revision A.03,
 Gaussian 16:  ES64L-G16RevA.03 25-Dec-2016

 ------------------------------
 #p blyp/Def2SVP td=(nstates=5)
 ------------------------------

 ------------------------------------------------
 step_51_chromophore_6 TDDFT with blyp functional
 ------------------------------------------------
 Symbolic Z-matrix:
 Charge =  0 Multiplicity = 1

                         Standard orientation:
 ---------------------------------------------------------------------
 Center     Atomic      Atomic             Coordinates (Angstroms)
 Number     Number       Type             X           Y           Z
 ---------------------------------------------------------------------
      1         12           0        5.459360    1.220982    0.039214
      2          6           0        4.563242   -2.345995    0.058172
      3          6           0        2.013108    1.766965    0.083234
      4          6           0        6.168803    4.319744   -0.183154
      5          6           0        8.715728    0.290414   -0.384068
      6          7           0        3.508538   -0.235780    0.060699
      7          6           0        3.467116   -1.548480    0.165636
      8          6           0        2.030081   -1.997068    0.259031
      9          6           0        1.142326   -0.697133    0.164841
     10          6           0        2.252747    0.401648    0.141096
     11          6           0        0.152715   -0.715668   -1.000317
     12          6           0        1.827237   -2.736923    1.583323
     13          6           0        0.750069   -3.739254    1.687179
     14          6           0       -0.292251   -3.886738    0.494969
     15          8           0       -0.072059   -4.453272   -0.615800
     16          8           0       -1.446840   -3.313636    0.821401
     17          7           0        4.248800    2.812365    0.009623
     18          6           0        2.879417    2.892211    0.008483
     19          6           0        2.454666    4.288341    0.038371
     20          6           0        3.652927    5.089776    0.044487
     21          6           0        4.760769    4.113964   -0.028896
     22          6           0        1.004592    4.743113    0.250071
     23          6           0        3.850825    6.624784    0.008082
     24          8           0        4.943656    7.194268   -0.198652
     25          6           0        2.679819    7.466175    0.217756
     26          7           0        7.197476    2.165213   -0.499064
     27          6           0        7.271082    3.506294   -0.348784
     28          6           0        8.730110    3.995772   -0.475484
     29          6           0        9.513789    2.720714   -0.008716
     30          6           0        8.454072    1.653637   -0.318885
     31          6           0        9.129359    4.619010   -1.831775
     32          6           0        9.774520    2.592675    1.575609
     33          6           0       11.074344    1.782634    1.998461
     34          7           0        6.454622   -0.567564   -0.155691
     35          6           0        7.818188   -0.800070   -0.253546
     36          6           0        8.117666   -2.223180   -0.292785
     37          6           0        6.876150   -2.828991   -0.224810
     38          6           0        5.872104   -1.848704   -0.142516
     39          6           0        9.466380   -2.921380   -0.464762
     40          6           0        6.233857   -4.197790   -0.169150
     41          8           0        6.711787   -5.355964   -0.193137
     42          6           0        4.772486   -3.882969   -0.025246
     43          6           0        4.042635   -4.643094   -1.126072
     44          8           0        4.183350   -4.394409   -2.354143
     45          8           0        3.205975   -5.612926   -0.560154
     46          6           0        2.430318   -6.315642   -1.620298
     47          6           0       -2.609647   -3.369815   -0.131410
     48          6           0       -3.975480   -3.224650    0.595959
     49          6           0       -5.175590   -3.727037    0.415773
     50          6           0       -5.496348   -4.837812   -0.596976
     51          6           0       -6.203297   -3.479529    1.512876
     52          6           0       -7.200091   -2.392570    1.147665
     53          6           0       -7.063945   -1.155952    2.035404
     54          6           0       -7.342352    0.095257    1.177079
     55          6           0       -6.711369    1.278754    1.971657
     56          6           0       -8.870032    0.345153    1.114531
     57          6           0       -9.455364    0.387824   -0.280245
     58          6           0      -10.896376   -0.340711   -0.369922
     59          6           0      -12.193449    0.639338   -0.148270
     60          6           0      -12.692776    0.442827    1.212664
     61          6           0      -13.321325    0.319544   -1.218682
     62          6           0      -13.826216    1.497806   -2.062688
     63          6           0      -15.326647    1.918055   -1.799681
     64          6           0      -15.370628    2.849891   -0.565644
     65          6           0      -14.905936    4.299674   -0.821617
     66          6           0      -16.813137    2.846345   -0.007706
     67          1           0        0.937228    1.936996    0.155830
     68          1           0        6.433997    5.377779   -0.235807
     69          1           0        9.758710   -0.032115   -0.400672
     70          1           0        1.957189   -2.683054   -0.584531
     71          1           0        0.559148   -0.501678    1.065086
     72          1           0        0.340191    0.135280   -1.654930
     73          1           0       -0.809676   -0.568082   -0.509535
     74          1           0        0.045336   -1.653319   -1.546550
     75          1           0        1.588223   -1.990384    2.341557
     76          1           0        2.797310   -3.183375    1.801157
     77          1           0        0.187047   -3.657178    2.616286
     78          1           0        1.252515   -4.706987    1.666684
     79          1           0        0.881809    5.098770    1.273309
     80          1           0        0.350161    3.871787    0.207869
     81          1           0        0.719690    5.528803   -0.448669
     82          1           0        2.174038    7.165488    1.134669
     83          1           0        1.964367    7.380219   -0.599303
     84          1           0        2.978037    8.509125    0.324968
     85          1           0        8.851670    4.764327    0.287061
     86          1           0       10.429012    2.586565   -0.584348
     87          1           0        9.923264    3.951560   -2.166664
     88          1           0        9.393752    5.666946   -1.691959
     89          1           0        8.331704    4.494245   -2.564580
     90          1           0        8.906561    2.068399    1.975228
     91          1           0        9.851337    3.590566    2.005105
     92          1           0       11.874163    2.512731    2.121814
     93          1           0       11.424282    1.013098    1.310974
     94          1           0       10.849554    1.132058    2.844672
     95          1           0       10.285567   -2.356991   -0.019571
     96          1           0        9.687170   -2.920827   -1.532621
     97          1           0        9.379292   -3.932875   -0.067724
     98          1           0        4.444539   -4.346792    0.904748
     99          1           0        2.879464   -7.241422   -1.980935
    100          1           0        2.362727   -5.684291   -2.506132
    101          1           0        1.444353   -6.573204   -1.233904
    102          1           0       -2.674397   -4.379910   -0.534745
    103          1           0       -2.588286   -2.672164   -0.968594
    104          1           0       -3.901837   -2.544555    1.445065
    105          1           0       -6.014576   -4.318067   -1.403628
    106          1           0       -6.162073   -5.576458   -0.150207
    107          1           0       -4.557591   -5.250876   -0.964212
    108          1           0       -5.654226   -3.187860    2.407612
    109          1           0       -6.629078   -4.470185    1.672211
    110          1           0       -8.169188   -2.794644    1.442813
    111          1           0       -7.339852   -2.168881    0.089929
    112          1           0       -6.058916   -1.108522    2.454507
    113          1           0       -7.640546   -1.189675    2.959298
    114          1           0       -6.808340   -0.022661    0.233662
    115          1           0       -6.751607    2.211909    1.410156
    116          1           0       -5.624718    1.186796    1.961972
    117          1           0       -7.104843    1.303068    2.987959
    118          1           0       -9.100054    1.310762    1.564459
    119          1           0       -9.389162   -0.469995    1.618347
    120          1           0       -8.858767   -0.067420   -1.070348
    121          1           0       -9.509802    1.465321   -0.434864
    122          1           0      -10.929673   -1.156501    0.351301
    123          1           0      -11.024865   -0.736172   -1.377787
    124          1           0      -11.900236    1.689400   -0.169900
    125          1           0      -13.749496    0.176820    1.256795
    126          1           0      -12.634349    1.375388    1.772563
    127          1           0      -12.261944   -0.372577    1.793695
    128          1           0      -14.155747   -0.244564   -0.800630
    129          1           0      -12.998085   -0.464302   -1.902786
    130          1           0      -13.844656    1.125435   -3.087260
    131          1           0      -13.117478    2.308059   -1.888372
    132          1           0      -15.898329    1.008578   -1.615682
    133          1           0      -15.590316    2.521768   -2.668479
    134          1           0      -14.741459    2.470216    0.238438
    135          1           0      -14.767553    4.510070   -1.881550
    136          1           0      -13.881530    4.415757   -0.469098
    137          1           0      -15.596604    5.026628   -0.392222
    138          1           0      -16.712205    2.501655    1.020706
    139          1           0      -17.488298    2.102467   -0.430247
    140          1           0      -17.394312    3.762709   -0.116976
 ---------------------------------------------------------------------

 SCF Done:  E(RB-LYP) =  -3007.36378081     A.U. after   21 cycles

 Excitation energies and oscillator strengths:

 Excited State   1:      Singlet-A      1.8322 eV  676.68 nm  f=0.3050  <S**2>=0.000
     245 -> 248        0.16326
     245 -> 249       -0.10822
     246 -> 247        0.68097
     246 <- 247       -0.14502
 This state for optimization and/or second-order correction.
 Total Energy, E(TD-HF/TD-DFT) =  -3007.29644727
 Copying the excited state density for this state as the 1-particle RhoCI density.

 Excited State   2:      Singlet-A      2.0007 eV  619.71 nm  f=0.0753  <S**2>=0.000
     244 -> 247       -0.34683
     245 -> 247        0.56707
     246 -> 247       -0.10083
     246 -> 248       -0.17109

 Excited State   3:      Singlet-A      2.0438 eV  606.64 nm  f=0.0271  <S**2>=0.000
     244 -> 247        0.60747
     245 -> 247        0.32434
     246 -> 248       -0.10069

 Excited State   4:      Singlet-A      2.0970 eV  591.24 nm  f=0.0021  <S**2>=0.000
     243 -> 247        0.70355

 Excited State   5:      Singlet-A      2.5935 eV  478.05 nm  f=0.0002  <S**2>=0.000
     240 -> 247       -0.15443
     241 -> 247       -0.15322
     242 -> 247        0.66333

 The electronic state is 1-A.
 Alpha  occ. eigenvalues --  -46.26468 -18.84172 -18.82412 -18.77186 -18.76658
 Alpha  occ. eigenvalues --  -18.76119 -18.75682 -14.02623 -14.02199 -14.01312
 Alpha  occ. eigenvalues --  -14.00714 -10.05284 -10.04114 -10.00094 -10.00037
 Alpha  occ. eigenvalues --   -9.99599  -9.96352  -9.96191  -9.96174  -9.95881
 Alpha  occ. eigenvalues --   -9.95829  -9.95811  -9.95660  -9.95457  -9.94625
 Alpha  occ. eigenvalues --   -9.94285  -9.94245  -9.94230  -9.93850  -9.93689
 Alpha  occ. eigenvalues --   -9.93624  -9.93543  -9.93473  -9.93439  -9.93403
 Alpha  occ. eigenvalues --   -9.93217  -9.93216  -9.93103  -9.93067  -9.92961
 Alpha  occ. eigenvalues --   -9.92919  -9.92502  -9.92424  -9.92380  -9.92290
 Alpha  occ. eigenvalues --   -9.92258  -9.92248  -9.92238  -9.92232  -9.91902
 Alpha  occ. eigenvalues --   -9.91855  -9.91849  -9.91814  -9.91810  -9.91669
 Alpha  occ. eigenvalues --   -9.91537  -9.91344  -9.91333  -9.91105  -9.91103
 Alpha  occ. eigenvalues --   -9.91099  -9.91094  -9.90919  -9.90899  -9.90357
 Alpha  occ. eigenvalues --   -9.90198  -2.91284  -1.71689  -1.71201  -1.70984
 Alpha  occ. eigenvalues --   -0.98848  -0.95741  -0.90318  -0.89983  -0.88706
 Alpha  occ. eigenvalues --   -0.88013  -0.86445  -0.85523  -0.84583  -0.84092
 Alpha  occ. eigenvalues --   -0.75311  -0.74694  -0.73322  -0.72993  -0.72407
 Alpha  occ. eigenvalues --   -0.71787  -0.71308  -0.70860  -0.70839  -0.70015
 Alpha  occ. eigenvalues --   -0.69316  -0.69247  -0.68451  -0.67266  -0.67020
 Alpha  occ. eigenvalues --   -0.66575  -0.66088  -0.65806  -0.64971  -0.64652
 Alpha  occ. eigenvalues --   -0.64348  -0.62457  -0.62389  -0.61645  -0.61216
 Alpha  occ. eigenvalues --   -0.60340  -0.60196  -0.59904  -0.59555  -0.59040
 Alpha  occ. eigenvalues --   -0.58635  -0.57595  -0.56557  -0.55467  -0.54548
 Alpha  occ. eigenvalues --   -0.53684  -0.53347  -0.52603  -0.52336  -0.51516
 Alpha  occ. eigenvalues --   -0.51432  -0.51277  -0.50706  -0.50464  -0.50249
 Alpha  occ. eigenvalues --   -0.50031  -0.50009  -0.48746  -0.47733  -0.46399
 Alpha  occ. eigenvalues --   -0.46208  -0.45642  -0.45477  -0.45050  -0.44432
 Alpha  occ. eigenvalues --   -0.43946  -0.43234  -0.42957  -0.42780  -0.42576
 Alpha  occ. eigenvalues --   -0.41947  -0.41712  -0.41633  -0.41370  -0.41160
 Alpha  occ. eigenvalues --   -0.40816  -0.40688  -0.40416  -0.40354  -0.40013
 Alpha  occ. eigenvalues --   -0.39989  -0.39690  -0.39629  -0.39390  -0.39298
 Alpha  occ. eigenvalues --   -0.38824  -0.38560  -0.38461  -0.38233  -0.38094
 Alpha  occ. eigenvalues --   -0.37905  -0.37821  -0.37634  -0.37520  -0.37404
 Alpha  occ. eigenvalues --   -0.37045  -0.37003  -0.36893  -0.36642  -0.36539
 Alpha  occ. eigenvalues --   -0.36198  -0.36094  -0.36028  -0.35820  -0.35577
 Alpha  occ. eigenvalues --   -0.35418  -0.35155  -0.34795  -0.34731  -0.34643
 Alpha  occ. eigenvalues --   -0.34506  -0.34329  -0.34167  -0.33994  -0.33863
 Alpha  occ. eigenvalues --   -0.33815  -0.33583  -0.33479  -0.33377  -0.32903
 Alpha  occ. eigenvalues --   -0.32812  -0.32544  -0.32504  -0.32249  -0.32129
 Alpha  occ. eigenvalues --   -0.32052  -0.31818  -0.31745  -0.31640  -0.31486
 Alpha  occ. eigenvalues --   -0.31264  -0.31158  -0.31079  -0.30874  -0.30470
 Alpha  occ. eigenvalues --   -0.30300  -0.29954  -0.29838  -0.29754  -0.29741
 Alpha  occ. eigenvalues --   -0.29655  -0.29583  -0.29528  -0.29490  -0.28992
 Alpha  occ. eigenvalues --   -0.28524  -0.28393  -0.28374  -0.28115  -0.27880
 Alpha  occ. eigenvalues --   -0.27797  -0.27178  -0.27113  -0.26804  -0.26626
 Alpha  occ. eigenvalues --   -0.26402  -0.26350  -0.26127  -0.25817  -0.25256
 Alpha  occ. eigenvalues --   -0.24889  -0.24508  -0.24004  -0.23666  -0.23485
 Alpha  occ. eigenvalues --   -0.22729  -0.22270  -0.21892  -0.21562  -0.21270
 Alpha  occ. eigenvalues --   -0.20862  -0.20408  -0.19032  -0.18829  -0.17101
 Alpha  occ. eigenvalues --   -0.15821
 Alpha virt. eigenvalues --   -0.11452  -0.06714  -0.06039  -0.04895  -0.03877
 Alpha virt. eigenvalues --   -0.03217  -0.02193  -0.01814  -0.01336   0.00340
 Alpha virt. eigenvalues --    0.01815   0.02062   0.02127   0.02247   0.02518

 Mulliken charges:
               1
     1  Mg   0.694115
     2  C    0.042540
     3  C   -0.035882
     4  C   -0.016197
     5  C   -0.065105
     6  N   -0.154618
     7  C   -0.135553
     8  C    0.007023
     9  C    0.023690
    10  C   -0.053915
    11  C    0.126760
    12  C    0.109261
    13  C    0.180421
    14  C    0.074734
    15  O   -0.240871
    16  O   -0.246056
    17  N   -0.335477
    18  C    0.173767
    19  C   -0.158529
    20  C    0.032018
    21  C    0.089799
    22  C    0.169777
    23  C   -0.055037
    24  O   -0.180921
    25  C    0.142753
    26  N   -0.248811
    27  C    0.020211
    28  C    0.007405
    29  C    0.008047
    30  C    0.045094
    31  C    0.178320
    32  C    0.088780
    33  C    0.055066
    34  N   -0.290559
    35  C    0.101112
    36  C   -0.188257
    37  C    0.042124
    38  C    0.085159
    39  C    0.179428
    40  C    0.001930
    41  O   -0.152976
    42  C    0.109352
    43  C    0.137990
    44  O   -0.212696
    45  O   -0.279637
    46  C    0.208493
    47  C    0.327050
    48  C   -0.139077
    49  C   -0.171852
    50  C    0.153344
    51  C    0.141134
    52  C    0.128017
    53  C    0.065766
    54  C   -0.077261
    55  C    0.104737
    56  C    0.142077
    57  C    0.049553
    58  C    0.078162
    59  C   -0.064485
    60  C    0.120797
    61  C    0.104497
    62  C    0.073508
    63  C    0.120150
    64  C   -0.111781
    65  C    0.112006
    66  C    0.101054
    67  H   -0.075145
    68  H   -0.053859
    69  H   -0.075343
    70  H    0.005556
    71  H   -0.025474
    72  H   -0.007345
    73  H   -0.023573
    74  H    0.016829
    75  H   -0.028229
    76  H   -0.026242
    77  H   -0.012652
    78  H   -0.004093
    79  H    0.007346
    80  H   -0.020042
    81  H    0.003685
    82  H   -0.000044
    83  H    0.013198
    84  H   -0.007216
    85  H   -0.039799
    86  H   -0.031383
    87  H   -0.020388
    88  H    0.013110
    89  H   -0.002889
    90  H   -0.002666
    91  H   -0.009593
    92  H    0.006998
    93  H   -0.015482
    94  H   -0.004262
    95  H   -0.014091
    96  H    0.007992
    97  H    0.020344
    98  H   -0.002372
    99  H    0.006832
   100  H    0.022095
   101  H    0.020980
   102  H   -0.003918
   103  H    0.028308
   104  H   -0.034795
   105  H    0.000929
   106  H   -0.000420
   107  H   -0.008123
   108  H   -0.024858
   109  H   -0.033478
   110  H   -0.042881
   111  H   -0.019060
   112  H   -0.049760
   113  H   -0.033493
   114  H   -0.032544
   115  H   -0.030367
   116  H   -0.035044
   117  H   -0.003599
   118  H   -0.030425
   119  H   -0.031777
   120  H   -0.025445
   121  H   -0.028616
   122  H   -0.023315
   123  H   -0.034588
   124  H   -0.029442
   125  H   -0.030660
   126  H   -0.021263
   127  H   -0.025785
   128  H   -0.052211
   129  H   -0.050257
   130  H   -0.037234
   131  H   -0.033027
   132  H   -0.023471
   133  H   -0.027793
   134  H   -0.033066
   135  H   -0.026044
   136  H   -0.021432
   137  H   -0.006734
   138  H   -0.020281
   139  H   -0.033504
   140  H   -0.014780
 Sum of Mulliken charges =  -0.00000

 Dipole moment (field-independent basis, Debye):
    X=             -5.0602    Y=              2.1503    Z=              3.5259  Tot=              6.5316
 Quadrupole moment (field-independent basis, Debye-Ang):
   XX=           -379.7231   YY=           -437.7239   ZZ=           -408.8337
   XY=             31.2892   XZ=             16.1386   YZ=             -4.9214

 Normal termination of Gaussian 16 at Sat Apr 30 02:17:09 2022.
