 Gaussian 16, Revision A.03,
 Gaussian 16:  ES64L-G16RevA.03 25-Dec-2016

 -----------------------------------
 #p cam-b3lyp/Def2SVP td=(nstates=5)
 -----------------------------------

 -----------------------------------------------------
 step_51_chromophore_6 TDDFT with cam-b3lyp functional
 -----------------------------------------------------
 Symbolic Z-matrix:
 Charge =  0 Multiplicity = 1

                         Standard orientation:
 ---------------------------------------------------------------------
 Center     Atomic      Atomic             Coordinates (Angstroms)
 Number     Number       Type             X           Y           Z
 ---------------------------------------------------------------------
      1         12           0        5.459360    1.220982    0.039214
      2          6           0        4.563242   -2.345995    0.058172
      3          6           0        2.013108    1.766965    0.083234
      4          6           0        6.168803    4.319744   -0.183154
      5          6           0        8.715728    0.290414   -0.384068
      6          7           0        3.508538   -0.235780    0.060699
      7          6           0        3.467116   -1.548480    0.165636
      8          6           0        2.030081   -1.997068    0.259031
      9          6           0        1.142326   -0.697133    0.164841
     10          6           0        2.252747    0.401648    0.141096
     11          6           0        0.152715   -0.715668   -1.000317
     12          6           0        1.827237   -2.736923    1.583323
     13          6           0        0.750069   -3.739254    1.687179
     14          6           0       -0.292251   -3.886738    0.494969
     15          8           0       -0.072059   -4.453272   -0.615800
     16          8           0       -1.446840   -3.313636    0.821401
     17          7           0        4.248800    2.812365    0.009623
     18          6           0        2.879417    2.892211    0.008483
     19          6           0        2.454666    4.288341    0.038371
     20          6           0        3.652927    5.089776    0.044487
     21          6           0        4.760769    4.113964   -0.028896
     22          6           0        1.004592    4.743113    0.250071
     23          6           0        3.850825    6.624784    0.008082
     24          8           0        4.943656    7.194268   -0.198652
     25          6           0        2.679819    7.466175    0.217756
     26          7           0        7.197476    2.165213   -0.499064
     27          6           0        7.271082    3.506294   -0.348784
     28          6           0        8.730110    3.995772   -0.475484
     29          6           0        9.513789    2.720714   -0.008716
     30          6           0        8.454072    1.653637   -0.318885
     31          6           0        9.129359    4.619010   -1.831775
     32          6           0        9.774520    2.592675    1.575609
     33          6           0       11.074344    1.782634    1.998461
     34          7           0        6.454622   -0.567564   -0.155691
     35          6           0        7.818188   -0.800070   -0.253546
     36          6           0        8.117666   -2.223180   -0.292785
     37          6           0        6.876150   -2.828991   -0.224810
     38          6           0        5.872104   -1.848704   -0.142516
     39          6           0        9.466380   -2.921380   -0.464762
     40          6           0        6.233857   -4.197790   -0.169150
     41          8           0        6.711787   -5.355964   -0.193137
     42          6           0        4.772486   -3.882969   -0.025246
     43          6           0        4.042635   -4.643094   -1.126072
     44          8           0        4.183350   -4.394409   -2.354143
     45          8           0        3.205975   -5.612926   -0.560154
     46          6           0        2.430318   -6.315642   -1.620298
     47          6           0       -2.609647   -3.369815   -0.131410
     48          6           0       -3.975480   -3.224650    0.595959
     49          6           0       -5.175590   -3.727037    0.415773
     50          6           0       -5.496348   -4.837812   -0.596976
     51          6           0       -6.203297   -3.479529    1.512876
     52          6           0       -7.200091   -2.392570    1.147665
     53          6           0       -7.063945   -1.155952    2.035404
     54          6           0       -7.342352    0.095257    1.177079
     55          6           0       -6.711369    1.278754    1.971657
     56          6           0       -8.870032    0.345153    1.114531
     57          6           0       -9.455364    0.387824   -0.280245
     58          6           0      -10.896376   -0.340711   -0.369922
     59          6           0      -12.193449    0.639338   -0.148270
     60          6           0      -12.692776    0.442827    1.212664
     61          6           0      -13.321325    0.319544   -1.218682
     62          6           0      -13.826216    1.497806   -2.062688
     63          6           0      -15.326647    1.918055   -1.799681
     64          6           0      -15.370628    2.849891   -0.565644
     65          6           0      -14.905936    4.299674   -0.821617
     66          6           0      -16.813137    2.846345   -0.007706
     67          1           0        0.937228    1.936996    0.155830
     68          1           0        6.433997    5.377779   -0.235807
     69          1           0        9.758710   -0.032115   -0.400672
     70          1           0        1.957189   -2.683054   -0.584531
     71          1           0        0.559148   -0.501678    1.065086
     72          1           0        0.340191    0.135280   -1.654930
     73          1           0       -0.809676   -0.568082   -0.509535
     74          1           0        0.045336   -1.653319   -1.546550
     75          1           0        1.588223   -1.990384    2.341557
     76          1           0        2.797310   -3.183375    1.801157
     77          1           0        0.187047   -3.657178    2.616286
     78          1           0        1.252515   -4.706987    1.666684
     79          1           0        0.881809    5.098770    1.273309
     80          1           0        0.350161    3.871787    0.207869
     81          1           0        0.719690    5.528803   -0.448669
     82          1           0        2.174038    7.165488    1.134669
     83          1           0        1.964367    7.380219   -0.599303
     84          1           0        2.978037    8.509125    0.324968
     85          1           0        8.851670    4.764327    0.287061
     86          1           0       10.429012    2.586565   -0.584348
     87          1           0        9.923264    3.951560   -2.166664
     88          1           0        9.393752    5.666946   -1.691959
     89          1           0        8.331704    4.494245   -2.564580
     90          1           0        8.906561    2.068399    1.975228
     91          1           0        9.851337    3.590566    2.005105
     92          1           0       11.874163    2.512731    2.121814
     93          1           0       11.424282    1.013098    1.310974
     94          1           0       10.849554    1.132058    2.844672
     95          1           0       10.285567   -2.356991   -0.019571
     96          1           0        9.687170   -2.920827   -1.532621
     97          1           0        9.379292   -3.932875   -0.067724
     98          1           0        4.444539   -4.346792    0.904748
     99          1           0        2.879464   -7.241422   -1.980935
    100          1           0        2.362727   -5.684291   -2.506132
    101          1           0        1.444353   -6.573204   -1.233904
    102          1           0       -2.674397   -4.379910   -0.534745
    103          1           0       -2.588286   -2.672164   -0.968594
    104          1           0       -3.901837   -2.544555    1.445065
    105          1           0       -6.014576   -4.318067   -1.403628
    106          1           0       -6.162073   -5.576458   -0.150207
    107          1           0       -4.557591   -5.250876   -0.964212
    108          1           0       -5.654226   -3.187860    2.407612
    109          1           0       -6.629078   -4.470185    1.672211
    110          1           0       -8.169188   -2.794644    1.442813
    111          1           0       -7.339852   -2.168881    0.089929
    112          1           0       -6.058916   -1.108522    2.454507
    113          1           0       -7.640546   -1.189675    2.959298
    114          1           0       -6.808340   -0.022661    0.233662
    115          1           0       -6.751607    2.211909    1.410156
    116          1           0       -5.624718    1.186796    1.961972
    117          1           0       -7.104843    1.303068    2.987959
    118          1           0       -9.100054    1.310762    1.564459
    119          1           0       -9.389162   -0.469995    1.618347
    120          1           0       -8.858767   -0.067420   -1.070348
    121          1           0       -9.509802    1.465321   -0.434864
    122          1           0      -10.929673   -1.156501    0.351301
    123          1           0      -11.024865   -0.736172   -1.377787
    124          1           0      -11.900236    1.689400   -0.169900
    125          1           0      -13.749496    0.176820    1.256795
    126          1           0      -12.634349    1.375388    1.772563
    127          1           0      -12.261944   -0.372577    1.793695
    128          1           0      -14.155747   -0.244564   -0.800630
    129          1           0      -12.998085   -0.464302   -1.902786
    130          1           0      -13.844656    1.125435   -3.087260
    131          1           0      -13.117478    2.308059   -1.888372
    132          1           0      -15.898329    1.008578   -1.615682
    133          1           0      -15.590316    2.521768   -2.668479
    134          1           0      -14.741459    2.470216    0.238438
    135          1           0      -14.767553    4.510070   -1.881550
    136          1           0      -13.881530    4.415757   -0.469098
    137          1           0      -15.596604    5.026628   -0.392222
    138          1           0      -16.712205    2.501655    1.020706
    139          1           0      -17.488298    2.102467   -0.430247
    140          1           0      -17.394312    3.762709   -0.116976
 ---------------------------------------------------------------------

 SCF Done:  E(RCAM-B3LYP) =  -3007.14791324     A.U. after   18 cycles

 Excitation energies and oscillator strengths:

 Excited State   1:      Singlet-A      1.7387 eV  713.07 nm  f=0.3901  <S**2>=0.000
     245 -> 248       -0.18043
     246 -> 247        0.68501
     245 <- 248       -0.10693
 This state for optimization and/or second-order correction.
 Total Energy, E(TD-HF/TD-DFT) =  -3007.08401571
 Copying the excited state density for this state as the 1-particle RhoCI density.

 Excited State   2:      Singlet-A      2.2378 eV  554.03 nm  f=0.1383  <S**2>=0.000
     245 -> 247        0.64720
     246 -> 248        0.27177

 Excited State   3:      Singlet-A      3.4017 eV  364.48 nm  f=0.0022  <S**2>=0.000
     243 -> 247       -0.44796
     244 -> 247        0.51865
     246 -> 248        0.11418

 Excited State   4:      Singlet-A      3.5403 eV  350.21 nm  f=0.0001  <S**2>=0.000
     239 -> 247        0.51968
     239 -> 249       -0.32381
     239 -> 250       -0.18776
     241 -> 247        0.19424
     241 -> 249       -0.10703

 Excited State   5:      Singlet-A      3.5791 eV  346.41 nm  f=0.3604  <S**2>=0.000
     243 -> 247       -0.23570
     244 -> 247       -0.31234
     245 -> 247       -0.20012
     246 -> 248        0.53354

 The electronic state is 1-A.
 Alpha  occ. eigenvalues --  -46.87973 -19.27108 -19.25429 -19.20069 -19.19847
 Alpha  occ. eigenvalues --  -19.19753 -19.18675 -14.41441 -14.41057 -14.39677
 Alpha  occ. eigenvalues --  -14.39326 -10.40649 -10.39829 -10.35798 -10.35132
 Alpha  occ. eigenvalues --  -10.33843 -10.31017 -10.30466 -10.30333 -10.30262
 Alpha  occ. eigenvalues --  -10.30155 -10.29998 -10.29871 -10.29821 -10.29365
 Alpha  occ. eigenvalues --  -10.28813 -10.28551 -10.28284 -10.28261 -10.27914
 Alpha  occ. eigenvalues --  -10.27796 -10.27645 -10.27515 -10.27395 -10.27334
 Alpha  occ. eigenvalues --  -10.27331 -10.27165 -10.27123 -10.27014 -10.26831
 Alpha  occ. eigenvalues --  -10.26795 -10.26457 -10.26448 -10.26244 -10.26175
 Alpha  occ. eigenvalues --  -10.26104 -10.25975 -10.25974 -10.25784 -10.25711
 Alpha  occ. eigenvalues --  -10.25688 -10.25685 -10.25567 -10.25555 -10.25444
 Alpha  occ. eigenvalues --  -10.25436 -10.25196 -10.25019 -10.25012 -10.24765
 Alpha  occ. eigenvalues --  -10.24741 -10.24707 -10.24579 -10.24503 -10.23937
 Alpha  occ. eigenvalues --  -10.23742  -3.16702  -1.91577  -1.91180  -1.91006
 Alpha  occ. eigenvalues --   -1.17248  -1.14267  -1.08701  -1.08461  -1.06489
 Alpha  occ. eigenvalues --   -1.06003  -1.04172  -1.03299  -1.02151  -1.01561
 Alpha  occ. eigenvalues --   -0.92681  -0.91631  -0.90154  -0.89784  -0.89140
 Alpha  occ. eigenvalues --   -0.88444  -0.87883  -0.87457  -0.87400  -0.86490
 Alpha  occ. eigenvalues --   -0.86036  -0.85520  -0.84726  -0.83388  -0.83229
 Alpha  occ. eigenvalues --   -0.82654  -0.82160  -0.81717  -0.80885  -0.80553
 Alpha  occ. eigenvalues --   -0.80179  -0.78209  -0.77953  -0.77100  -0.76607
 Alpha  occ. eigenvalues --   -0.75866  -0.75547  -0.75150  -0.74861  -0.74161
 Alpha  occ. eigenvalues --   -0.73798  -0.72736  -0.71427  -0.70248  -0.69111
 Alpha  occ. eigenvalues --   -0.68362  -0.67877  -0.66978  -0.66681  -0.65701
 Alpha  occ. eigenvalues --   -0.65637  -0.65413  -0.64733  -0.64396  -0.64240
 Alpha  occ. eigenvalues --   -0.64003  -0.63988  -0.62625  -0.61629  -0.59934
 Alpha  occ. eigenvalues --   -0.59736  -0.59224  -0.58995  -0.58438  -0.57938
 Alpha  occ. eigenvalues --   -0.57610  -0.56459  -0.56183  -0.55961  -0.55626
 Alpha  occ. eigenvalues --   -0.55070  -0.54838  -0.54485  -0.54147  -0.54006
 Alpha  occ. eigenvalues --   -0.53679  -0.53430  -0.53345  -0.53059  -0.52875
 Alpha  occ. eigenvalues --   -0.52537  -0.52479  -0.52263  -0.51840  -0.51754
 Alpha  occ. eigenvalues --   -0.51640  -0.51069  -0.50902  -0.50823  -0.50417
 Alpha  occ. eigenvalues --   -0.50310  -0.50209  -0.50019  -0.49779  -0.49504
 Alpha  occ. eigenvalues --   -0.49490  -0.49278  -0.49126  -0.48961  -0.48788
 Alpha  occ. eigenvalues --   -0.48666  -0.48548  -0.48338  -0.48100  -0.48007
 Alpha  occ. eigenvalues --   -0.47489  -0.47166  -0.46898  -0.46690  -0.46359
 Alpha  occ. eigenvalues --   -0.46277  -0.46214  -0.45973  -0.45850  -0.45798
 Alpha  occ. eigenvalues --   -0.45530  -0.45425  -0.45256  -0.45208  -0.44569
 Alpha  occ. eigenvalues --   -0.44409  -0.44317  -0.44267  -0.44013  -0.43917
 Alpha  occ. eigenvalues --   -0.43693  -0.43453  -0.43354  -0.43153  -0.42990
 Alpha  occ. eigenvalues --   -0.42852  -0.42559  -0.42418  -0.42117  -0.41963
 Alpha  occ. eigenvalues --   -0.41851  -0.41586  -0.41418  -0.41332  -0.41014
 Alpha  occ. eigenvalues --   -0.40953  -0.40893  -0.40793  -0.40713  -0.40001
 Alpha  occ. eigenvalues --   -0.39636  -0.39417  -0.39336  -0.39022  -0.38738
 Alpha  occ. eigenvalues --   -0.38673  -0.38445  -0.37993  -0.37810  -0.37573
 Alpha  occ. eigenvalues --   -0.37346  -0.37093  -0.36910  -0.36444  -0.36341
 Alpha  occ. eigenvalues --   -0.36004  -0.35429  -0.34404  -0.34087  -0.33867
 Alpha  occ. eigenvalues --   -0.33826  -0.33762  -0.32986  -0.31589  -0.31414
 Alpha  occ. eigenvalues --   -0.31210  -0.30999  -0.30226  -0.29815  -0.23877
 Alpha  occ. eigenvalues --   -0.21187
 Alpha virt. eigenvalues --   -0.08600  -0.01322   0.00391   0.02031   0.02683
 Alpha virt. eigenvalues --    0.03987   0.04483   0.05679   0.06041   0.06965
 Alpha virt. eigenvalues --    0.08240   0.08321   0.08618   0.08887   0.09117

 Mulliken charges:
               1
     1  Mg   0.827930
     2  C    0.007667
     3  C   -0.053041
     4  C   -0.038789
     5  C   -0.074084
     6  N   -0.221945
     7  C   -0.086236
     8  C   -0.052317
     9  C   -0.024759
    10  C   -0.031520
    11  C    0.065621
    12  C    0.059907
    13  C    0.115626
    14  C    0.149658
    15  O   -0.285067
    16  O   -0.309293
    17  N   -0.423606
    18  C    0.177310
    19  C   -0.164051
    20  C   -0.037652
    21  C    0.111688
    22  C    0.115998
    23  C    0.029532
    24  O   -0.223885
    25  C    0.054546
    26  N   -0.318360
    27  C    0.032159
    28  C   -0.039623
    29  C   -0.050403
    30  C    0.059164
    31  C    0.118364
    32  C    0.037016
    33  C   -0.003154
    34  N   -0.379653
    35  C    0.112375
    36  C   -0.185788
    37  C   -0.037256
    38  C    0.131252
    39  C    0.131472
    40  C    0.103114
    41  O   -0.188285
    42  C    0.037874
    43  C    0.224207
    44  O   -0.251568
    45  O   -0.343743
    46  C    0.169831
    47  C    0.304343
    48  C   -0.159012
    49  C   -0.192303
    50  C    0.093937
    51  C    0.080697
    52  C    0.068053
    53  C    0.017184
    54  C   -0.139245
    55  C    0.045467
    56  C    0.090863
    57  C   -0.003234
    58  C    0.032392
    59  C   -0.121859
    60  C    0.059093
    61  C    0.052811
    62  C    0.016136
    63  C    0.063708
    64  C   -0.168602
    65  C    0.053342
    66  C    0.041123
    67  H   -0.041166
    68  H   -0.013307
    69  H   -0.040342
    70  H    0.038068
    71  H    0.009125
    72  H    0.020236
    73  H   -0.000568
    74  H    0.039608
    75  H    0.003293
    76  H    0.003214
    77  H    0.022805
    78  H    0.027460
    79  H    0.031933
    80  H    0.006192
    81  H    0.026803
    82  H    0.027061
    83  H    0.039900
    84  H    0.028068
    85  H   -0.003058
    86  H    0.004602
    87  H    0.002822
    88  H    0.036279
    89  H    0.023789
    90  H    0.024126
    91  H    0.018373
    92  H    0.029530
    93  H    0.004780
    94  H    0.019643
    95  H    0.010876
    96  H    0.036456
    97  H    0.047429
    98  H    0.041952
    99  H    0.029046
   100  H    0.049069
   101  H    0.044218
   102  H    0.024112
   103  H    0.052577
   104  H   -0.004154
   105  H    0.024777
   106  H    0.023493
   107  H    0.015129
   108  H    0.006122
   109  H   -0.003024
   110  H   -0.012226
   111  H    0.007211
   112  H   -0.021634
   113  H   -0.003804
   114  H   -0.000181
   115  H   -0.003740
   116  H   -0.008923
   117  H    0.019266
   118  H   -0.001112
   119  H   -0.006562
   120  H    0.001588
   121  H   -0.001428
   122  H    0.001153
   123  H   -0.005193
   124  H   -0.000562
   125  H   -0.005935
   126  H    0.002838
   127  H   -0.000625
   128  H   -0.022561
   129  H   -0.019654
   130  H   -0.005919
   131  H   -0.006130
   132  H    0.004137
   133  H    0.001106
   134  H   -0.003895
   135  H   -0.001857
   136  H    0.001317
   137  H    0.017788
   138  H    0.003773
   139  H   -0.007868
   140  H    0.009154
 Sum of Mulliken charges =  -0.00000

 Dipole moment (field-independent basis, Debye):
    X=             -5.0719    Y=              1.8086    Z=              3.7972  Tot=              6.5889
 Quadrupole moment (field-independent basis, Debye-Ang):
   XX=           -375.0459   YY=           -435.8258   ZZ=           -409.1628
   XY=             28.8815   XZ=             17.0199   YZ=             -4.8372

 Normal termination of Gaussian 16 at Sat Apr 30 01:19:44 2022.
