 Gaussian 16, Revision A.03,
 Gaussian 16:  ES64L-G16RevA.03 25-Dec-2016

 ---------------------------------
 #p PBE1PBE/Def2SVP td=(nstates=5)
 ---------------------------------

 ---------------------------------------------------
 step_51_chromophore_6 TDDFT with PBE1PBE functional
 ---------------------------------------------------
 Symbolic Z-matrix:
 Charge =  0 Multiplicity = 1

                         Standard orientation:
 ---------------------------------------------------------------------
 Center     Atomic      Atomic             Coordinates (Angstroms)
 Number     Number       Type             X           Y           Z
 ---------------------------------------------------------------------
      1         12           0        5.459360    1.220982    0.039214
      2          6           0        4.563242   -2.345995    0.058172
      3          6           0        2.013108    1.766965    0.083234
      4          6           0        6.168803    4.319744   -0.183154
      5          6           0        8.715728    0.290414   -0.384068
      6          7           0        3.508538   -0.235780    0.060699
      7          6           0        3.467116   -1.548480    0.165636
      8          6           0        2.030081   -1.997068    0.259031
      9          6           0        1.142326   -0.697133    0.164841
     10          6           0        2.252747    0.401648    0.141096
     11          6           0        0.152715   -0.715668   -1.000317
     12          6           0        1.827237   -2.736923    1.583323
     13          6           0        0.750069   -3.739254    1.687179
     14          6           0       -0.292251   -3.886738    0.494969
     15          8           0       -0.072059   -4.453272   -0.615800
     16          8           0       -1.446840   -3.313636    0.821401
     17          7           0        4.248800    2.812365    0.009623
     18          6           0        2.879417    2.892211    0.008483
     19          6           0        2.454666    4.288341    0.038371
     20          6           0        3.652927    5.089776    0.044487
     21          6           0        4.760769    4.113964   -0.028896
     22          6           0        1.004592    4.743113    0.250071
     23          6           0        3.850825    6.624784    0.008082
     24          8           0        4.943656    7.194268   -0.198652
     25          6           0        2.679819    7.466175    0.217756
     26          7           0        7.197476    2.165213   -0.499064
     27          6           0        7.271082    3.506294   -0.348784
     28          6           0        8.730110    3.995772   -0.475484
     29          6           0        9.513789    2.720714   -0.008716
     30          6           0        8.454072    1.653637   -0.318885
     31          6           0        9.129359    4.619010   -1.831775
     32          6           0        9.774520    2.592675    1.575609
     33          6           0       11.074344    1.782634    1.998461
     34          7           0        6.454622   -0.567564   -0.155691
     35          6           0        7.818188   -0.800070   -0.253546
     36          6           0        8.117666   -2.223180   -0.292785
     37          6           0        6.876150   -2.828991   -0.224810
     38          6           0        5.872104   -1.848704   -0.142516
     39          6           0        9.466380   -2.921380   -0.464762
     40          6           0        6.233857   -4.197790   -0.169150
     41          8           0        6.711787   -5.355964   -0.193137
     42          6           0        4.772486   -3.882969   -0.025246
     43          6           0        4.042635   -4.643094   -1.126072
     44          8           0        4.183350   -4.394409   -2.354143
     45          8           0        3.205975   -5.612926   -0.560154
     46          6           0        2.430318   -6.315642   -1.620298
     47          6           0       -2.609647   -3.369815   -0.131410
     48          6           0       -3.975480   -3.224650    0.595959
     49          6           0       -5.175590   -3.727037    0.415773
     50          6           0       -5.496348   -4.837812   -0.596976
     51          6           0       -6.203297   -3.479529    1.512876
     52          6           0       -7.200091   -2.392570    1.147665
     53          6           0       -7.063945   -1.155952    2.035404
     54          6           0       -7.342352    0.095257    1.177079
     55          6           0       -6.711369    1.278754    1.971657
     56          6           0       -8.870032    0.345153    1.114531
     57          6           0       -9.455364    0.387824   -0.280245
     58          6           0      -10.896376   -0.340711   -0.369922
     59          6           0      -12.193449    0.639338   -0.148270
     60          6           0      -12.692776    0.442827    1.212664
     61          6           0      -13.321325    0.319544   -1.218682
     62          6           0      -13.826216    1.497806   -2.062688
     63          6           0      -15.326647    1.918055   -1.799681
     64          6           0      -15.370628    2.849891   -0.565644
     65          6           0      -14.905936    4.299674   -0.821617
     66          6           0      -16.813137    2.846345   -0.007706
     67          1           0        0.937228    1.936996    0.155830
     68          1           0        6.433997    5.377779   -0.235807
     69          1           0        9.758710   -0.032115   -0.400672
     70          1           0        1.957189   -2.683054   -0.584531
     71          1           0        0.559148   -0.501678    1.065086
     72          1           0        0.340191    0.135280   -1.654930
     73          1           0       -0.809676   -0.568082   -0.509535
     74          1           0        0.045336   -1.653319   -1.546550
     75          1           0        1.588223   -1.990384    2.341557
     76          1           0        2.797310   -3.183375    1.801157
     77          1           0        0.187047   -3.657178    2.616286
     78          1           0        1.252515   -4.706987    1.666684
     79          1           0        0.881809    5.098770    1.273309
     80          1           0        0.350161    3.871787    0.207869
     81          1           0        0.719690    5.528803   -0.448669
     82          1           0        2.174038    7.165488    1.134669
     83          1           0        1.964367    7.380219   -0.599303
     84          1           0        2.978037    8.509125    0.324968
     85          1           0        8.851670    4.764327    0.287061
     86          1           0       10.429012    2.586565   -0.584348
     87          1           0        9.923264    3.951560   -2.166664
     88          1           0        9.393752    5.666946   -1.691959
     89          1           0        8.331704    4.494245   -2.564580
     90          1           0        8.906561    2.068399    1.975228
     91          1           0        9.851337    3.590566    2.005105
     92          1           0       11.874163    2.512731    2.121814
     93          1           0       11.424282    1.013098    1.310974
     94          1           0       10.849554    1.132058    2.844672
     95          1           0       10.285567   -2.356991   -0.019571
     96          1           0        9.687170   -2.920827   -1.532621
     97          1           0        9.379292   -3.932875   -0.067724
     98          1           0        4.444539   -4.346792    0.904748
     99          1           0        2.879464   -7.241422   -1.980935
    100          1           0        2.362727   -5.684291   -2.506132
    101          1           0        1.444353   -6.573204   -1.233904
    102          1           0       -2.674397   -4.379910   -0.534745
    103          1           0       -2.588286   -2.672164   -0.968594
    104          1           0       -3.901837   -2.544555    1.445065
    105          1           0       -6.014576   -4.318067   -1.403628
    106          1           0       -6.162073   -5.576458   -0.150207
    107          1           0       -4.557591   -5.250876   -0.964212
    108          1           0       -5.654226   -3.187860    2.407612
    109          1           0       -6.629078   -4.470185    1.672211
    110          1           0       -8.169188   -2.794644    1.442813
    111          1           0       -7.339852   -2.168881    0.089929
    112          1           0       -6.058916   -1.108522    2.454507
    113          1           0       -7.640546   -1.189675    2.959298
    114          1           0       -6.808340   -0.022661    0.233662
    115          1           0       -6.751607    2.211909    1.410156
    116          1           0       -5.624718    1.186796    1.961972
    117          1           0       -7.104843    1.303068    2.987959
    118          1           0       -9.100054    1.310762    1.564459
    119          1           0       -9.389162   -0.469995    1.618347
    120          1           0       -8.858767   -0.067420   -1.070348
    121          1           0       -9.509802    1.465321   -0.434864
    122          1           0      -10.929673   -1.156501    0.351301
    123          1           0      -11.024865   -0.736172   -1.377787
    124          1           0      -11.900236    1.689400   -0.169900
    125          1           0      -13.749496    0.176820    1.256795
    126          1           0      -12.634349    1.375388    1.772563
    127          1           0      -12.261944   -0.372577    1.793695
    128          1           0      -14.155747   -0.244564   -0.800630
    129          1           0      -12.998085   -0.464302   -1.902786
    130          1           0      -13.844656    1.125435   -3.087260
    131          1           0      -13.117478    2.308059   -1.888372
    132          1           0      -15.898329    1.008578   -1.615682
    133          1           0      -15.590316    2.521768   -2.668479
    134          1           0      -14.741459    2.470216    0.238438
    135          1           0      -14.767553    4.510070   -1.881550
    136          1           0      -13.881530    4.415757   -0.469098
    137          1           0      -15.596604    5.026628   -0.392222
    138          1           0      -16.712205    2.501655    1.020706
    139          1           0      -17.488298    2.102467   -0.430247
    140          1           0      -17.394312    3.762709   -0.116976
 ---------------------------------------------------------------------

 SCF Done:  E(RPBE1PBE) =  -3005.33494424     A.U. after   16 cycles

 Excitation energies and oscillator strengths:

 Excited State   1:      Singlet-A      1.8865 eV  657.21 nm  f=0.3804  <S**2>=0.000
     245 -> 248       -0.16973
     246 -> 247        0.69181
     246 <- 247       -0.10501
 This state for optimization and/or second-order correction.
 Total Energy, E(TD-HF/TD-DFT) =  -3005.26561574
 Copying the excited state density for this state as the 1-particle RhoCI density.

 Excited State   2:      Singlet-A      2.2387 eV  553.82 nm  f=0.1302  <S**2>=0.000
     245 -> 247        0.65758
     246 -> 248        0.24234

 Excited State   3:      Singlet-A      3.1009 eV  399.83 nm  f=0.0006  <S**2>=0.000
     241 -> 247        0.30286
     241 -> 249       -0.10089
     243 -> 247       -0.13996
     244 -> 247        0.59460

 Excited State   4:      Singlet-A      3.1243 eV  396.83 nm  f=0.0000  <S**2>=0.000
     241 -> 247        0.55612
     241 -> 249       -0.15493
     243 -> 247       -0.10801
     244 -> 247       -0.36038

 Excited State   5:      Singlet-A      3.2005 eV  387.39 nm  f=0.0006  <S**2>=0.000
     242 -> 247        0.38551
     242 -> 249        0.10003
     243 -> 247        0.53409
     246 -> 248        0.10096

 The electronic state is 1-A.
 Alpha  occ. eigenvalues --  -46.91389 -19.27750 -19.26050 -19.20370 -19.20061
 Alpha  occ. eigenvalues --  -19.19774 -19.19072 -14.40973 -14.40550 -14.39447
 Alpha  occ. eigenvalues --  -14.38924 -10.37709 -10.36822 -10.32772 -10.32417
 Alpha  occ. eigenvalues --  -10.31238 -10.28608 -10.28364 -10.28275 -10.27872
 Alpha  occ. eigenvalues --  -10.27797 -10.27794 -10.27612 -10.27087 -10.26857
 Alpha  occ. eigenvalues --  -10.26514 -10.26323 -10.26092 -10.25702 -10.25626
 Alpha  occ. eigenvalues --  -10.25613 -10.25318 -10.25265 -10.25158 -10.25083
 Alpha  occ. eigenvalues --  -10.25006 -10.24884 -10.24754 -10.24706 -10.24376
 Alpha  occ. eigenvalues --  -10.24186 -10.24029 -10.23791 -10.23708 -10.23704
 Alpha  occ. eigenvalues --  -10.23698 -10.23683 -10.23603 -10.23337 -10.23330
 Alpha  occ. eigenvalues --  -10.23311 -10.23216 -10.23178 -10.23076 -10.22996
 Alpha  occ. eigenvalues --  -10.22926 -10.22756 -10.22609 -10.22585 -10.22319
 Alpha  occ. eigenvalues --  -10.22293 -10.22176 -10.22145 -10.21894 -10.21340
 Alpha  occ. eigenvalues --  -10.21114  -3.13692  -1.86509  -1.86089  -1.85921
 Alpha  occ. eigenvalues --   -1.12058  -1.08965  -1.03327  -1.03220  -1.01312
 Alpha  occ. eigenvalues --   -1.00755  -0.98774  -0.97845  -0.96790  -0.96276
 Alpha  occ. eigenvalues --   -0.86907  -0.85778  -0.84327  -0.83914  -0.83236
 Alpha  occ. eigenvalues --   -0.82765  -0.82221  -0.81782  -0.81520  -0.80875
 Alpha  occ. eigenvalues --   -0.80235  -0.79756  -0.78967  -0.77668  -0.77436
 Alpha  occ. eigenvalues --   -0.76866  -0.76465  -0.75913  -0.75113  -0.74773
 Alpha  occ. eigenvalues --   -0.74538  -0.72429  -0.72337  -0.71397  -0.70786
 Alpha  occ. eigenvalues --   -0.70094  -0.69631  -0.69549  -0.68993  -0.68418
 Alpha  occ. eigenvalues --   -0.68019  -0.67128  -0.65886  -0.64559  -0.63426
 Alpha  occ. eigenvalues --   -0.62770  -0.62151  -0.61328  -0.61092  -0.60064
 Alpha  occ. eigenvalues --   -0.59919  -0.59857  -0.59293  -0.58848  -0.58569
 Alpha  occ. eigenvalues --   -0.58430  -0.58128  -0.56810  -0.56131  -0.54540
 Alpha  occ. eigenvalues --   -0.54137  -0.53742  -0.53555  -0.53006  -0.52470
 Alpha  occ. eigenvalues --   -0.51979  -0.50873  -0.50682  -0.50588  -0.50107
 Alpha  occ. eigenvalues --   -0.49611  -0.49404  -0.48946  -0.48648  -0.48448
 Alpha  occ. eigenvalues --   -0.48166  -0.47872  -0.47826  -0.47628  -0.47516
 Alpha  occ. eigenvalues --   -0.47103  -0.46958  -0.46713  -0.46376  -0.46307
 Alpha  occ. eigenvalues --   -0.46246  -0.45608  -0.45542  -0.45347  -0.44870
 Alpha  occ. eigenvalues --   -0.44860  -0.44809  -0.44672  -0.44300  -0.44188
 Alpha  occ. eigenvalues --   -0.44140  -0.43855  -0.43711  -0.43523  -0.43442
 Alpha  occ. eigenvalues --   -0.43291  -0.43141  -0.42957  -0.42750  -0.42627
 Alpha  occ. eigenvalues --   -0.42155  -0.41885  -0.41590  -0.41405  -0.41004
 Alpha  occ. eigenvalues --   -0.40978  -0.40836  -0.40653  -0.40612  -0.40506
 Alpha  occ. eigenvalues --   -0.40129  -0.40039  -0.39979  -0.39862  -0.39362
 Alpha  occ. eigenvalues --   -0.39081  -0.39055  -0.38925  -0.38866  -0.38668
 Alpha  occ. eigenvalues --   -0.38430  -0.38254  -0.38162  -0.37834  -0.37824
 Alpha  occ. eigenvalues --   -0.37634  -0.37514  -0.37164  -0.36894  -0.36684
 Alpha  occ. eigenvalues --   -0.36637  -0.36421  -0.36229  -0.36125  -0.35863
 Alpha  occ. eigenvalues --   -0.35780  -0.35675  -0.35664  -0.35451  -0.34765
 Alpha  occ. eigenvalues --   -0.34554  -0.34379  -0.34092  -0.34022  -0.33514
 Alpha  occ. eigenvalues --   -0.33484  -0.33442  -0.32849  -0.32765  -0.32546
 Alpha  occ. eigenvalues --   -0.32146  -0.31975  -0.31927  -0.31409  -0.31365
 Alpha  occ. eigenvalues --   -0.30909  -0.30330  -0.29362  -0.29028  -0.28900
 Alpha  occ. eigenvalues --   -0.28808  -0.28683  -0.28411  -0.26908  -0.26649
 Alpha  occ. eigenvalues --   -0.26183  -0.25958  -0.25754  -0.25446  -0.20807
 Alpha  occ. eigenvalues --   -0.18793
 Alpha virt. eigenvalues --   -0.11067  -0.04920  -0.03829  -0.02383  -0.00642
 Alpha virt. eigenvalues --   -0.00208   0.00051   0.01223   0.01531   0.03329
 Alpha virt. eigenvalues --    0.04521   0.04947   0.05042   0.05313   0.05509

 Mulliken charges:
               1
     1  Mg   0.981706
     2  C   -0.007005
     3  C   -0.060491
     4  C   -0.042355
     5  C   -0.057539
     6  N   -0.325822
     7  C   -0.018970
     8  C   -0.132146
     9  C   -0.098200
    10  C    0.015966
    11  C    0.007855
    12  C    0.011136
    13  C    0.042608
    14  C    0.213930
    15  O   -0.316697
    16  O   -0.340389
    17  N   -0.542170
    18  C    0.204100
    19  C   -0.187296
    20  C   -0.082489
    21  C    0.147077
    22  C    0.052908
    23  C    0.080842
    24  O   -0.260157
    25  C   -0.019737
    26  N   -0.413750
    27  C    0.060939
    28  C   -0.106338
    29  C   -0.131071
    30  C    0.081617
    31  C    0.059774
    32  C   -0.020277
    33  C   -0.072209
    34  N   -0.499133
    35  C    0.125185
    36  C   -0.204230
    37  C   -0.083603
    38  C    0.189131
    39  C    0.076558
    40  C    0.190442
    41  O   -0.236548
    42  C   -0.056558
    43  C    0.305419
    44  O   -0.283165
    45  O   -0.373804
    46  C    0.116469
    47  C    0.263763
    48  C   -0.166429
    49  C   -0.234787
    50  C    0.029610
    51  C    0.012578
    52  C    0.007242
    53  C   -0.032162
    54  C   -0.233540
    55  C   -0.017251
    56  C    0.043156
    57  C   -0.063243
    58  C   -0.023412
    59  C   -0.208986
    60  C    0.006456
    61  C    0.009785
    62  C   -0.053381
    63  C   -0.000569
    64  C   -0.263210
    65  C   -0.004234
    66  C   -0.015831
    67  H   -0.007126
    68  H    0.020086
    69  H   -0.006680
    70  H    0.079229
    71  H    0.044722
    72  H    0.048014
    73  H    0.027959
    74  H    0.066059
    75  H    0.035333
    76  H    0.040144
    77  H    0.053747
    78  H    0.060993
    79  H    0.060579
    80  H    0.036039
    81  H    0.055199
    82  H    0.054405
    83  H    0.066874
    84  H    0.056243
    85  H    0.034657
    86  H    0.039054
    87  H    0.032177
    88  H    0.062376
    89  H    0.051817
    90  H    0.058570
    91  H    0.049755
    92  H    0.056625
    93  H    0.031678
    94  H    0.047302
    95  H    0.036663
    96  H    0.063984
    97  H    0.073520
    98  H    0.079259
    99  H    0.051776
   100  H    0.069614
   101  H    0.065961
   102  H    0.051091
   103  H    0.077617
   104  H    0.026189
   105  H    0.053480
   106  H    0.049356
   107  H    0.042864
   108  H    0.037301
   109  H    0.029718
   110  H    0.022337
   111  H    0.038485
   112  H    0.011022
   113  H    0.027627
   114  H    0.035892
   115  H    0.025737
   116  H    0.020096
   117  H    0.046661
   118  H    0.030937
   119  H    0.025665
   120  H    0.032826
   121  H    0.031137
   122  H    0.032128
   123  H    0.027524
   124  H    0.034948
   125  H    0.020372
   126  H    0.029280
   127  H    0.025874
   128  H    0.008631
   129  H    0.011705
   130  H    0.028118
   131  H    0.027541
   132  H    0.035949
   133  H    0.034283
   134  H    0.040317
   135  H    0.025165
   136  H    0.028299
   137  H    0.044498
   138  H    0.030960
   139  H    0.019332
   140  H    0.035356
 Sum of Mulliken charges =  -0.00000

 Dipole moment (field-independent basis, Debye):
    X=             -5.2351    Y=              2.2341    Z=              3.8181  Tot=              6.8538
 Quadrupole moment (field-independent basis, Debye-Ang):
   XX=           -371.5496   YY=           -432.1622   ZZ=           -406.7522
   XY=             31.7055   XZ=             16.9314   YZ=             -4.6868

 Normal termination of Gaussian 16 at Sat Apr 30 01:36:54 2022.
