 Gaussian 16, Revision A.03,
 Gaussian 16:  ES64L-G16RevA.03 25-Dec-2016

 --------------------------------
 #p wB97XD/Def2SVP td=(nstates=5)
 --------------------------------

 --------------------------------------------------
 step_51_chromophore_6 TDDFT with wB97XD functional
 --------------------------------------------------
 Symbolic Z-matrix:
 Charge =  0 Multiplicity = 1

                         Standard orientation:
 ---------------------------------------------------------------------
 Center     Atomic      Atomic             Coordinates (Angstroms)
 Number     Number       Type             X           Y           Z
 ---------------------------------------------------------------------
      1         12           0        5.459360    1.220982    0.039214
      2          6           0        4.563242   -2.345995    0.058172
      3          6           0        2.013108    1.766965    0.083234
      4          6           0        6.168803    4.319744   -0.183154
      5          6           0        8.715728    0.290414   -0.384068
      6          7           0        3.508538   -0.235780    0.060699
      7          6           0        3.467116   -1.548480    0.165636
      8          6           0        2.030081   -1.997068    0.259031
      9          6           0        1.142326   -0.697133    0.164841
     10          6           0        2.252747    0.401648    0.141096
     11          6           0        0.152715   -0.715668   -1.000317
     12          6           0        1.827237   -2.736923    1.583323
     13          6           0        0.750069   -3.739254    1.687179
     14          6           0       -0.292251   -3.886738    0.494969
     15          8           0       -0.072059   -4.453272   -0.615800
     16          8           0       -1.446840   -3.313636    0.821401
     17          7           0        4.248800    2.812365    0.009623
     18          6           0        2.879417    2.892211    0.008483
     19          6           0        2.454666    4.288341    0.038371
     20          6           0        3.652927    5.089776    0.044487
     21          6           0        4.760769    4.113964   -0.028896
     22          6           0        1.004592    4.743113    0.250071
     23          6           0        3.850825    6.624784    0.008082
     24          8           0        4.943656    7.194268   -0.198652
     25          6           0        2.679819    7.466175    0.217756
     26          7           0        7.197476    2.165213   -0.499064
     27          6           0        7.271082    3.506294   -0.348784
     28          6           0        8.730110    3.995772   -0.475484
     29          6           0        9.513789    2.720714   -0.008716
     30          6           0        8.454072    1.653637   -0.318885
     31          6           0        9.129359    4.619010   -1.831775
     32          6           0        9.774520    2.592675    1.575609
     33          6           0       11.074344    1.782634    1.998461
     34          7           0        6.454622   -0.567564   -0.155691
     35          6           0        7.818188   -0.800070   -0.253546
     36          6           0        8.117666   -2.223180   -0.292785
     37          6           0        6.876150   -2.828991   -0.224810
     38          6           0        5.872104   -1.848704   -0.142516
     39          6           0        9.466380   -2.921380   -0.464762
     40          6           0        6.233857   -4.197790   -0.169150
     41          8           0        6.711787   -5.355964   -0.193137
     42          6           0        4.772486   -3.882969   -0.025246
     43          6           0        4.042635   -4.643094   -1.126072
     44          8           0        4.183350   -4.394409   -2.354143
     45          8           0        3.205975   -5.612926   -0.560154
     46          6           0        2.430318   -6.315642   -1.620298
     47          6           0       -2.609647   -3.369815   -0.131410
     48          6           0       -3.975480   -3.224650    0.595959
     49          6           0       -5.175590   -3.727037    0.415773
     50          6           0       -5.496348   -4.837812   -0.596976
     51          6           0       -6.203297   -3.479529    1.512876
     52          6           0       -7.200091   -2.392570    1.147665
     53          6           0       -7.063945   -1.155952    2.035404
     54          6           0       -7.342352    0.095257    1.177079
     55          6           0       -6.711369    1.278754    1.971657
     56          6           0       -8.870032    0.345153    1.114531
     57          6           0       -9.455364    0.387824   -0.280245
     58          6           0      -10.896376   -0.340711   -0.369922
     59          6           0      -12.193449    0.639338   -0.148270
     60          6           0      -12.692776    0.442827    1.212664
     61          6           0      -13.321325    0.319544   -1.218682
     62          6           0      -13.826216    1.497806   -2.062688
     63          6           0      -15.326647    1.918055   -1.799681
     64          6           0      -15.370628    2.849891   -0.565644
     65          6           0      -14.905936    4.299674   -0.821617
     66          6           0      -16.813137    2.846345   -0.007706
     67          1           0        0.937228    1.936996    0.155830
     68          1           0        6.433997    5.377779   -0.235807
     69          1           0        9.758710   -0.032115   -0.400672
     70          1           0        1.957189   -2.683054   -0.584531
     71          1           0        0.559148   -0.501678    1.065086
     72          1           0        0.340191    0.135280   -1.654930
     73          1           0       -0.809676   -0.568082   -0.509535
     74          1           0        0.045336   -1.653319   -1.546550
     75          1           0        1.588223   -1.990384    2.341557
     76          1           0        2.797310   -3.183375    1.801157
     77          1           0        0.187047   -3.657178    2.616286
     78          1           0        1.252515   -4.706987    1.666684
     79          1           0        0.881809    5.098770    1.273309
     80          1           0        0.350161    3.871787    0.207869
     81          1           0        0.719690    5.528803   -0.448669
     82          1           0        2.174038    7.165488    1.134669
     83          1           0        1.964367    7.380219   -0.599303
     84          1           0        2.978037    8.509125    0.324968
     85          1           0        8.851670    4.764327    0.287061
     86          1           0       10.429012    2.586565   -0.584348
     87          1           0        9.923264    3.951560   -2.166664
     88          1           0        9.393752    5.666946   -1.691959
     89          1           0        8.331704    4.494245   -2.564580
     90          1           0        8.906561    2.068399    1.975228
     91          1           0        9.851337    3.590566    2.005105
     92          1           0       11.874163    2.512731    2.121814
     93          1           0       11.424282    1.013098    1.310974
     94          1           0       10.849554    1.132058    2.844672
     95          1           0       10.285567   -2.356991   -0.019571
     96          1           0        9.687170   -2.920827   -1.532621
     97          1           0        9.379292   -3.932875   -0.067724
     98          1           0        4.444539   -4.346792    0.904748
     99          1           0        2.879464   -7.241422   -1.980935
    100          1           0        2.362727   -5.684291   -2.506132
    101          1           0        1.444353   -6.573204   -1.233904
    102          1           0       -2.674397   -4.379910   -0.534745
    103          1           0       -2.588286   -2.672164   -0.968594
    104          1           0       -3.901837   -2.544555    1.445065
    105          1           0       -6.014576   -4.318067   -1.403628
    106          1           0       -6.162073   -5.576458   -0.150207
    107          1           0       -4.557591   -5.250876   -0.964212
    108          1           0       -5.654226   -3.187860    2.407612
    109          1           0       -6.629078   -4.470185    1.672211
    110          1           0       -8.169188   -2.794644    1.442813
    111          1           0       -7.339852   -2.168881    0.089929
    112          1           0       -6.058916   -1.108522    2.454507
    113          1           0       -7.640546   -1.189675    2.959298
    114          1           0       -6.808340   -0.022661    0.233662
    115          1           0       -6.751607    2.211909    1.410156
    116          1           0       -5.624718    1.186796    1.961972
    117          1           0       -7.104843    1.303068    2.987959
    118          1           0       -9.100054    1.310762    1.564459
    119          1           0       -9.389162   -0.469995    1.618347
    120          1           0       -8.858767   -0.067420   -1.070348
    121          1           0       -9.509802    1.465321   -0.434864
    122          1           0      -10.929673   -1.156501    0.351301
    123          1           0      -11.024865   -0.736172   -1.377787
    124          1           0      -11.900236    1.689400   -0.169900
    125          1           0      -13.749496    0.176820    1.256795
    126          1           0      -12.634349    1.375388    1.772563
    127          1           0      -12.261944   -0.372577    1.793695
    128          1           0      -14.155747   -0.244564   -0.800630
    129          1           0      -12.998085   -0.464302   -1.902786
    130          1           0      -13.844656    1.125435   -3.087260
    131          1           0      -13.117478    2.308059   -1.888372
    132          1           0      -15.898329    1.008578   -1.615682
    133          1           0      -15.590316    2.521768   -2.668479
    134          1           0      -14.741459    2.470216    0.238438
    135          1           0      -14.767553    4.510070   -1.881550
    136          1           0      -13.881530    4.415757   -0.469098
    137          1           0      -15.596604    5.026628   -0.392222
    138          1           0      -16.712205    2.501655    1.020706
    139          1           0      -17.488298    2.102467   -0.430247
    140          1           0      -17.394312    3.762709   -0.116976
 ---------------------------------------------------------------------

 SCF Done:  E(RwB97XD) =  -3007.84658494     A.U. after   19 cycles

 Excitation energies and oscillator strengths:

 Excited State   1:      Singlet-A      1.6867 eV  735.05 nm  f=0.3884  <S**2>=0.000
     245 -> 248       -0.18565
     246 -> 247        0.68294
     245 <- 248       -0.11582
 This state for optimization and/or second-order correction.
 Total Energy, E(TD-HF/TD-DFT) =  -3007.78459848
 Copying the excited state density for this state as the 1-particle RhoCI density.

 Excited State   2:      Singlet-A      2.1824 eV  568.10 nm  f=0.1340  <S**2>=0.000
     245 -> 247        0.64481
     246 -> 248        0.27504

 Excited State   3:      Singlet-A      3.3986 eV  364.81 nm  f=0.0056  <S**2>=0.000
     243 -> 247        0.51535
     244 -> 247       -0.43457
     246 -> 248       -0.14718

 Excited State   4:      Singlet-A      3.5521 eV  349.04 nm  f=0.0004  <S**2>=0.000
     239 -> 247        0.45321
     239 -> 249       -0.30406
     239 -> 250        0.16539
     240 -> 247        0.16860
     240 -> 249       -0.10726
     241 -> 247        0.26410
     241 -> 249       -0.16499

 Excited State   5:      Singlet-A      3.6014 eV  344.27 nm  f=0.4396  <S**2>=0.000
     243 -> 247       -0.13486
     244 -> 247       -0.33778
     245 -> 247       -0.21798
     246 -> 248        0.54915

 The electronic state is 1-A.
 Alpha  occ. eigenvalues --  -46.94312 -19.32307 -19.30695 -19.25022 -19.24892
 Alpha  occ. eigenvalues --  -19.24863 -19.23656 -14.46035 -14.45661 -14.44253
 Alpha  occ. eigenvalues --  -14.43990 -10.44486 -10.43760 -10.39906 -10.39045
 Alpha  occ. eigenvalues --  -10.37759 -10.35082 -10.34469 -10.34317 -10.34288
 Alpha  occ. eigenvalues --  -10.34271 -10.33971 -10.33773 -10.33665 -10.33474
 Alpha  occ. eigenvalues --  -10.32922 -10.32621 -10.32503 -10.32340 -10.32070
 Alpha  occ. eigenvalues --  -10.31828 -10.31539 -10.31489 -10.31424 -10.31370
 Alpha  occ. eigenvalues --  -10.31325 -10.31188 -10.31053 -10.31032 -10.30795
 Alpha  occ. eigenvalues --  -10.30629 -10.30513 -10.30393 -10.30183 -10.30050
 Alpha  occ. eigenvalues --  -10.30028 -10.29966 -10.29960 -10.29838 -10.29655
 Alpha  occ. eigenvalues --  -10.29608 -10.29590 -10.29500 -10.29495 -10.29363
 Alpha  occ. eigenvalues --  -10.29289 -10.29108 -10.28956 -10.28944 -10.28675
 Alpha  occ. eigenvalues --  -10.28659 -10.28555 -10.28515 -10.28316 -10.27750
 Alpha  occ. eigenvalues --  -10.27547  -3.20469  -1.94037  -1.93619  -1.93442
 Alpha  occ. eigenvalues --   -1.19434  -1.16478  -1.11004  -1.10616  -1.08666
 Alpha  occ. eigenvalues --   -1.08250  -1.06175  -1.05309  -1.04207  -1.03569
 Alpha  occ. eigenvalues --   -0.94717  -0.93438  -0.91992  -0.91573  -0.90899
 Alpha  occ. eigenvalues --   -0.90342  -0.89787  -0.89374  -0.89172  -0.88383
 Alpha  occ. eigenvalues --   -0.88028  -0.87383  -0.86584  -0.85311  -0.85119
 Alpha  occ. eigenvalues --   -0.84512  -0.84044  -0.83560  -0.82772  -0.82441
 Alpha  occ. eigenvalues --   -0.82171  -0.80141  -0.79861  -0.79007  -0.78460
 Alpha  occ. eigenvalues --   -0.77843  -0.77324  -0.77093  -0.76668  -0.76042
 Alpha  occ. eigenvalues --   -0.75663  -0.74745  -0.73397  -0.72176  -0.71030
 Alpha  occ. eigenvalues --   -0.70373  -0.69771  -0.68874  -0.68628  -0.67604
 Alpha  occ. eigenvalues --   -0.67525  -0.67362  -0.66727  -0.66333  -0.66082
 Alpha  occ. eigenvalues --   -0.66018  -0.65801  -0.64447  -0.63672  -0.61900
 Alpha  occ. eigenvalues --   -0.61659  -0.61205  -0.60995  -0.60406  -0.59941
 Alpha  occ. eigenvalues --   -0.59595  -0.58346  -0.58127  -0.57922  -0.57538
 Alpha  occ. eigenvalues --   -0.57049  -0.56810  -0.56377  -0.56059  -0.55871
 Alpha  occ. eigenvalues --   -0.55629  -0.55301  -0.55226  -0.54977  -0.54803
 Alpha  occ. eigenvalues --   -0.54482  -0.54358  -0.54135  -0.53719  -0.53659
 Alpha  occ. eigenvalues --   -0.53546  -0.53060  -0.52809  -0.52697  -0.52400
 Alpha  occ. eigenvalues --   -0.52188  -0.52106  -0.51948  -0.51626  -0.51433
 Alpha  occ. eigenvalues --   -0.51418  -0.51207  -0.51033  -0.50940  -0.50694
 Alpha  occ. eigenvalues --   -0.50550  -0.50484  -0.50244  -0.50002  -0.49892
 Alpha  occ. eigenvalues --   -0.49382  -0.49107  -0.48835  -0.48610  -0.48227
 Alpha  occ. eigenvalues --   -0.48203  -0.48144  -0.47859  -0.47768  -0.47713
 Alpha  occ. eigenvalues --   -0.47421  -0.47344  -0.47148  -0.47082  -0.46498
 Alpha  occ. eigenvalues --   -0.46292  -0.46260  -0.46203  -0.45942  -0.45867
 Alpha  occ. eigenvalues --   -0.45565  -0.45374  -0.45257  -0.45001  -0.44862
 Alpha  occ. eigenvalues --   -0.44789  -0.44434  -0.44288  -0.43999  -0.43965
 Alpha  occ. eigenvalues --   -0.43802  -0.43510  -0.43344  -0.43319  -0.42892
 Alpha  occ. eigenvalues --   -0.42824  -0.42798  -0.42748  -0.42552  -0.41840
 Alpha  occ. eigenvalues --   -0.41556  -0.41312  -0.41163  -0.40935  -0.40563
 Alpha  occ. eigenvalues --   -0.40510  -0.40367  -0.39856  -0.39727  -0.39580
 Alpha  occ. eigenvalues --   -0.39187  -0.39040  -0.38936  -0.38309  -0.38279
 Alpha  occ. eigenvalues --   -0.38063  -0.37282  -0.36252  -0.36070  -0.35811
 Alpha  occ. eigenvalues --   -0.35739  -0.35671  -0.35223  -0.33650  -0.33444
 Alpha  occ. eigenvalues --   -0.33393  -0.32881  -0.32419  -0.31959  -0.25803
 Alpha  occ. eigenvalues --   -0.22997
 Alpha virt. eigenvalues --   -0.06950   0.00599   0.02414   0.04131   0.05704
 Alpha virt. eigenvalues --    0.06281   0.06567   0.07961   0.08316   0.09848
 Alpha virt. eigenvalues --    0.10931   0.11723   0.11791   0.12108   0.12266

 Mulliken charges:
               1
     1  Mg   0.969634
     2  C   -0.014996
     3  C   -0.068286
     4  C   -0.051758
     5  C   -0.079232
     6  N   -0.287601
     7  C   -0.040021
     8  C   -0.101292
     9  C   -0.072836
    10  C   -0.003970
    11  C    0.018253
    12  C    0.022642
    13  C    0.059016
    14  C    0.196461
    15  O   -0.311935
    16  O   -0.337715
    17  N   -0.510458
    18  C    0.192147
    19  C   -0.180760
    20  C   -0.079636
    21  C    0.134833
    22  C    0.068571
    23  C    0.077761
    24  O   -0.255658
    25  C   -0.009278
    26  N   -0.387098
    27  C    0.046921
    28  C   -0.083518
    29  C   -0.104259
    30  C    0.078971
    31  C    0.068450
    32  C   -0.007263
    33  C   -0.057068
    34  N   -0.468199
    35  C    0.124792
    36  C   -0.199404
    37  C   -0.079651
    38  C    0.173398
    39  C    0.088656
    40  C    0.174866
    41  O   -0.223372
    42  C   -0.021819
    43  C    0.284940
    44  O   -0.279365
    45  O   -0.372894
    46  C    0.130605
    47  C    0.280970
    48  C   -0.176374
    49  C   -0.223844
    50  C    0.044811
    51  C    0.037951
    52  C    0.018600
    53  C   -0.015991
    54  C   -0.201999
    55  C   -0.003072
    56  C    0.056646
    57  C   -0.049160
    58  C   -0.002495
    59  C   -0.181085
    60  C    0.014457
    61  C    0.019949
    62  C   -0.032224
    63  C    0.017693
    64  C   -0.229238
    65  C    0.005670
    66  C   -0.005250
    67  H   -0.016389
    68  H    0.013974
    69  H   -0.014556
    70  H    0.061215
    71  H    0.034735
    72  H    0.042875
    73  H    0.021307
    74  H    0.059638
    75  H    0.028593
    76  H    0.026411
    77  H    0.050287
    78  H    0.054715
    79  H    0.053944
    80  H    0.029898
    81  H    0.048141
    82  H    0.048057
    83  H    0.061202
    84  H    0.054527
    85  H    0.024311
    86  H    0.030631
    87  H    0.024141
    88  H    0.058368
    89  H    0.046539
    90  H    0.047748
    91  H    0.043296
    92  H    0.051743
    93  H    0.023959
    94  H    0.041900
    95  H    0.032264
    96  H    0.060261
    97  H    0.071057
    98  H    0.072034
    99  H    0.048205
   100  H    0.066050
   101  H    0.062866
   102  H    0.042732
   103  H    0.073706
   104  H    0.020640
   105  H    0.047256
   106  H    0.044480
   107  H    0.036669
   108  H    0.028320
   109  H    0.022079
   110  H    0.014032
   111  H    0.028631
   112  H   -0.002037
   113  H    0.020231
   114  H    0.025231
   115  H    0.019627
   116  H    0.013496
   117  H    0.040115
   118  H    0.023054
   119  H    0.010658
   120  H    0.025267
   121  H    0.022943
   122  H    0.020904
   123  H    0.018579
   124  H    0.021730
   125  H    0.013374
   126  H    0.024917
   127  H    0.019950
   128  H   -0.001488
   129  H    0.003481
   130  H    0.021436
   131  H    0.015966
   132  H    0.026847
   133  H    0.025688
   134  H    0.021399
   135  H    0.018531
   136  H    0.022458
   137  H    0.039230
   138  H    0.025610
   139  H    0.012980
   140  H    0.029742
 Sum of Mulliken charges =  -0.00000

 Dipole moment (field-independent basis, Debye):
    X=             -5.0481    Y=              1.7065    Z=              3.8598  Tot=              6.5797
 Quadrupole moment (field-independent basis, Debye-Ang):
   XX=           -368.9790   YY=           -431.7239   ZZ=           -406.4704
   XY=             28.3180   XZ=             17.2511   YZ=             -4.6096

 Normal termination of Gaussian 16 at Sat Apr 30 02:04:54 2022.
