 Gaussian 16, Revision A.03,
 Gaussian 16:  ES64L-G16RevA.03 25-Dec-2016

 --------------------
 #p ZINDO=(nstates=5)
 --------------------

 ---------------------------
 step_51_chromophore_6 ZINDO
 ---------------------------
 Symbolic Z-matrix:
 Charge =  0 Multiplicity = 1

                         Standard orientation:
 ---------------------------------------------------------------------
 Center     Atomic      Atomic             Coordinates (Angstroms)
 Number     Number       Type             X           Y           Z
 ---------------------------------------------------------------------
      1         12           0        5.459360    1.220982    0.039214
      2          6           0        4.563242   -2.345995    0.058172
      3          6           0        2.013108    1.766965    0.083234
      4          6           0        6.168803    4.319744   -0.183154
      5          6           0        8.715728    0.290414   -0.384068
      6          7           0        3.508538   -0.235780    0.060699
      7          6           0        3.467116   -1.548480    0.165636
      8          6           0        2.030081   -1.997068    0.259031
      9          6           0        1.142326   -0.697133    0.164841
     10          6           0        2.252747    0.401648    0.141096
     11          6           0        0.152715   -0.715668   -1.000317
     12          6           0        1.827237   -2.736923    1.583323
     13          6           0        0.750069   -3.739254    1.687179
     14          6           0       -0.292251   -3.886738    0.494969
     15          8           0       -0.072059   -4.453272   -0.615800
     16          8           0       -1.446840   -3.313636    0.821401
     17          7           0        4.248800    2.812365    0.009623
     18          6           0        2.879417    2.892211    0.008483
     19          6           0        2.454666    4.288341    0.038371
     20          6           0        3.652927    5.089776    0.044487
     21          6           0        4.760769    4.113964   -0.028896
     22          6           0        1.004592    4.743113    0.250071
     23          6           0        3.850825    6.624784    0.008082
     24          8           0        4.943656    7.194268   -0.198652
     25          6           0        2.679819    7.466175    0.217756
     26          7           0        7.197476    2.165213   -0.499064
     27          6           0        7.271082    3.506294   -0.348784
     28          6           0        8.730110    3.995772   -0.475484
     29          6           0        9.513789    2.720714   -0.008716
     30          6           0        8.454072    1.653637   -0.318885
     31          6           0        9.129359    4.619010   -1.831775
     32          6           0        9.774520    2.592675    1.575609
     33          6           0       11.074344    1.782634    1.998461
     34          7           0        6.454622   -0.567564   -0.155691
     35          6           0        7.818188   -0.800070   -0.253546
     36          6           0        8.117666   -2.223180   -0.292785
     37          6           0        6.876150   -2.828991   -0.224810
     38          6           0        5.872104   -1.848704   -0.142516
     39          6           0        9.466380   -2.921380   -0.464762
     40          6           0        6.233857   -4.197790   -0.169150
     41          8           0        6.711787   -5.355964   -0.193137
     42          6           0        4.772486   -3.882969   -0.025246
     43          6           0        4.042635   -4.643094   -1.126072
     44          8           0        4.183350   -4.394409   -2.354143
     45          8           0        3.205975   -5.612926   -0.560154
     46          6           0        2.430318   -6.315642   -1.620298
     47          6           0       -2.609647   -3.369815   -0.131410
     48          6           0       -3.975480   -3.224650    0.595959
     49          6           0       -5.175590   -3.727037    0.415773
     50          6           0       -5.496348   -4.837812   -0.596976
     51          6           0       -6.203297   -3.479529    1.512876
     52          6           0       -7.200091   -2.392570    1.147665
     53          6           0       -7.063945   -1.155952    2.035404
     54          6           0       -7.342352    0.095257    1.177079
     55          6           0       -6.711369    1.278754    1.971657
     56          6           0       -8.870032    0.345153    1.114531
     57          6           0       -9.455364    0.387824   -0.280245
     58          6           0      -10.896376   -0.340711   -0.369922
     59          6           0      -12.193449    0.639338   -0.148270
     60          6           0      -12.692776    0.442827    1.212664
     61          6           0      -13.321325    0.319544   -1.218682
     62          6           0      -13.826216    1.497806   -2.062688
     63          6           0      -15.326647    1.918055   -1.799681
     64          6           0      -15.370628    2.849891   -0.565644
     65          6           0      -14.905936    4.299674   -0.821617
     66          6           0      -16.813137    2.846345   -0.007706
     67          1           0        0.937228    1.936996    0.155830
     68          1           0        6.433997    5.377779   -0.235807
     69          1           0        9.758710   -0.032115   -0.400672
     70          1           0        1.957189   -2.683054   -0.584531
     71          1           0        0.559148   -0.501678    1.065086
     72          1           0        0.340191    0.135280   -1.654930
     73          1           0       -0.809676   -0.568082   -0.509535
     74          1           0        0.045336   -1.653319   -1.546550
     75          1           0        1.588223   -1.990384    2.341557
     76          1           0        2.797310   -3.183375    1.801157
     77          1           0        0.187047   -3.657178    2.616286
     78          1           0        1.252515   -4.706987    1.666684
     79          1           0        0.881809    5.098770    1.273309
     80          1           0        0.350161    3.871787    0.207869
     81          1           0        0.719690    5.528803   -0.448669
     82          1           0        2.174038    7.165488    1.134669
     83          1           0        1.964367    7.380219   -0.599303
     84          1           0        2.978037    8.509125    0.324968
     85          1           0        8.851670    4.764327    0.287061
     86          1           0       10.429012    2.586565   -0.584348
     87          1           0        9.923264    3.951560   -2.166664
     88          1           0        9.393752    5.666946   -1.691959
     89          1           0        8.331704    4.494245   -2.564580
     90          1           0        8.906561    2.068399    1.975228
     91          1           0        9.851337    3.590566    2.005105
     92          1           0       11.874163    2.512731    2.121814
     93          1           0       11.424282    1.013098    1.310974
     94          1           0       10.849554    1.132058    2.844672
     95          1           0       10.285567   -2.356991   -0.019571
     96          1           0        9.687170   -2.920827   -1.532621
     97          1           0        9.379292   -3.932875   -0.067724
     98          1           0        4.444539   -4.346792    0.904748
     99          1           0        2.879464   -7.241422   -1.980935
    100          1           0        2.362727   -5.684291   -2.506132
    101          1           0        1.444353   -6.573204   -1.233904
    102          1           0       -2.674397   -4.379910   -0.534745
    103          1           0       -2.588286   -2.672164   -0.968594
    104          1           0       -3.901837   -2.544555    1.445065
    105          1           0       -6.014576   -4.318067   -1.403628
    106          1           0       -6.162073   -5.576458   -0.150207
    107          1           0       -4.557591   -5.250876   -0.964212
    108          1           0       -5.654226   -3.187860    2.407612
    109          1           0       -6.629078   -4.470185    1.672211
    110          1           0       -8.169188   -2.794644    1.442813
    111          1           0       -7.339852   -2.168881    0.089929
    112          1           0       -6.058916   -1.108522    2.454507
    113          1           0       -7.640546   -1.189675    2.959298
    114          1           0       -6.808340   -0.022661    0.233662
    115          1           0       -6.751607    2.211909    1.410156
    116          1           0       -5.624718    1.186796    1.961972
    117          1           0       -7.104843    1.303068    2.987959
    118          1           0       -9.100054    1.310762    1.564459
    119          1           0       -9.389162   -0.469995    1.618347
    120          1           0       -8.858767   -0.067420   -1.070348
    121          1           0       -9.509802    1.465321   -0.434864
    122          1           0      -10.929673   -1.156501    0.351301
    123          1           0      -11.024865   -0.736172   -1.377787
    124          1           0      -11.900236    1.689400   -0.169900
    125          1           0      -13.749496    0.176820    1.256795
    126          1           0      -12.634349    1.375388    1.772563
    127          1           0      -12.261944   -0.372577    1.793695
    128          1           0      -14.155747   -0.244564   -0.800630
    129          1           0      -12.998085   -0.464302   -1.902786
    130          1           0      -13.844656    1.125435   -3.087260
    131          1           0      -13.117478    2.308059   -1.888372
    132          1           0      -15.898329    1.008578   -1.615682
    133          1           0      -15.590316    2.521768   -2.668479
    134          1           0      -14.741459    2.470216    0.238438
    135          1           0      -14.767553    4.510070   -1.881550
    136          1           0      -13.881530    4.415757   -0.469098
    137          1           0      -15.596604    5.026628   -0.392222
    138          1           0      -16.712205    2.501655    1.020706
    139          1           0      -17.488298    2.102467   -0.430247
    140          1           0      -17.394312    3.762709   -0.116976
 ---------------------------------------------------------------------

 SCF Done:  E(RZINDO/S) =  -474.007868535     A.U. after   19 cycles

 Excitation energies and oscillator strengths:

 Excited State   1:      Singlet-A      1.2928 eV  959.05 nm  f=0.5734  <S**2>=0.000
     175 ->178         0.17825
     176 ->177         0.66771
 This state for optimization and/or second-order correction.
 Total Energy, E(CIS/TDA) =  -473.960359885
 Copying the excited state density for this state as the 1-particle RhoCI density.

 Excited State   2:      Singlet-A      1.9414 eV  638.62 nm  f=0.0646  <S**2>=0.000
     175 ->177         0.56135
     176 ->178        -0.39578

 Excited State   3:      Singlet-A      2.9788 eV  416.23 nm  f=0.0007  <S**2>=0.000
     167 ->177         0.13495
     167 ->179        -0.19172
     168 ->177         0.34513
     168 ->178        -0.14009
     168 ->179        -0.41090
     168 ->181         0.10145
     168 ->182        -0.17496
     168 ->186         0.15229

 Excited State   4:      Singlet-A      3.0303 eV  409.15 nm  f=0.9687  <S**2>=0.000
     170 ->181        -0.16063
     171 ->177        -0.10896
     175 ->177         0.34043
     176 ->178         0.48804
     176 ->181        -0.13430

 Excited State   5:      Singlet-A      3.0705 eV  403.80 nm  f=0.2376  <S**2>=0.000
     170 ->177         0.19633
     170 ->179         0.19665
     170 ->181         0.37066
     170 ->182        -0.13988
     170 ->186        -0.16899
     170 ->187         0.15172
     170 ->188        -0.10150
     175 ->177         0.14931
     176 ->178         0.24491
     176 ->179         0.17403

 The electronic state is 1-A.
 Alpha  occ. eigenvalues --   -1.83890  -1.81649  -1.78131  -1.71921  -1.69895
 Alpha  occ. eigenvalues --   -1.69099  -1.65773  -1.62155  -1.57689  -1.56645
 Alpha  occ. eigenvalues --   -1.55155  -1.51224  -1.48754  -1.46974  -1.43925
 Alpha  occ. eigenvalues --   -1.42795  -1.42033  -1.39970  -1.38474  -1.38050
 Alpha  occ. eigenvalues --   -1.36344  -1.33535  -1.33339  -1.31101  -1.29376
 Alpha  occ. eigenvalues --   -1.28797  -1.24188  -1.22094  -1.20946  -1.18255
 Alpha  occ. eigenvalues --   -1.17817  -1.16221  -1.15129  -1.14457  -1.13732
 Alpha  occ. eigenvalues --   -1.13179  -1.09819  -1.09198  -1.04615  -1.03916
 Alpha  occ. eigenvalues --   -1.03544  -1.00991  -0.97927  -0.97519  -0.96455
 Alpha  occ. eigenvalues --   -0.95276  -0.94309  -0.93659  -0.93020  -0.92313
 Alpha  occ. eigenvalues --   -0.91766  -0.90329  -0.90085  -0.88596  -0.87395
 Alpha  occ. eigenvalues --   -0.85884  -0.84050  -0.82965  -0.82102  -0.80551
 Alpha  occ. eigenvalues --   -0.78961  -0.78636  -0.77160  -0.76828  -0.76171
 Alpha  occ. eigenvalues --   -0.75261  -0.75124  -0.74609  -0.74151  -0.73194
 Alpha  occ. eigenvalues --   -0.72656  -0.72557  -0.72048  -0.71465  -0.70991
 Alpha  occ. eigenvalues --   -0.69991  -0.69346  -0.68827  -0.68164  -0.68101
 Alpha  occ. eigenvalues --   -0.67269  -0.66586  -0.65994  -0.65702  -0.65207
 Alpha  occ. eigenvalues --   -0.65138  -0.64780  -0.64702  -0.64583  -0.63637
 Alpha  occ. eigenvalues --   -0.63354  -0.63210  -0.62672  -0.62470  -0.61885
 Alpha  occ. eigenvalues --   -0.61642  -0.61009  -0.60469  -0.60245  -0.60077
 Alpha  occ. eigenvalues --   -0.59749  -0.59681  -0.59318  -0.58073  -0.57970
 Alpha  occ. eigenvalues --   -0.57632  -0.57580  -0.57114  -0.56899  -0.56577
 Alpha  occ. eigenvalues --   -0.56221  -0.55986  -0.55174  -0.54762  -0.54453
 Alpha  occ. eigenvalues --   -0.53976  -0.53851  -0.53400  -0.53334  -0.52929
 Alpha  occ. eigenvalues --   -0.52840  -0.52509  -0.51887  -0.51763  -0.50947
 Alpha  occ. eigenvalues --   -0.50776  -0.50671  -0.50154  -0.50078  -0.49898
 Alpha  occ. eigenvalues --   -0.49812  -0.49690  -0.49645  -0.49274  -0.48983
 Alpha  occ. eigenvalues --   -0.48810  -0.48409  -0.48123  -0.47907  -0.47839
 Alpha  occ. eigenvalues --   -0.47617  -0.47477  -0.46782  -0.46639  -0.46396
 Alpha  occ. eigenvalues --   -0.46285  -0.45990  -0.45573  -0.45323  -0.45224
 Alpha  occ. eigenvalues --   -0.44728  -0.44436  -0.44226  -0.43669  -0.43448
 Alpha  occ. eigenvalues --   -0.43243  -0.42664  -0.42332  -0.42276  -0.42182
 Alpha  occ. eigenvalues --   -0.41802  -0.41548  -0.41339  -0.39079  -0.38926
 Alpha  occ. eigenvalues --   -0.38133  -0.37101  -0.36068  -0.34936  -0.34473
 Alpha  occ. eigenvalues --   -0.33858  -0.33237  -0.32534  -0.31866  -0.26555
 Alpha  occ. eigenvalues --   -0.21735
 Alpha virt. eigenvalues --   -0.08342  -0.01642  -0.00504   0.01168   0.01366
 Alpha virt. eigenvalues --    0.02106   0.02605   0.03221   0.04763   0.04963
 Alpha virt. eigenvalues --    0.06370   0.06918   0.07610   0.07964   0.08009

 Mulliken charges:
               1
     1  Mg   0.432453
     2  C   -0.055353
     3  C   -0.056373
     4  C   -0.060498
     5  C   -0.084324
     6  N   -0.303557
     7  C    0.181026
     8  C    0.004956
     9  C    0.004800
    10  C    0.075022
    11  C   -0.051528
    12  C   -0.012061
    13  C    0.011370
    14  C    0.466344
    15  O   -0.545737
    16  O   -0.251487
    17  N   -0.310636
    18  C    0.082575
    19  C   -0.020848
    20  C   -0.067440
    21  C    0.112676
    22  C   -0.044857
    23  C    0.334438
    24  O   -0.541484
    25  C   -0.024039
    26  N   -0.273356
    27  C    0.115517
    28  C    0.003843
    29  C    0.001356
    30  C    0.173621
    31  C   -0.048040
    32  C   -0.029077
    33  C   -0.063970
    34  N   -0.348729
    35  C    0.135363
    36  C    0.048834
    37  C   -0.035184
    38  C    0.123517
    39  C   -0.034888
    40  C    0.340256
    41  O   -0.515196
    42  C    0.063997
    43  C    0.485591
    44  O   -0.519440
    45  O   -0.259338
    46  C    0.069441
    47  C    0.100127
    48  C   -0.088857
    49  C   -0.011159
    50  C   -0.047021
    51  C   -0.018217
    52  C   -0.029602
    53  C   -0.031992
    54  C   -0.015830
    55  C   -0.065222
    56  C   -0.029474
    57  C   -0.043768
    58  C   -0.051132
    59  C   -0.008936
    60  C   -0.051622
    61  C   -0.041235
    62  C   -0.045008
    63  C   -0.033793
    64  C   -0.009655
    65  C   -0.057824
    66  C   -0.066212
    67  H    0.020783
    68  H    0.032675
    69  H    0.017772
    70  H    0.050438
    71  H    0.027105
    72  H    0.027486
    73  H    0.009085
    74  H    0.035504
    75  H    0.021263
    76  H    0.022880
    77  H    0.035646
    78  H    0.036859
    79  H    0.025775
    80  H    0.021997
    81  H    0.031360
    82  H    0.030544
    83  H    0.041338
    84  H    0.033104
    85  H    0.021036
    86  H    0.035826
    87  H    0.020425
    88  H    0.035623
    89  H    0.029237
    90  H    0.029765
    91  H    0.027643
    92  H    0.027130
    93  H    0.018000
    94  H    0.023204
    95  H    0.026020
    96  H    0.039089
    97  H    0.043179
    98  H    0.049166
    99  H    0.039427
   100  H    0.054278
   101  H    0.039906
   102  H    0.047538
   103  H    0.059403
   104  H    0.016050
   105  H    0.028185
   106  H    0.030711
   107  H    0.030406
   108  H    0.024868
   109  H    0.022491
   110  H    0.004531
   111  H    0.033008
   112  H    0.008583
   113  H    0.022903
   114  H    0.033061
   115  H    0.012814
   116  H    0.005388
   117  H    0.029957
   118  H    0.023220
   119  H    0.021079
   120  H    0.022004
   121  H    0.019914
   122  H    0.028401
   123  H    0.015635
   124  H    0.028779
   125  H    0.008656
   126  H    0.010830
   127  H    0.017087
   128  H    0.017651
   129  H    0.010094
   130  H    0.012337
   131  H    0.028531
   132  H    0.031654
   133  H    0.025379
   134  H    0.022684
   135  H    0.015372
   136  H    0.014162
   137  H    0.026201
   138  H    0.013691
   139  H    0.009911
   140  H    0.023137
 Sum of Mulliken charges =  -0.00000

 Dipole moment (field-independent basis, Debye):
    X=             -4.2389    Y=             -0.1348    Z=              6.8593  Tot=              8.0645
 N-N= 4.289906305469D+03 E-N= 0.000000000000D+00  KE=-9.254063038431D+03
 Leave Link  601 at Sat Apr 30 02:17:17 2022, MaxMem=  6710886400 cpu:               1.2 elap:               0.1
 (Enter /sw/apps/gaussian-16.0/g16/l9999.exe)
 1\1\GINC-BP1-COMPUTE102\SP\RZINDO CIS\STO-3G\C55H74Mg1N4O6\OF15641\30-
 Apr-2022\0\\#p ZINDO=(nstates=5)\\step_51_chromophore_6 ZINDO\\0,1\Mg,
 0,17.113,-1.765,27.253\C,0,16.106,0.381,30.065\C,0,19.026,-3.454,29.63
 3\C,0,18.18,-3.529,24.823\C,0,15.43,0.354,25.173\N,0,17.485,-1.486,29.
 643\C,0,16.895,-0.649,30.472\C,0,17.362,-0.927,31.879\C,0,18.404,-2.10
 7,31.786\C,0,18.31,-2.447,30.264\C,0,19.784,-1.749,32.338\C,0,16.151,-
 1.296,32.739\C,0,16.206,-1.06,34.194\C,0,17.581,-0.615,34.858\O,0,18.0

 Normal termination of Gaussian 16 at Sat Apr 30 02:17:17 2022.
