 Gaussian 16, Revision A.03,
 Gaussian 16:  ES64L-G16RevA.03 25-Dec-2016

 ------------------------------
 #p blyp/Def2SVP td=(nstates=5)
 ------------------------------

 --------------------------------------------------
 step_501_chromophore_11 TDDFT with blyp functional
 --------------------------------------------------
 Symbolic Z-matrix:
 Charge =  0 Multiplicity = 1

                         Standard orientation:
 ---------------------------------------------------------------------
 Center     Atomic      Atomic             Coordinates (Angstroms)
 Number     Number       Type             X           Y           Z
 ---------------------------------------------------------------------
      1         12           0       -4.346380    1.645060    0.788271
      2          6           0       -5.495938   -1.609818   -0.084326
      3          6           0       -2.539776    0.289337    3.363334
      4          6           0       -2.454132    4.584854    0.943398
      5          6           0       -5.739844    2.864282   -2.198403
      6          7           0       -3.899009   -0.576982    1.348867
      7          6           0       -4.631220   -1.658770    1.036861
      8          6           0       -4.461597   -2.709454    2.118923
      9          6           0       -3.444236   -2.136159    3.218579
     10          6           0       -3.414994   -0.628449    2.648908
     11          6           0       -4.096059   -2.263310    4.613834
     12          6           0       -3.981764   -4.024601    1.526273
     13          6           0       -2.955040   -3.937326    0.372146
     14          6           0       -1.491939   -4.339445    0.703682
     15          8           0       -0.901329   -4.015971    1.735638
     16          8           0       -0.965420   -5.100097   -0.222567
     17          7           0       -2.747775    2.396606    2.066351
     18          6           0       -2.167865    1.621345    3.046843
     19          6           0       -1.302234    2.497469    3.772146
     20          6           0       -1.153199    3.749829    3.062907
     21          6           0       -2.168150    3.667367    1.982235
     22          6           0       -0.474889    2.034320    4.948879
     23          6           0       -0.094695    4.832376    3.279830
     24          8           0        0.776077    4.673560    4.113523
     25          6           0       -0.049340    6.053137    2.532120
     26          7           0       -4.043190    3.426324   -0.497083
     27          6           0       -3.355586    4.496562   -0.126958
     28          6           0       -3.396102    5.622131   -1.147730
     29          6           0       -4.170747    4.885295   -2.323572
     30          6           0       -4.746425    3.691664   -1.650867
     31          6           0       -4.143278    6.945403   -0.627204
     32          6           0       -3.185316    4.596827   -3.547877
     33          6           0       -3.359182    5.319251   -4.853782
     34          7           0       -5.559447    0.925604   -0.643604
     35          6           0       -6.155341    1.576584   -1.742981
     36          6           0       -7.098776    0.676182   -2.431636
     37          6           0       -6.857253   -0.531904   -1.777762
     38          6           0       -5.833199   -0.413355   -0.774245
     39          6           0       -8.176671    1.002332   -3.522384
     40          6           0       -7.263082   -1.941003   -1.788831
     41          8           0       -8.089127   -2.581774   -2.459626
     42          6           0       -6.429831   -2.694649   -0.700292
     43          6           0       -5.683104   -3.645783   -1.570449
     44          8           0       -4.954647   -3.334168   -2.477444
     45          8           0       -6.035471   -4.896322   -1.286362
     46          6           0       -5.342932   -6.035126   -1.984537
     47          6           0        0.461535   -5.440190   -0.003956
     48          6           0        1.437269   -4.344308   -0.377708
     49          6           0        2.694940   -4.103316    0.072083
     50          6           0        3.610320   -5.065417    0.918980
     51          6           0        3.309440   -2.780398   -0.295986
     52          6           0        4.791701   -2.679222   -0.644552
     53          6           0        5.068258   -1.708263   -1.776540
     54          6           0        5.701665   -0.431915   -1.303680
     55          6           0        5.046908    0.731380   -2.075945
     56          6           0        7.265860   -0.408610   -1.388104
     57          6           0        8.032479   -0.897371   -0.160281
     58          6           0        9.131796    0.113078    0.405393
     59          6           0       10.417532   -0.594955    0.903280
     60          6           0       10.302649   -0.856055    2.462264
     61          6           0       11.687500    0.256681    0.622738
     62          6           0       12.423293   -0.186369   -0.593896
     63          6           0       12.863028    1.031900   -1.427556
     64          6           0       14.383946    1.149865   -1.543799
     65          6           0       15.030275    2.525005   -1.753572
     66          6           0       14.924954    0.092818   -2.564990
     67          1           0       -2.211290   -0.068746    4.341102
     68          1           0       -1.989688    5.572391    0.909748
     69          1           0       -6.030770    3.306852   -3.153919
     70          1           0       -5.503184   -2.780035    2.432402
     71          1           0       -2.470855   -2.626210    3.184090
     72          1           0       -3.455165   -2.892819    5.230822
     73          1           0       -5.076278   -2.740737    4.613914
     74          1           0       -4.110170   -1.255106    5.027002
     75          1           0       -4.835740   -4.585714    1.146730
     76          1           0       -3.473918   -4.622465    2.283638
     77          1           0       -2.731041   -2.951024   -0.033985
     78          1           0       -3.362906   -4.588335   -0.401201
     79          1           0       -0.596240    0.966927    5.135154
     80          1           0       -0.716447    2.679147    5.794530
     81          1           0        0.561095    2.297134    4.737831
     82          1           0        0.141578    5.941378    1.464589
     83          1           0        0.743510    6.687664    2.927720
     84          1           0       -1.054068    6.454227    2.669679
     85          1           0       -2.422787    5.878201   -1.565517
     86          1           0       -4.817445    5.686831   -2.680989
     87          1           0       -4.432704    6.812776    0.415675
     88          1           0       -5.056680    7.049332   -1.213171
     89          1           0       -3.601693    7.883631   -0.757183
     90          1           0       -3.288104    3.571698   -3.903938
     91          1           0       -2.147015    4.753198   -3.258567
     92          1           0       -3.852939    4.726637   -5.623962
     93          1           0       -2.311185    5.477122   -5.110617
     94          1           0       -3.718843    6.344632   -4.766531
     95          1           0       -7.655872    1.140666   -4.469477
     96          1           0       -8.729242    1.875059   -3.173983
     97          1           0       -8.812053    0.125917   -3.648712
     98          1           0       -7.157909   -3.128316   -0.013789
     99          1           0       -5.786475   -6.270177   -2.952338
    100          1           0       -5.369026   -6.942262   -1.379408
    101          1           0       -4.308233   -5.707655   -2.085680
    102          1           0        0.616883   -6.208113   -0.760708
    103          1           0        0.577927   -5.766944    1.029333
    104          1           0        0.883492   -3.525234   -0.837492
    105          1           0        3.265467   -6.039368    0.572900
    106          1           0        3.433888   -4.843156    1.971497
    107          1           0        4.670204   -4.983215    0.677446
    108          1           0        3.149441   -2.131417    0.565016
    109          1           0        2.693508   -2.418697   -1.119302
    110          1           0        5.169312   -3.670168   -0.898506
    111          1           0        5.294788   -2.518986    0.309072
    112          1           0        4.234935   -1.539235   -2.458311
    113          1           0        5.855445   -2.275963   -2.273558
    114          1           0        5.308853   -0.323443   -0.292551
    115          1           0        5.832006    1.337311   -2.527495
    116          1           0        4.394411    1.204491   -1.342431
    117          1           0        4.399713    0.457436   -2.910048
    118          1           0        7.625288    0.557429   -1.744300
    119          1           0        7.640436   -1.170961   -2.070034
    120          1           0        8.563269   -1.795517   -0.477868
    121          1           0        7.334452   -1.166948    0.632360
    122          1           0        8.663320    0.564960    1.280094
    123          1           0        9.302308    0.886578   -0.343807
    124          1           0       10.450768   -1.537160    0.356444
    125          1           0       10.529250    0.059730    3.009128
    126          1           0       10.931285   -1.683900    2.791245
    127          1           0        9.291489   -1.184212    2.699751
    128          1           0       12.304939    0.293986    1.519241
    129          1           0       11.364526    1.295781    0.565954
    130          1           0       11.863518   -0.907156   -1.190675
    131          1           0       13.288717   -0.746271   -0.241441
    132          1           0       12.385856    1.997527   -1.254998
    133          1           0       12.457964    0.780683   -2.408008
    134          1           0       14.605096    0.919446   -0.501604
    135          1           0       14.366148    3.285349   -2.164882
    136          1           0       15.866384    2.567080   -2.450649
    137          1           0       15.428501    2.738849   -0.762050
    138          1           0       15.014175   -0.872687   -2.066991
    139          1           0       15.936907    0.291368   -2.917596
    140          1           0       14.277106    0.045110   -3.439514
 ---------------------------------------------------------------------

 SCF Done:  E(RB-LYP) =  -3007.32621975     A.U. after   21 cycles

 Excitation energies and oscillator strengths:

 Excited State   1:      Singlet-A      1.7982 eV  689.48 nm  f=0.2651  <S**2>=0.000
     244 -> 247        0.14977
     245 -> 248        0.20817
     246 -> 247        0.66789
     246 <- 247       -0.13833
 This state for optimization and/or second-order correction.
 Total Energy, E(TD-HF/TD-DFT) =  -3007.26013572
 Copying the excited state density for this state as the 1-particle RhoCI density.

 Excited State   2:      Singlet-A      1.8266 eV  678.76 nm  f=0.0136  <S**2>=0.000
     244 -> 247        0.67476
     245 -> 247        0.13676
     246 -> 247       -0.15091

 Excited State   3:      Singlet-A      1.9491 eV  636.12 nm  f=0.0001  <S**2>=0.000
     243 -> 247        0.70565

 Excited State   4:      Singlet-A      1.9950 eV  621.47 nm  f=0.0507  <S**2>=0.000
     242 -> 247       -0.12685
     244 -> 247       -0.14260
     245 -> 247        0.61908
     246 -> 248       -0.27148

 Excited State   5:      Singlet-A      2.2026 eV  562.91 nm  f=0.0005  <S**2>=0.000
     241 -> 247        0.69843
     242 -> 247       -0.10880

 The electronic state is 1-A.
 Alpha  occ. eigenvalues --  -46.28327 -18.83015 -18.82090 -18.76229 -18.75795
 Alpha  occ. eigenvalues --  -18.75532 -18.74736 -14.03288 -14.02920 -14.01513
 Alpha  occ. eigenvalues --  -14.00862 -10.03768 -10.03381  -9.99475  -9.99078
 Alpha  occ. eigenvalues --   -9.98299  -9.98190  -9.96989  -9.96663  -9.96510
 Alpha  occ. eigenvalues --   -9.96216  -9.96160  -9.96056  -9.95408  -9.95255
 Alpha  occ. eigenvalues --   -9.94349  -9.94148  -9.94014  -9.93897  -9.93626
 Alpha  occ. eigenvalues --   -9.93624  -9.93547  -9.93525  -9.93233  -9.93162
 Alpha  occ. eigenvalues --   -9.93079  -9.93047  -9.93035  -9.92914  -9.92747
 Alpha  occ. eigenvalues --   -9.92639  -9.92615  -9.92593  -9.92403  -9.91881
 Alpha  occ. eigenvalues --   -9.91816  -9.91640  -9.91615  -9.91581  -9.91573
 Alpha  occ. eigenvalues --   -9.91488  -9.91269  -9.91029  -9.90985  -9.90933
 Alpha  occ. eigenvalues --   -9.90897  -9.90894  -9.90823  -9.90774  -9.90748
 Alpha  occ. eigenvalues --   -9.90688  -9.90497  -9.90479  -9.90424  -9.90259
 Alpha  occ. eigenvalues --   -9.90201  -2.92744  -1.73129  -1.72683  -1.72431
 Alpha  occ. eigenvalues --   -0.99764  -0.98434  -0.91649  -0.90397  -0.89661
 Alpha  occ. eigenvalues --   -0.89440  -0.86694  -0.85714  -0.84684  -0.83859
 Alpha  occ. eigenvalues --   -0.74698  -0.73709  -0.72884  -0.72460  -0.72139
 Alpha  occ. eigenvalues --   -0.71914  -0.71434  -0.70635  -0.70223  -0.69467
 Alpha  occ. eigenvalues --   -0.68881  -0.68562  -0.68073  -0.67784  -0.67323
 Alpha  occ. eigenvalues --   -0.66606  -0.66419  -0.65442  -0.65046  -0.64506
 Alpha  occ. eigenvalues --   -0.63990  -0.62256  -0.62137  -0.61299  -0.60758
 Alpha  occ. eigenvalues --   -0.60681  -0.59979  -0.59604  -0.58982  -0.58902
 Alpha  occ. eigenvalues --   -0.58265  -0.57627  -0.56547  -0.55458  -0.53922
 Alpha  occ. eigenvalues --   -0.53665  -0.53379  -0.52518  -0.52134  -0.51408
 Alpha  occ. eigenvalues --   -0.51070  -0.50836  -0.50587  -0.50035  -0.49551
 Alpha  occ. eigenvalues --   -0.49405  -0.49115  -0.48651  -0.48414  -0.46554
 Alpha  occ. eigenvalues --   -0.46469  -0.45613  -0.45398  -0.44900  -0.44863
 Alpha  occ. eigenvalues --   -0.44029  -0.43346  -0.43104  -0.42477  -0.41920
 Alpha  occ. eigenvalues --   -0.41763  -0.41525  -0.41490  -0.41034  -0.40947
 Alpha  occ. eigenvalues --   -0.40912  -0.40720  -0.40470  -0.40288  -0.40011
 Alpha  occ. eigenvalues --   -0.39739  -0.39640  -0.39475  -0.39351  -0.39156
 Alpha  occ. eigenvalues --   -0.38967  -0.38731  -0.38272  -0.38254  -0.38043
 Alpha  occ. eigenvalues --   -0.37896  -0.37704  -0.37380  -0.37221  -0.37071
 Alpha  occ. eigenvalues --   -0.37032  -0.36799  -0.36694  -0.36156  -0.36107
 Alpha  occ. eigenvalues --   -0.36024  -0.35944  -0.35797  -0.35646  -0.35557
 Alpha  occ. eigenvalues --   -0.35091  -0.35034  -0.34969  -0.34880  -0.34563
 Alpha  occ. eigenvalues --   -0.34376  -0.34246  -0.34147  -0.34005  -0.33705
 Alpha  occ. eigenvalues --   -0.33633  -0.33494  -0.33283  -0.33018  -0.32811
 Alpha  occ. eigenvalues --   -0.32731  -0.32576  -0.32457  -0.32366  -0.32152
 Alpha  occ. eigenvalues --   -0.32081  -0.31854  -0.31770  -0.31575  -0.31520
 Alpha  occ. eigenvalues --   -0.31066  -0.30735  -0.30503  -0.30300  -0.30229
 Alpha  occ. eigenvalues --   -0.29926  -0.29891  -0.29744  -0.29462  -0.29341
 Alpha  occ. eigenvalues --   -0.29111  -0.29078  -0.28989  -0.28853  -0.28828
 Alpha  occ. eigenvalues --   -0.28594  -0.28436  -0.27871  -0.27553  -0.27438
 Alpha  occ. eigenvalues --   -0.27152  -0.26702  -0.26360  -0.26231  -0.26065
 Alpha  occ. eigenvalues --   -0.25887  -0.25864  -0.25235  -0.25162  -0.25154
 Alpha  occ. eigenvalues --   -0.24885  -0.24507  -0.24112  -0.23801  -0.23761
 Alpha  occ. eigenvalues --   -0.23074  -0.22239  -0.21611  -0.21414  -0.20705
 Alpha  occ. eigenvalues --   -0.19601  -0.19391  -0.18554  -0.18149  -0.17301
 Alpha  occ. eigenvalues --   -0.15846
 Alpha virt. eigenvalues --   -0.11505  -0.07194  -0.06103  -0.04496  -0.03732
 Alpha virt. eigenvalues --   -0.02193  -0.01761  -0.01301  -0.01204   0.00229
 Alpha virt. eigenvalues --    0.01170   0.02123   0.02792   0.02903   0.03151

 Mulliken charges:
               1
     1  Mg   0.678891
     2  C   -0.003198
     3  C   -0.044916
     4  C   -0.049878
     5  C   -0.037364
     6  N   -0.198063
     7  C   -0.136939
     8  C    0.099944
     9  C   -0.044606
    10  C    0.017883
    11  C    0.122052
    12  C    0.111320
    13  C    0.099146
    14  C    0.034099
    15  O   -0.214949
    16  O   -0.217795
    17  N   -0.297075
    18  C    0.145014
    19  C   -0.161781
    20  C    0.028303
    21  C    0.140150
    22  C    0.193658
    23  C   -0.095590
    24  O   -0.163912
    25  C    0.162840
    26  N   -0.188173
    27  C    0.001951
    28  C   -0.046564
    29  C    0.041570
    30  C    0.016047
    31  C    0.118954
    32  C    0.064438
    33  C    0.068761
    34  N   -0.323618
    35  C    0.139793
    36  C   -0.193546
    37  C    0.104706
    38  C    0.113321
    39  C    0.181028
    40  C   -0.075844
    41  O   -0.159186
    42  C    0.094898
    43  C    0.087892
    44  O   -0.171380
    45  O   -0.252442
    46  C    0.205957
    47  C    0.321356
    48  C   -0.125472
    49  C   -0.163519
    50  C    0.129965
    51  C    0.126949
    52  C    0.022353
    53  C    0.164786
    54  C   -0.082752
    55  C    0.098610
    56  C    0.123952
    57  C    0.039981
    58  C    0.094173
    59  C   -0.089465
    60  C    0.093967
    61  C    0.127681
    62  C    0.081709
    63  C    0.107890
    64  C   -0.096365
    65  C    0.110508
    66  C    0.101830
    67  H   -0.038771
    68  H   -0.077269
    69  H   -0.062275
    70  H   -0.031426
    71  H    0.016215
    72  H   -0.013207
    73  H   -0.005899
    74  H   -0.006480
    75  H   -0.019431
    76  H   -0.019678
    77  H    0.038779
    78  H   -0.012892
    79  H   -0.015005
    80  H   -0.004907
    81  H    0.007398
    82  H    0.015715
    83  H   -0.008204
    84  H    0.009836
    85  H   -0.020355
    86  H   -0.041098
    87  H   -0.002671
    88  H   -0.014142
    89  H   -0.000350
    90  H   -0.017987
    91  H   -0.017559
    92  H    0.008935
    93  H   -0.018633
    94  H   -0.017569
    95  H    0.006271
    96  H    0.010759
    97  H    0.011003
    98  H   -0.006841
    99  H    0.028995
   100  H    0.017536
   101  H    0.032974
   102  H   -0.005249
   103  H    0.012081
   104  H   -0.021256
   105  H   -0.003718
   106  H    0.019263
   107  H    0.000581
   108  H   -0.012689
   109  H   -0.032318
   110  H   -0.035805
   111  H   -0.028065
   112  H   -0.021951
   113  H   -0.051767
   114  H   -0.033685
   115  H   -0.022941
   116  H   -0.009491
   117  H   -0.024319
   118  H   -0.028759
   119  H   -0.036755
   120  H   -0.037895
   121  H   -0.019198
   122  H   -0.034673
   123  H   -0.027787
   124  H   -0.035859
   125  H   -0.005412
   126  H   -0.017284
   127  H   -0.026251
   128  H   -0.048629
   129  H   -0.041988
   130  H   -0.028535
   131  H   -0.026178
   132  H   -0.034363
   133  H   -0.055080
   134  H   -0.035561
   135  H   -0.018017
   136  H   -0.025843
   137  H   -0.012858
   138  H   -0.016307
   139  H   -0.021490
   140  H   -0.009658
 Sum of Mulliken charges =  -0.00000

 Dipole moment (field-independent basis, Debye):
    X=              0.5184    Y=              0.6116    Z=             -0.6584  Tot=              1.0375
 Quadrupole moment (field-independent basis, Debye-Ang):
   XX=           -412.5134   YY=           -369.1961   ZZ=           -416.2841
   XY=            -28.8169   XZ=            -21.3049   YZ=            -24.4266

 Normal termination of Gaussian 16 at Thu May  5 00:51:41 2022.
