 Gaussian 16, Revision A.03,
 Gaussian 16:  ES64L-G16RevA.03 25-Dec-2016

 -----------------------------------
 #p cam-b3lyp/Def2SVP td=(nstates=5)
 -----------------------------------

 -------------------------------------------------------
 step_501_chromophore_11 TDDFT with cam-b3lyp functional
 -------------------------------------------------------
 Symbolic Z-matrix:
 Charge =  0 Multiplicity = 1

                         Standard orientation:
 ---------------------------------------------------------------------
 Center     Atomic      Atomic             Coordinates (Angstroms)
 Number     Number       Type             X           Y           Z
 ---------------------------------------------------------------------
      1         12           0       -4.346380    1.645060    0.788271
      2          6           0       -5.495938   -1.609818   -0.084326
      3          6           0       -2.539776    0.289337    3.363334
      4          6           0       -2.454132    4.584854    0.943398
      5          6           0       -5.739844    2.864282   -2.198403
      6          7           0       -3.899009   -0.576982    1.348867
      7          6           0       -4.631220   -1.658770    1.036861
      8          6           0       -4.461597   -2.709454    2.118923
      9          6           0       -3.444236   -2.136159    3.218579
     10          6           0       -3.414994   -0.628449    2.648908
     11          6           0       -4.096059   -2.263310    4.613834
     12          6           0       -3.981764   -4.024601    1.526273
     13          6           0       -2.955040   -3.937326    0.372146
     14          6           0       -1.491939   -4.339445    0.703682
     15          8           0       -0.901329   -4.015971    1.735638
     16          8           0       -0.965420   -5.100097   -0.222567
     17          7           0       -2.747775    2.396606    2.066351
     18          6           0       -2.167865    1.621345    3.046843
     19          6           0       -1.302234    2.497469    3.772146
     20          6           0       -1.153199    3.749829    3.062907
     21          6           0       -2.168150    3.667367    1.982235
     22          6           0       -0.474889    2.034320    4.948879
     23          6           0       -0.094695    4.832376    3.279830
     24          8           0        0.776077    4.673560    4.113523
     25          6           0       -0.049340    6.053137    2.532120
     26          7           0       -4.043190    3.426324   -0.497083
     27          6           0       -3.355586    4.496562   -0.126958
     28          6           0       -3.396102    5.622131   -1.147730
     29          6           0       -4.170747    4.885295   -2.323572
     30          6           0       -4.746425    3.691664   -1.650867
     31          6           0       -4.143278    6.945403   -0.627204
     32          6           0       -3.185316    4.596827   -3.547877
     33          6           0       -3.359182    5.319251   -4.853782
     34          7           0       -5.559447    0.925604   -0.643604
     35          6           0       -6.155341    1.576584   -1.742981
     36          6           0       -7.098776    0.676182   -2.431636
     37          6           0       -6.857253   -0.531904   -1.777762
     38          6           0       -5.833199   -0.413355   -0.774245
     39          6           0       -8.176671    1.002332   -3.522384
     40          6           0       -7.263082   -1.941003   -1.788831
     41          8           0       -8.089127   -2.581774   -2.459626
     42          6           0       -6.429831   -2.694649   -0.700292
     43          6           0       -5.683104   -3.645783   -1.570449
     44          8           0       -4.954647   -3.334168   -2.477444
     45          8           0       -6.035471   -4.896322   -1.286362
     46          6           0       -5.342932   -6.035126   -1.984537
     47          6           0        0.461535   -5.440190   -0.003956
     48          6           0        1.437269   -4.344308   -0.377708
     49          6           0        2.694940   -4.103316    0.072083
     50          6           0        3.610320   -5.065417    0.918980
     51          6           0        3.309440   -2.780398   -0.295986
     52          6           0        4.791701   -2.679222   -0.644552
     53          6           0        5.068258   -1.708263   -1.776540
     54          6           0        5.701665   -0.431915   -1.303680
     55          6           0        5.046908    0.731380   -2.075945
     56          6           0        7.265860   -0.408610   -1.388104
     57          6           0        8.032479   -0.897371   -0.160281
     58          6           0        9.131796    0.113078    0.405393
     59          6           0       10.417532   -0.594955    0.903280
     60          6           0       10.302649   -0.856055    2.462264
     61          6           0       11.687500    0.256681    0.622738
     62          6           0       12.423293   -0.186369   -0.593896
     63          6           0       12.863028    1.031900   -1.427556
     64          6           0       14.383946    1.149865   -1.543799
     65          6           0       15.030275    2.525005   -1.753572
     66          6           0       14.924954    0.092818   -2.564990
     67          1           0       -2.211290   -0.068746    4.341102
     68          1           0       -1.989688    5.572391    0.909748
     69          1           0       -6.030770    3.306852   -3.153919
     70          1           0       -5.503184   -2.780035    2.432402
     71          1           0       -2.470855   -2.626210    3.184090
     72          1           0       -3.455165   -2.892819    5.230822
     73          1           0       -5.076278   -2.740737    4.613914
     74          1           0       -4.110170   -1.255106    5.027002
     75          1           0       -4.835740   -4.585714    1.146730
     76          1           0       -3.473918   -4.622465    2.283638
     77          1           0       -2.731041   -2.951024   -0.033985
     78          1           0       -3.362906   -4.588335   -0.401201
     79          1           0       -0.596240    0.966927    5.135154
     80          1           0       -0.716447    2.679147    5.794530
     81          1           0        0.561095    2.297134    4.737831
     82          1           0        0.141578    5.941378    1.464589
     83          1           0        0.743510    6.687664    2.927720
     84          1           0       -1.054068    6.454227    2.669679
     85          1           0       -2.422787    5.878201   -1.565517
     86          1           0       -4.817445    5.686831   -2.680989
     87          1           0       -4.432704    6.812776    0.415675
     88          1           0       -5.056680    7.049332   -1.213171
     89          1           0       -3.601693    7.883631   -0.757183
     90          1           0       -3.288104    3.571698   -3.903938
     91          1           0       -2.147015    4.753198   -3.258567
     92          1           0       -3.852939    4.726637   -5.623962
     93          1           0       -2.311185    5.477122   -5.110617
     94          1           0       -3.718843    6.344632   -4.766531
     95          1           0       -7.655872    1.140666   -4.469477
     96          1           0       -8.729242    1.875059   -3.173983
     97          1           0       -8.812053    0.125917   -3.648712
     98          1           0       -7.157909   -3.128316   -0.013789
     99          1           0       -5.786475   -6.270177   -2.952338
    100          1           0       -5.369026   -6.942262   -1.379408
    101          1           0       -4.308233   -5.707655   -2.085680
    102          1           0        0.616883   -6.208113   -0.760708
    103          1           0        0.577927   -5.766944    1.029333
    104          1           0        0.883492   -3.525234   -0.837492
    105          1           0        3.265467   -6.039368    0.572900
    106          1           0        3.433888   -4.843156    1.971497
    107          1           0        4.670204   -4.983215    0.677446
    108          1           0        3.149441   -2.131417    0.565016
    109          1           0        2.693508   -2.418697   -1.119302
    110          1           0        5.169312   -3.670168   -0.898506
    111          1           0        5.294788   -2.518986    0.309072
    112          1           0        4.234935   -1.539235   -2.458311
    113          1           0        5.855445   -2.275963   -2.273558
    114          1           0        5.308853   -0.323443   -0.292551
    115          1           0        5.832006    1.337311   -2.527495
    116          1           0        4.394411    1.204491   -1.342431
    117          1           0        4.399713    0.457436   -2.910048
    118          1           0        7.625288    0.557429   -1.744300
    119          1           0        7.640436   -1.170961   -2.070034
    120          1           0        8.563269   -1.795517   -0.477868
    121          1           0        7.334452   -1.166948    0.632360
    122          1           0        8.663320    0.564960    1.280094
    123          1           0        9.302308    0.886578   -0.343807
    124          1           0       10.450768   -1.537160    0.356444
    125          1           0       10.529250    0.059730    3.009128
    126          1           0       10.931285   -1.683900    2.791245
    127          1           0        9.291489   -1.184212    2.699751
    128          1           0       12.304939    0.293986    1.519241
    129          1           0       11.364526    1.295781    0.565954
    130          1           0       11.863518   -0.907156   -1.190675
    131          1           0       13.288717   -0.746271   -0.241441
    132          1           0       12.385856    1.997527   -1.254998
    133          1           0       12.457964    0.780683   -2.408008
    134          1           0       14.605096    0.919446   -0.501604
    135          1           0       14.366148    3.285349   -2.164882
    136          1           0       15.866384    2.567080   -2.450649
    137          1           0       15.428501    2.738849   -0.762050
    138          1           0       15.014175   -0.872687   -2.066991
    139          1           0       15.936907    0.291368   -2.917596
    140          1           0       14.277106    0.045110   -3.439514
 ---------------------------------------------------------------------

 SCF Done:  E(RCAM-B3LYP) =  -3007.11662443     A.U. after   18 cycles

 Excitation energies and oscillator strengths:

 Excited State   1:      Singlet-A      1.6853 eV  735.68 nm  f=0.3428  <S**2>=0.000
     245 -> 248        0.19936
     246 -> 247        0.68091
     245 <- 248        0.11476
 This state for optimization and/or second-order correction.
 Total Energy, E(TD-HF/TD-DFT) =  -3007.05469079
 Copying the excited state density for this state as the 1-particle RhoCI density.

 Excited State   2:      Singlet-A      2.1988 eV  563.88 nm  f=0.0726  <S**2>=0.000
     245 -> 247        0.61980
     246 -> 248       -0.32732

 Excited State   3:      Singlet-A      3.1587 eV  392.51 nm  f=0.0090  <S**2>=0.000
     244 -> 247        0.66918
     246 -> 248       -0.18111

 Excited State   4:      Singlet-A      3.4424 eV  360.16 nm  f=0.4831  <S**2>=0.000
     242 -> 247        0.38104
     244 -> 247        0.12793
     245 -> 247        0.25599
     246 -> 248        0.50146

 Excited State   5:      Singlet-A      3.4874 eV  355.52 nm  f=0.1218  <S**2>=0.000
     239 -> 247        0.15231
     239 -> 249        0.11208
     240 -> 247        0.35289
     240 -> 249        0.20851
     240 -> 251        0.12398
     241 -> 247       -0.28332
     241 -> 249       -0.18520
     242 -> 247       -0.24292
     245 -> 247        0.13010
     246 -> 248        0.21576

 The electronic state is 1-A.
 Alpha  occ. eigenvalues --  -46.90007 -19.25906 -19.25047 -19.19039 -19.18817
 Alpha  occ. eigenvalues --  -19.18682 -19.17936 -14.42187 -14.41780 -14.39940
 Alpha  occ. eigenvalues --  -14.39333 -10.38920 -10.38673 -10.34804 -10.34190
 Alpha  occ. eigenvalues --  -10.32438 -10.32273 -10.31672 -10.31138 -10.30764
 Alpha  occ. eigenvalues --  -10.30738 -10.30540 -10.30519 -10.29736 -10.29652
 Alpha  occ. eigenvalues --  -10.28644 -10.28598 -10.28246 -10.28017 -10.27897
 Alpha  occ. eigenvalues --  -10.27779 -10.27761 -10.27532 -10.27527 -10.27266
 Alpha  occ. eigenvalues --  -10.27241 -10.27039 -10.26851 -10.26831 -10.26725
 Alpha  occ. eigenvalues --  -10.26677 -10.26674 -10.26304 -10.26304 -10.25572
 Alpha  occ. eigenvalues --  -10.25562 -10.25547 -10.25525 -10.25436 -10.25361
 Alpha  occ. eigenvalues --  -10.25310 -10.24910 -10.24831 -10.24616 -10.24607
 Alpha  occ. eigenvalues --  -10.24540 -10.24536 -10.24507 -10.24390 -10.24346
 Alpha  occ. eigenvalues --  -10.24281 -10.24103 -10.24054 -10.23996 -10.23815
 Alpha  occ. eigenvalues --  -10.23807  -3.18314  -1.93178  -1.92801  -1.92591
 Alpha  occ. eigenvalues --   -1.18224  -1.17027  -1.10084  -1.08671  -1.07651
 Alpha  occ. eigenvalues --   -1.07221  -1.04415  -1.03416  -1.02173  -1.01408
 Alpha  occ. eigenvalues --   -0.91764  -0.90570  -0.89676  -0.89231  -0.88788
 Alpha  occ. eigenvalues --   -0.88629  -0.88086  -0.87207  -0.86808  -0.85927
 Alpha  occ. eigenvalues --   -0.85193  -0.85173  -0.84392  -0.83917  -0.83507
 Alpha  occ. eigenvalues --   -0.82724  -0.82550  -0.81362  -0.80871  -0.80385
 Alpha  occ. eigenvalues --   -0.79752  -0.77850  -0.77704  -0.76856  -0.76236
 Alpha  occ. eigenvalues --   -0.76088  -0.75323  -0.74918  -0.74226  -0.74136
 Alpha  occ. eigenvalues --   -0.73321  -0.72642  -0.71447  -0.70305  -0.68405
 Alpha  occ. eigenvalues --   -0.68277  -0.67915  -0.66886  -0.66563  -0.65451
 Alpha  occ. eigenvalues --   -0.65260  -0.64896  -0.64618  -0.64071  -0.63528
 Alpha  occ. eigenvalues --   -0.63390  -0.63046  -0.62348  -0.62182  -0.60115
 Alpha  occ. eigenvalues --   -0.60030  -0.59148  -0.59002  -0.58582  -0.58315
 Alpha  occ. eigenvalues --   -0.57486  -0.56655  -0.56463  -0.55659  -0.55045
 Alpha  occ. eigenvalues --   -0.54983  -0.54690  -0.54404  -0.53874  -0.53717
 Alpha  occ. eigenvalues --   -0.53509  -0.53401  -0.53155  -0.52877  -0.52756
 Alpha  occ. eigenvalues --   -0.52476  -0.52355  -0.52307  -0.51848  -0.51589
 Alpha  occ. eigenvalues --   -0.51468  -0.51388  -0.50925  -0.50542  -0.50538
 Alpha  occ. eigenvalues --   -0.50304  -0.50014  -0.49685  -0.49553  -0.49384
 Alpha  occ. eigenvalues --   -0.49244  -0.49192  -0.49123  -0.48823  -0.48616
 Alpha  occ. eigenvalues --   -0.48238  -0.48083  -0.47956  -0.47746  -0.47636
 Alpha  occ. eigenvalues --   -0.47097  -0.46949  -0.46909  -0.46776  -0.46722
 Alpha  occ. eigenvalues --   -0.46351  -0.46204  -0.46038  -0.45798  -0.45577
 Alpha  occ. eigenvalues --   -0.45386  -0.45292  -0.45040  -0.44941  -0.44698
 Alpha  occ. eigenvalues --   -0.44554  -0.44313  -0.44105  -0.43927  -0.43740
 Alpha  occ. eigenvalues --   -0.43572  -0.43494  -0.43389  -0.43195  -0.43043
 Alpha  occ. eigenvalues --   -0.42643  -0.42223  -0.41779  -0.41706  -0.41509
 Alpha  occ. eigenvalues --   -0.41331  -0.41274  -0.41175  -0.41092  -0.40874
 Alpha  occ. eigenvalues --   -0.40666  -0.40287  -0.40128  -0.39986  -0.39799
 Alpha  occ. eigenvalues --   -0.39649  -0.39590  -0.38829  -0.38487  -0.38301
 Alpha  occ. eigenvalues --   -0.37995  -0.37760  -0.37227  -0.37152  -0.37100
 Alpha  occ. eigenvalues --   -0.36903  -0.36624  -0.36373  -0.36100  -0.35944
 Alpha  occ. eigenvalues --   -0.35802  -0.35103  -0.34528  -0.34290  -0.34198
 Alpha  occ. eigenvalues --   -0.34020  -0.33446  -0.33139  -0.31137  -0.30577
 Alpha  occ. eigenvalues --   -0.30523  -0.30077  -0.29242  -0.28740  -0.24063
 Alpha  occ. eigenvalues --   -0.21087
 Alpha virt. eigenvalues --   -0.08559  -0.02302   0.00458   0.01229   0.02610
 Alpha virt. eigenvalues --    0.05022   0.05725   0.06663   0.06817   0.07096
 Alpha virt. eigenvalues --    0.08474   0.08785   0.09171   0.09321   0.09559

 Mulliken charges:
               1
     1  Mg   0.807305
     2  C   -0.028888
     3  C   -0.057685
     4  C   -0.070382
     5  C   -0.046781
     6  N   -0.260184
     7  C   -0.097494
     8  C    0.045195
     9  C   -0.097832
    10  C    0.037336
    11  C    0.065980
    12  C    0.056359
    13  C    0.029938
    14  C    0.120037
    15  O   -0.259915
    16  O   -0.281109
    17  N   -0.383751
    18  C    0.150527
    19  C   -0.160095
    20  C   -0.042159
    21  C    0.173501
    22  C    0.133407
    23  C   -0.013367
    24  O   -0.204801
    25  C    0.070940
    26  N   -0.255839
    27  C    0.022812
    28  C   -0.100881
    29  C   -0.015796
    30  C    0.027741
    31  C    0.062584
    32  C    0.013736
    33  C    0.006436
    34  N   -0.412343
    35  C    0.143128
    36  C   -0.182328
    37  C    0.017094
    38  C    0.149198
    39  C    0.132444
    40  C    0.023225
    41  O   -0.198059
    42  C    0.021773
    43  C    0.173146
    44  O   -0.208679
    45  O   -0.316547
    46  C    0.169605
    47  C    0.287118
    48  C   -0.154573
    49  C   -0.175685
    50  C    0.073921
    51  C    0.072921
    52  C   -0.036579
    53  C    0.104507
    54  C   -0.140833
    55  C    0.043516
    56  C    0.069412
    57  C   -0.006666
    58  C    0.042479
    59  C   -0.145509
    60  C    0.038237
    61  C    0.074543
    62  C    0.023976
    63  C    0.048234
    64  C   -0.154168
    65  C    0.051176
    66  C    0.042770
    67  H   -0.006689
    68  H   -0.042162
    69  H   -0.026147
    70  H    0.005087
    71  H    0.053105
    72  H    0.012376
    73  H    0.019136
    74  H    0.017314
    75  H    0.011757
    76  H    0.013640
    77  H    0.068181
    78  H    0.016036
    79  H    0.010442
    80  H    0.023231
    81  H    0.038012
    82  H    0.044220
    83  H    0.028960
    84  H    0.035016
    85  H    0.014540
    86  H   -0.005971
    87  H    0.022368
    88  H    0.010336
    89  H    0.023715
    90  H    0.011986
    91  H    0.009161
    92  H    0.031164
    93  H    0.005558
    94  H    0.005156
    95  H    0.031165
    96  H    0.034642
    97  H    0.038631
    98  H    0.037064
    99  H    0.053417
   100  H    0.040481
   101  H    0.054251
   102  H    0.025527
   103  H    0.043212
   104  H    0.010983
   105  H    0.018902
   106  H    0.043826
   107  H    0.024228
   108  H    0.015668
   109  H   -0.002828
   110  H   -0.006966
   111  H   -0.000718
   112  H    0.007754
   113  H   -0.020408
   114  H   -0.002370
   115  H    0.000717
   116  H    0.014246
   117  H   -0.000018
   118  H   -0.000935
   119  H   -0.007468
   120  H   -0.010544
   121  H    0.004207
   122  H   -0.005340
   123  H   -0.001040
   124  H   -0.005752
   125  H    0.016851
   126  H    0.007787
   127  H   -0.002546
   128  H   -0.017536
   129  H   -0.013186
   130  H    0.000487
   131  H    0.002299
   132  H   -0.004197
   133  H   -0.024691
   134  H   -0.005538
   135  H    0.005661
   136  H   -0.000717
   137  H    0.010586
   138  H    0.006989
   139  H    0.003359
   140  H    0.013004
 Sum of Mulliken charges =  -0.00000

 Dipole moment (field-independent basis, Debye):
    X=              0.5655    Y=              0.7664    Z=             -0.4311  Tot=              1.0455
 Quadrupole moment (field-independent basis, Debye-Ang):
   XX=           -413.3579   YY=           -364.1028   ZZ=           -415.1825
   XY=            -28.8094   XZ=            -22.2369   YZ=            -25.2943

 Normal termination of Gaussian 16 at Wed May  4 23:19:03 2022.
