 Gaussian 16, Revision A.03,
 Gaussian 16:  ES64L-G16RevA.03 25-Dec-2016

 ---------------------------------
 #p PBE1PBE/Def2SVP td=(nstates=5)
 ---------------------------------

 -----------------------------------------------------
 step_501_chromophore_11 TDDFT with PBE1PBE functional
 -----------------------------------------------------
 Symbolic Z-matrix:
 Charge =  0 Multiplicity = 1

                         Standard orientation:
 ---------------------------------------------------------------------
 Center     Atomic      Atomic             Coordinates (Angstroms)
 Number     Number       Type             X           Y           Z
 ---------------------------------------------------------------------
      1         12           0       -4.346380    1.645060    0.788271
      2          6           0       -5.495938   -1.609818   -0.084326
      3          6           0       -2.539776    0.289337    3.363334
      4          6           0       -2.454132    4.584854    0.943398
      5          6           0       -5.739844    2.864282   -2.198403
      6          7           0       -3.899009   -0.576982    1.348867
      7          6           0       -4.631220   -1.658770    1.036861
      8          6           0       -4.461597   -2.709454    2.118923
      9          6           0       -3.444236   -2.136159    3.218579
     10          6           0       -3.414994   -0.628449    2.648908
     11          6           0       -4.096059   -2.263310    4.613834
     12          6           0       -3.981764   -4.024601    1.526273
     13          6           0       -2.955040   -3.937326    0.372146
     14          6           0       -1.491939   -4.339445    0.703682
     15          8           0       -0.901329   -4.015971    1.735638
     16          8           0       -0.965420   -5.100097   -0.222567
     17          7           0       -2.747775    2.396606    2.066351
     18          6           0       -2.167865    1.621345    3.046843
     19          6           0       -1.302234    2.497469    3.772146
     20          6           0       -1.153199    3.749829    3.062907
     21          6           0       -2.168150    3.667367    1.982235
     22          6           0       -0.474889    2.034320    4.948879
     23          6           0       -0.094695    4.832376    3.279830
     24          8           0        0.776077    4.673560    4.113523
     25          6           0       -0.049340    6.053137    2.532120
     26          7           0       -4.043190    3.426324   -0.497083
     27          6           0       -3.355586    4.496562   -0.126958
     28          6           0       -3.396102    5.622131   -1.147730
     29          6           0       -4.170747    4.885295   -2.323572
     30          6           0       -4.746425    3.691664   -1.650867
     31          6           0       -4.143278    6.945403   -0.627204
     32          6           0       -3.185316    4.596827   -3.547877
     33          6           0       -3.359182    5.319251   -4.853782
     34          7           0       -5.559447    0.925604   -0.643604
     35          6           0       -6.155341    1.576584   -1.742981
     36          6           0       -7.098776    0.676182   -2.431636
     37          6           0       -6.857253   -0.531904   -1.777762
     38          6           0       -5.833199   -0.413355   -0.774245
     39          6           0       -8.176671    1.002332   -3.522384
     40          6           0       -7.263082   -1.941003   -1.788831
     41          8           0       -8.089127   -2.581774   -2.459626
     42          6           0       -6.429831   -2.694649   -0.700292
     43          6           0       -5.683104   -3.645783   -1.570449
     44          8           0       -4.954647   -3.334168   -2.477444
     45          8           0       -6.035471   -4.896322   -1.286362
     46          6           0       -5.342932   -6.035126   -1.984537
     47          6           0        0.461535   -5.440190   -0.003956
     48          6           0        1.437269   -4.344308   -0.377708
     49          6           0        2.694940   -4.103316    0.072083
     50          6           0        3.610320   -5.065417    0.918980
     51          6           0        3.309440   -2.780398   -0.295986
     52          6           0        4.791701   -2.679222   -0.644552
     53          6           0        5.068258   -1.708263   -1.776540
     54          6           0        5.701665   -0.431915   -1.303680
     55          6           0        5.046908    0.731380   -2.075945
     56          6           0        7.265860   -0.408610   -1.388104
     57          6           0        8.032479   -0.897371   -0.160281
     58          6           0        9.131796    0.113078    0.405393
     59          6           0       10.417532   -0.594955    0.903280
     60          6           0       10.302649   -0.856055    2.462264
     61          6           0       11.687500    0.256681    0.622738
     62          6           0       12.423293   -0.186369   -0.593896
     63          6           0       12.863028    1.031900   -1.427556
     64          6           0       14.383946    1.149865   -1.543799
     65          6           0       15.030275    2.525005   -1.753572
     66          6           0       14.924954    0.092818   -2.564990
     67          1           0       -2.211290   -0.068746    4.341102
     68          1           0       -1.989688    5.572391    0.909748
     69          1           0       -6.030770    3.306852   -3.153919
     70          1           0       -5.503184   -2.780035    2.432402
     71          1           0       -2.470855   -2.626210    3.184090
     72          1           0       -3.455165   -2.892819    5.230822
     73          1           0       -5.076278   -2.740737    4.613914
     74          1           0       -4.110170   -1.255106    5.027002
     75          1           0       -4.835740   -4.585714    1.146730
     76          1           0       -3.473918   -4.622465    2.283638
     77          1           0       -2.731041   -2.951024   -0.033985
     78          1           0       -3.362906   -4.588335   -0.401201
     79          1           0       -0.596240    0.966927    5.135154
     80          1           0       -0.716447    2.679147    5.794530
     81          1           0        0.561095    2.297134    4.737831
     82          1           0        0.141578    5.941378    1.464589
     83          1           0        0.743510    6.687664    2.927720
     84          1           0       -1.054068    6.454227    2.669679
     85          1           0       -2.422787    5.878201   -1.565517
     86          1           0       -4.817445    5.686831   -2.680989
     87          1           0       -4.432704    6.812776    0.415675
     88          1           0       -5.056680    7.049332   -1.213171
     89          1           0       -3.601693    7.883631   -0.757183
     90          1           0       -3.288104    3.571698   -3.903938
     91          1           0       -2.147015    4.753198   -3.258567
     92          1           0       -3.852939    4.726637   -5.623962
     93          1           0       -2.311185    5.477122   -5.110617
     94          1           0       -3.718843    6.344632   -4.766531
     95          1           0       -7.655872    1.140666   -4.469477
     96          1           0       -8.729242    1.875059   -3.173983
     97          1           0       -8.812053    0.125917   -3.648712
     98          1           0       -7.157909   -3.128316   -0.013789
     99          1           0       -5.786475   -6.270177   -2.952338
    100          1           0       -5.369026   -6.942262   -1.379408
    101          1           0       -4.308233   -5.707655   -2.085680
    102          1           0        0.616883   -6.208113   -0.760708
    103          1           0        0.577927   -5.766944    1.029333
    104          1           0        0.883492   -3.525234   -0.837492
    105          1           0        3.265467   -6.039368    0.572900
    106          1           0        3.433888   -4.843156    1.971497
    107          1           0        4.670204   -4.983215    0.677446
    108          1           0        3.149441   -2.131417    0.565016
    109          1           0        2.693508   -2.418697   -1.119302
    110          1           0        5.169312   -3.670168   -0.898506
    111          1           0        5.294788   -2.518986    0.309072
    112          1           0        4.234935   -1.539235   -2.458311
    113          1           0        5.855445   -2.275963   -2.273558
    114          1           0        5.308853   -0.323443   -0.292551
    115          1           0        5.832006    1.337311   -2.527495
    116          1           0        4.394411    1.204491   -1.342431
    117          1           0        4.399713    0.457436   -2.910048
    118          1           0        7.625288    0.557429   -1.744300
    119          1           0        7.640436   -1.170961   -2.070034
    120          1           0        8.563269   -1.795517   -0.477868
    121          1           0        7.334452   -1.166948    0.632360
    122          1           0        8.663320    0.564960    1.280094
    123          1           0        9.302308    0.886578   -0.343807
    124          1           0       10.450768   -1.537160    0.356444
    125          1           0       10.529250    0.059730    3.009128
    126          1           0       10.931285   -1.683900    2.791245
    127          1           0        9.291489   -1.184212    2.699751
    128          1           0       12.304939    0.293986    1.519241
    129          1           0       11.364526    1.295781    0.565954
    130          1           0       11.863518   -0.907156   -1.190675
    131          1           0       13.288717   -0.746271   -0.241441
    132          1           0       12.385856    1.997527   -1.254998
    133          1           0       12.457964    0.780683   -2.408008
    134          1           0       14.605096    0.919446   -0.501604
    135          1           0       14.366148    3.285349   -2.164882
    136          1           0       15.866384    2.567080   -2.450649
    137          1           0       15.428501    2.738849   -0.762050
    138          1           0       15.014175   -0.872687   -2.066991
    139          1           0       15.936907    0.291368   -2.917596
    140          1           0       14.277106    0.045110   -3.439514
 ---------------------------------------------------------------------

 SCF Done:  E(RPBE1PBE) =  -3005.30638571     A.U. after   15 cycles

 Excitation energies and oscillator strengths:

 Excited State   1:      Singlet-A      1.8483 eV  670.82 nm  f=0.3351  <S**2>=0.000
     245 -> 248        0.19223
     246 -> 247        0.68780
 This state for optimization and/or second-order correction.
 Total Energy, E(TD-HF/TD-DFT) =  -3005.23846375
 Copying the excited state density for this state as the 1-particle RhoCI density.

 Excited State   2:      Singlet-A      2.2138 eV  560.05 nm  f=0.0727  <S**2>=0.000
     245 -> 247        0.63380
     246 -> 248       -0.29758

 Excited State   3:      Singlet-A      2.8238 eV  439.07 nm  f=0.0063  <S**2>=0.000
     244 -> 247        0.69034
     246 -> 248       -0.11231

 Excited State   4:      Singlet-A      2.9842 eV  415.47 nm  f=0.0001  <S**2>=0.000
     240 -> 247        0.12715
     241 -> 247        0.64984
     241 -> 249        0.16768
     242 -> 247       -0.12131

 Excited State   5:      Singlet-A      3.0189 eV  410.70 nm  f=0.0008  <S**2>=0.000
     241 -> 247        0.11982
     242 -> 247        0.66542
     242 -> 249       -0.13903
     242 -> 250        0.11662

 The electronic state is 1-A.
 Alpha  occ. eigenvalues --  -46.93379 -19.26541 -19.25676 -19.19335 -19.19042
 Alpha  occ. eigenvalues --  -19.18974 -19.18109 -14.41686 -14.41268 -14.39655
 Alpha  occ. eigenvalues --  -14.38983 -10.35934 -10.35684 -10.32033 -10.31261
 Alpha  occ. eigenvalues --  -10.29647 -10.29646 -10.29427 -10.28906 -10.28584
 Alpha  occ. eigenvalues --  -10.28368 -10.28304 -10.28179 -10.27511 -10.27252
 Alpha  occ. eigenvalues --  -10.26514 -10.26374 -10.25906 -10.25877 -10.25590
 Alpha  occ. eigenvalues --  -10.25492 -10.25438 -10.25415 -10.25357 -10.24896
 Alpha  occ. eigenvalues --  -10.24896 -10.24543 -10.24536 -10.24372 -10.24294
 Alpha  occ. eigenvalues --  -10.24278 -10.24189 -10.23984 -10.23665 -10.23367
 Alpha  occ. eigenvalues --  -10.23074 -10.23073 -10.23032 -10.22972 -10.22889
 Alpha  occ. eigenvalues --  -10.22800 -10.22605 -10.22234 -10.22165 -10.22133
 Alpha  occ. eigenvalues --  -10.22110 -10.22078 -10.22074 -10.21869 -10.21790
 Alpha  occ. eigenvalues --  -10.21666 -10.21661 -10.21560 -10.21425 -10.21356
 Alpha  occ. eigenvalues --  -10.21212  -3.15274  -1.88076  -1.87677  -1.87473
 Alpha  occ. eigenvalues --   -1.13043  -1.11793  -1.04783  -1.03439  -1.02470
 Alpha  occ. eigenvalues --   -1.02052  -0.99031  -0.98024  -0.96871  -0.96019
 Alpha  occ. eigenvalues --   -0.86134  -0.84674  -0.83767  -0.83423  -0.83091
 Alpha  occ. eigenvalues --   -0.82769  -0.82393  -0.81309  -0.81124  -0.80294
 Alpha  occ. eigenvalues --   -0.79432  -0.79383  -0.78590  -0.78210  -0.77695
 Alpha  occ. eigenvalues --   -0.76951  -0.76734  -0.75608  -0.75172  -0.74664
 Alpha  occ. eigenvalues --   -0.73947  -0.72146  -0.72007  -0.71151  -0.70541
 Alpha  occ. eigenvalues --   -0.70221  -0.69407  -0.69261  -0.68358  -0.68294
 Alpha  occ. eigenvalues --   -0.67623  -0.67076  -0.65913  -0.64594  -0.62807
 Alpha  occ. eigenvalues --   -0.62749  -0.62152  -0.61212  -0.60964  -0.59871
 Alpha  occ. eigenvalues --   -0.59561  -0.59289  -0.59181  -0.58633  -0.57689
 Alpha  occ. eigenvalues --   -0.57524  -0.57206  -0.56929  -0.56642  -0.54680
 Alpha  occ. eigenvalues --   -0.54328  -0.53672  -0.53557  -0.52993  -0.52838
 Alpha  occ. eigenvalues --   -0.52102  -0.51107  -0.50885  -0.50233  -0.49608
 Alpha  occ. eigenvalues --   -0.49563  -0.49225  -0.48942  -0.48440  -0.48307
 Alpha  occ. eigenvalues --   -0.48020  -0.47935  -0.47608  -0.47417  -0.47300
 Alpha  occ. eigenvalues --   -0.47043  -0.46827  -0.46740  -0.46425  -0.46067
 Alpha  occ. eigenvalues --   -0.45976  -0.45971  -0.45531  -0.45094  -0.45045
 Alpha  occ. eigenvalues --   -0.44866  -0.44663  -0.44234  -0.44100  -0.43964
 Alpha  occ. eigenvalues --   -0.43834  -0.43744  -0.43700  -0.43369  -0.43235
 Alpha  occ. eigenvalues --   -0.42887  -0.42636  -0.42555  -0.42315  -0.42277
 Alpha  occ. eigenvalues --   -0.41756  -0.41610  -0.41464  -0.41421  -0.41317
 Alpha  occ. eigenvalues --   -0.41083  -0.40915  -0.40741  -0.40470  -0.40306
 Alpha  occ. eigenvalues --   -0.40034  -0.39974  -0.39807  -0.39678  -0.39403
 Alpha  occ. eigenvalues --   -0.39272  -0.39052  -0.38832  -0.38647  -0.38534
 Alpha  occ. eigenvalues --   -0.38402  -0.38255  -0.38184  -0.37965  -0.37756
 Alpha  occ. eigenvalues --   -0.37462  -0.37093  -0.36639  -0.36515  -0.36295
 Alpha  occ. eigenvalues --   -0.36173  -0.36097  -0.36011  -0.35796  -0.35714
 Alpha  occ. eigenvalues --   -0.35542  -0.35026  -0.34882  -0.34851  -0.34729
 Alpha  occ. eigenvalues --   -0.34558  -0.34398  -0.33627  -0.33506  -0.33124
 Alpha  occ. eigenvalues --   -0.32804  -0.32712  -0.32229  -0.32032  -0.31922
 Alpha  occ. eigenvalues --   -0.31912  -0.31420  -0.31417  -0.31064  -0.30912
 Alpha  occ. eigenvalues --   -0.30615  -0.29929  -0.29490  -0.29173  -0.29157
 Alpha  occ. eigenvalues --   -0.29012  -0.28704  -0.28295  -0.26766  -0.25840
 Alpha  occ. eigenvalues --   -0.25380  -0.25223  -0.24486  -0.24295  -0.21013
 Alpha  occ. eigenvalues --   -0.18765
 Alpha virt. eigenvalues --   -0.11067  -0.05693  -0.03789  -0.01885  -0.01480
 Alpha virt. eigenvalues --    0.00612   0.01291   0.01959   0.02186   0.03215
 Alpha virt. eigenvalues --    0.04212   0.05084   0.05625   0.05909   0.06233

 Mulliken charges:
               1
     1  Mg   0.945026
     2  C   -0.031455
     3  C   -0.052882
     4  C   -0.066792
     5  C   -0.040277
     6  N   -0.350397
     7  C   -0.030807
     8  C   -0.029624
     9  C   -0.173697
    10  C    0.066254
    11  C    0.011850
    12  C    0.004066
    13  C   -0.054554
    14  C    0.194752
    15  O   -0.292063
    16  O   -0.316086
    17  N   -0.491296
    18  C    0.175659
    19  C   -0.184193
    20  C   -0.093585
    21  C    0.209743
    22  C    0.072927
    23  C    0.036863
    24  O   -0.241289
    25  C   -0.005862
    26  N   -0.355937
    27  C    0.063327
    28  C   -0.178800
    29  C   -0.090638
    30  C    0.059911
    31  C    0.007219
    32  C   -0.041279
    33  C   -0.065194
    34  N   -0.532538
    35  C    0.156165
    36  C   -0.181678
    37  C   -0.040503
    38  C    0.203205
    39  C    0.073999
    40  C    0.111463
    41  O   -0.240621
    42  C   -0.090279
    43  C    0.272561
    44  O   -0.243867
    45  O   -0.351132
    46  C    0.113920
    47  C    0.243619
    48  C   -0.175953
    49  C   -0.206430
    50  C    0.010863
    51  C    0.015432
    52  C   -0.104449
    53  C    0.049466
    54  C   -0.230149
    55  C   -0.012917
    56  C    0.016509
    57  C   -0.067065
    58  C   -0.008976
    59  C   -0.233855
    60  C   -0.025700
    61  C    0.027019
    62  C   -0.039037
    63  C   -0.006616
    64  C   -0.250116
    65  C   -0.006265
    66  C   -0.018424
    67  H    0.023450
    68  H   -0.009623
    69  H    0.006601
    70  H    0.043417
    71  H    0.088790
    72  H    0.040348
    73  H    0.045627
    74  H    0.044739
    75  H    0.046054
    76  H    0.047508
    77  H    0.100336
    78  H    0.057293
    79  H    0.037195
    80  H    0.052061
    81  H    0.065751
    82  H    0.070200
    83  H    0.056800
    84  H    0.061664
    85  H    0.050190
    86  H    0.031696
    87  H    0.049922
    88  H    0.037139
    89  H    0.050622
    90  H    0.045504
    91  H    0.040428
    92  H    0.057856
    93  H    0.034196
    94  H    0.033132
    95  H    0.058728
    96  H    0.061611
    97  H    0.066183
    98  H    0.071758
    99  H    0.075282
   100  H    0.061640
   101  H    0.073292
   102  H    0.053386
   103  H    0.069108
   104  H    0.040535
   105  H    0.046792
   106  H    0.070735
   107  H    0.049462
   108  H    0.049767
   109  H    0.029014
   110  H    0.026514
   111  H    0.032271
   112  H    0.038009
   113  H    0.014600
   114  H    0.037322
   115  H    0.027672
   116  H    0.041510
   117  H    0.026686
   118  H    0.029350
   119  H    0.024938
   120  H    0.021303
   121  H    0.035923
   122  H    0.028791
   123  H    0.030726
   124  H    0.031132
   125  H    0.044179
   126  H    0.036515
   127  H    0.026651
   128  H    0.014862
   129  H    0.018811
   130  H    0.031743
   131  H    0.034472
   132  H    0.026210
   133  H    0.010034
   134  H    0.034387
   135  H    0.032312
   136  H    0.026204
   137  H    0.037401
   138  H    0.034311
   139  H    0.030899
   140  H    0.039531
 Sum of Mulliken charges =  -0.00000

 Dipole moment (field-independent basis, Debye):
    X=              0.4984    Y=              0.8669    Z=             -0.5453  Tot=              1.1390
 Quadrupole moment (field-independent basis, Debye-Ang):
   XX=           -410.0516   YY=           -360.4797   ZZ=           -411.5346
   XY=            -29.2095   XZ=            -21.2966   YZ=            -26.8466

 Normal termination of Gaussian 16 at Wed May  4 23:44:55 2022.
