 Gaussian 16, Revision A.03,
 Gaussian 16:  ES64L-G16RevA.03 25-Dec-2016

 --------------------------------
 #p wB97XD/Def2SVP td=(nstates=5)
 --------------------------------

 ----------------------------------------------------
 step_501_chromophore_11 TDDFT with wB97XD functional
 ----------------------------------------------------
 Symbolic Z-matrix:
 Charge =  0 Multiplicity = 1

                         Standard orientation:
 ---------------------------------------------------------------------
 Center     Atomic      Atomic             Coordinates (Angstroms)
 Number     Number       Type             X           Y           Z
 ---------------------------------------------------------------------
      1         12           0       -4.346380    1.645060    0.788271
      2          6           0       -5.495938   -1.609818   -0.084326
      3          6           0       -2.539776    0.289337    3.363334
      4          6           0       -2.454132    4.584854    0.943398
      5          6           0       -5.739844    2.864282   -2.198403
      6          7           0       -3.899009   -0.576982    1.348867
      7          6           0       -4.631220   -1.658770    1.036861
      8          6           0       -4.461597   -2.709454    2.118923
      9          6           0       -3.444236   -2.136159    3.218579
     10          6           0       -3.414994   -0.628449    2.648908
     11          6           0       -4.096059   -2.263310    4.613834
     12          6           0       -3.981764   -4.024601    1.526273
     13          6           0       -2.955040   -3.937326    0.372146
     14          6           0       -1.491939   -4.339445    0.703682
     15          8           0       -0.901329   -4.015971    1.735638
     16          8           0       -0.965420   -5.100097   -0.222567
     17          7           0       -2.747775    2.396606    2.066351
     18          6           0       -2.167865    1.621345    3.046843
     19          6           0       -1.302234    2.497469    3.772146
     20          6           0       -1.153199    3.749829    3.062907
     21          6           0       -2.168150    3.667367    1.982235
     22          6           0       -0.474889    2.034320    4.948879
     23          6           0       -0.094695    4.832376    3.279830
     24          8           0        0.776077    4.673560    4.113523
     25          6           0       -0.049340    6.053137    2.532120
     26          7           0       -4.043190    3.426324   -0.497083
     27          6           0       -3.355586    4.496562   -0.126958
     28          6           0       -3.396102    5.622131   -1.147730
     29          6           0       -4.170747    4.885295   -2.323572
     30          6           0       -4.746425    3.691664   -1.650867
     31          6           0       -4.143278    6.945403   -0.627204
     32          6           0       -3.185316    4.596827   -3.547877
     33          6           0       -3.359182    5.319251   -4.853782
     34          7           0       -5.559447    0.925604   -0.643604
     35          6           0       -6.155341    1.576584   -1.742981
     36          6           0       -7.098776    0.676182   -2.431636
     37          6           0       -6.857253   -0.531904   -1.777762
     38          6           0       -5.833199   -0.413355   -0.774245
     39          6           0       -8.176671    1.002332   -3.522384
     40          6           0       -7.263082   -1.941003   -1.788831
     41          8           0       -8.089127   -2.581774   -2.459626
     42          6           0       -6.429831   -2.694649   -0.700292
     43          6           0       -5.683104   -3.645783   -1.570449
     44          8           0       -4.954647   -3.334168   -2.477444
     45          8           0       -6.035471   -4.896322   -1.286362
     46          6           0       -5.342932   -6.035126   -1.984537
     47          6           0        0.461535   -5.440190   -0.003956
     48          6           0        1.437269   -4.344308   -0.377708
     49          6           0        2.694940   -4.103316    0.072083
     50          6           0        3.610320   -5.065417    0.918980
     51          6           0        3.309440   -2.780398   -0.295986
     52          6           0        4.791701   -2.679222   -0.644552
     53          6           0        5.068258   -1.708263   -1.776540
     54          6           0        5.701665   -0.431915   -1.303680
     55          6           0        5.046908    0.731380   -2.075945
     56          6           0        7.265860   -0.408610   -1.388104
     57          6           0        8.032479   -0.897371   -0.160281
     58          6           0        9.131796    0.113078    0.405393
     59          6           0       10.417532   -0.594955    0.903280
     60          6           0       10.302649   -0.856055    2.462264
     61          6           0       11.687500    0.256681    0.622738
     62          6           0       12.423293   -0.186369   -0.593896
     63          6           0       12.863028    1.031900   -1.427556
     64          6           0       14.383946    1.149865   -1.543799
     65          6           0       15.030275    2.525005   -1.753572
     66          6           0       14.924954    0.092818   -2.564990
     67          1           0       -2.211290   -0.068746    4.341102
     68          1           0       -1.989688    5.572391    0.909748
     69          1           0       -6.030770    3.306852   -3.153919
     70          1           0       -5.503184   -2.780035    2.432402
     71          1           0       -2.470855   -2.626210    3.184090
     72          1           0       -3.455165   -2.892819    5.230822
     73          1           0       -5.076278   -2.740737    4.613914
     74          1           0       -4.110170   -1.255106    5.027002
     75          1           0       -4.835740   -4.585714    1.146730
     76          1           0       -3.473918   -4.622465    2.283638
     77          1           0       -2.731041   -2.951024   -0.033985
     78          1           0       -3.362906   -4.588335   -0.401201
     79          1           0       -0.596240    0.966927    5.135154
     80          1           0       -0.716447    2.679147    5.794530
     81          1           0        0.561095    2.297134    4.737831
     82          1           0        0.141578    5.941378    1.464589
     83          1           0        0.743510    6.687664    2.927720
     84          1           0       -1.054068    6.454227    2.669679
     85          1           0       -2.422787    5.878201   -1.565517
     86          1           0       -4.817445    5.686831   -2.680989
     87          1           0       -4.432704    6.812776    0.415675
     88          1           0       -5.056680    7.049332   -1.213171
     89          1           0       -3.601693    7.883631   -0.757183
     90          1           0       -3.288104    3.571698   -3.903938
     91          1           0       -2.147015    4.753198   -3.258567
     92          1           0       -3.852939    4.726637   -5.623962
     93          1           0       -2.311185    5.477122   -5.110617
     94          1           0       -3.718843    6.344632   -4.766531
     95          1           0       -7.655872    1.140666   -4.469477
     96          1           0       -8.729242    1.875059   -3.173983
     97          1           0       -8.812053    0.125917   -3.648712
     98          1           0       -7.157909   -3.128316   -0.013789
     99          1           0       -5.786475   -6.270177   -2.952338
    100          1           0       -5.369026   -6.942262   -1.379408
    101          1           0       -4.308233   -5.707655   -2.085680
    102          1           0        0.616883   -6.208113   -0.760708
    103          1           0        0.577927   -5.766944    1.029333
    104          1           0        0.883492   -3.525234   -0.837492
    105          1           0        3.265467   -6.039368    0.572900
    106          1           0        3.433888   -4.843156    1.971497
    107          1           0        4.670204   -4.983215    0.677446
    108          1           0        3.149441   -2.131417    0.565016
    109          1           0        2.693508   -2.418697   -1.119302
    110          1           0        5.169312   -3.670168   -0.898506
    111          1           0        5.294788   -2.518986    0.309072
    112          1           0        4.234935   -1.539235   -2.458311
    113          1           0        5.855445   -2.275963   -2.273558
    114          1           0        5.308853   -0.323443   -0.292551
    115          1           0        5.832006    1.337311   -2.527495
    116          1           0        4.394411    1.204491   -1.342431
    117          1           0        4.399713    0.457436   -2.910048
    118          1           0        7.625288    0.557429   -1.744300
    119          1           0        7.640436   -1.170961   -2.070034
    120          1           0        8.563269   -1.795517   -0.477868
    121          1           0        7.334452   -1.166948    0.632360
    122          1           0        8.663320    0.564960    1.280094
    123          1           0        9.302308    0.886578   -0.343807
    124          1           0       10.450768   -1.537160    0.356444
    125          1           0       10.529250    0.059730    3.009128
    126          1           0       10.931285   -1.683900    2.791245
    127          1           0        9.291489   -1.184212    2.699751
    128          1           0       12.304939    0.293986    1.519241
    129          1           0       11.364526    1.295781    0.565954
    130          1           0       11.863518   -0.907156   -1.190675
    131          1           0       13.288717   -0.746271   -0.241441
    132          1           0       12.385856    1.997527   -1.254998
    133          1           0       12.457964    0.780683   -2.408008
    134          1           0       14.605096    0.919446   -0.501604
    135          1           0       14.366148    3.285349   -2.164882
    136          1           0       15.866384    2.567080   -2.450649
    137          1           0       15.428501    2.738849   -0.762050
    138          1           0       15.014175   -0.872687   -2.066991
    139          1           0       15.936907    0.291368   -2.917596
    140          1           0       14.277106    0.045110   -3.439514
 ---------------------------------------------------------------------

 SCF Done:  E(RwB97XD) =  -3007.81456238     A.U. after   20 cycles

 Excitation energies and oscillator strengths:

 Excited State   1:      Singlet-A      1.6257 eV  762.64 nm  f=0.3410  <S**2>=0.000
     245 -> 248        0.20546
     246 -> 247        0.67893
     245 <- 248        0.12496
 This state for optimization and/or second-order correction.
 Total Energy, E(TD-HF/TD-DFT) =  -3007.75481790
 Copying the excited state density for this state as the 1-particle RhoCI density.

 Excited State   2:      Singlet-A      2.1404 eV  579.27 nm  f=0.0706  <S**2>=0.000
     245 -> 247        0.61807
     246 -> 248       -0.32910

 Excited State   3:      Singlet-A      3.1793 eV  389.97 nm  f=0.0149  <S**2>=0.000
     244 -> 247        0.65659
     244 -> 249       -0.10551
     246 -> 248       -0.20411

 Excited State   4:      Singlet-A      3.4502 eV  359.35 nm  f=0.4713  <S**2>=0.000
     242 -> 247        0.38679
     244 -> 247        0.14327
     245 -> 247        0.25213
     246 -> 248        0.49375

 Excited State   5:      Singlet-A      3.5199 eV  352.24 nm  f=0.1133  <S**2>=0.000
     240 -> 247        0.40522
     240 -> 249        0.28900
     240 -> 251       -0.15390
     242 -> 247       -0.32004
     242 -> 249       -0.15912
     245 -> 247        0.12585
     246 -> 248        0.19859

 The electronic state is 1-A.
 Alpha  occ. eigenvalues --  -46.96336 -19.31106 -19.30253 -19.23972 -19.23744
 Alpha  occ. eigenvalues --  -19.23724 -19.22955 -14.46767 -14.46363 -14.44541
 Alpha  occ. eigenvalues --  -14.43944 -10.42701 -10.42504 -10.38825 -10.38131
 Alpha  occ. eigenvalues --  -10.36193 -10.36133 -10.35781 -10.35140 -10.34849
 Alpha  occ. eigenvalues --  -10.34758 -10.34553 -10.34500 -10.33735 -10.33719
 Alpha  occ. eigenvalues --  -10.32786 -10.32711 -10.32292 -10.32076 -10.32059
 Alpha  occ. eigenvalues --  -10.31874 -10.31857 -10.31584 -10.31575 -10.31261
 Alpha  occ. eigenvalues --  -10.31256 -10.30983 -10.30960 -10.30800 -10.30695
 Alpha  occ. eigenvalues --  -10.30651 -10.30555 -10.30220 -10.30121 -10.29598
 Alpha  occ. eigenvalues --  -10.29471 -10.29449 -10.29388 -10.29347 -10.29244
 Alpha  occ. eigenvalues --  -10.29228 -10.28870 -10.28766 -10.28533 -10.28509
 Alpha  occ. eigenvalues --  -10.28464 -10.28459 -10.28433 -10.28242 -10.28227
 Alpha  occ. eigenvalues --  -10.28100 -10.28009 -10.27912 -10.27846 -10.27724
 Alpha  occ. eigenvalues --  -10.27619  -3.22131  -1.95676  -1.95277  -1.95064
 Alpha  occ. eigenvalues --   -1.20400  -1.19187  -1.12295  -1.10880  -1.09839
 Alpha  occ. eigenvalues --   -1.09381  -1.06405  -1.05409  -1.04196  -1.03466
 Alpha  occ. eigenvalues --   -0.93730  -0.92336  -0.91428  -0.91062  -0.90658
 Alpha  occ. eigenvalues --   -0.90428  -0.89996  -0.88971  -0.88737  -0.87867
 Alpha  occ. eigenvalues --   -0.87157  -0.87052  -0.86262  -0.85784  -0.85363
 Alpha  occ. eigenvalues --   -0.84646  -0.84405  -0.83250  -0.82795  -0.82287
 Alpha  occ. eigenvalues --   -0.81599  -0.79758  -0.79621  -0.78800  -0.78177
 Alpha  occ. eigenvalues --   -0.77912  -0.77104  -0.76865  -0.76041  -0.75957
 Alpha  occ. eigenvalues --   -0.75226  -0.74620  -0.73440  -0.72218  -0.70322
 Alpha  occ. eigenvalues --   -0.70275  -0.69778  -0.68796  -0.68537  -0.67351
 Alpha  occ. eigenvalues --   -0.67138  -0.66832  -0.66638  -0.66072  -0.65338
 Alpha  occ. eigenvalues --   -0.65192  -0.64850  -0.64333  -0.64124  -0.62071
 Alpha  occ. eigenvalues --   -0.61886  -0.61118  -0.60974  -0.60527  -0.60278
 Alpha  occ. eigenvalues --   -0.59501  -0.58573  -0.58372  -0.57645  -0.56985
 Alpha  occ. eigenvalues --   -0.56949  -0.56610  -0.56319  -0.55804  -0.55656
 Alpha  occ. eigenvalues --   -0.55384  -0.55255  -0.55017  -0.54744  -0.54700
 Alpha  occ. eigenvalues --   -0.54421  -0.54310  -0.54191  -0.53754  -0.53448
 Alpha  occ. eigenvalues --   -0.53348  -0.53308  -0.52832  -0.52459  -0.52402
 Alpha  occ. eigenvalues --   -0.52188  -0.51923  -0.51591  -0.51443  -0.51275
 Alpha  occ. eigenvalues --   -0.51164  -0.51080  -0.51008  -0.50796  -0.50547
 Alpha  occ. eigenvalues --   -0.50183  -0.49936  -0.49840  -0.49608  -0.49548
 Alpha  occ. eigenvalues --   -0.49010  -0.48863  -0.48756  -0.48672  -0.48619
 Alpha  occ. eigenvalues --   -0.48292  -0.48115  -0.47936  -0.47690  -0.47487
 Alpha  occ. eigenvalues --   -0.47285  -0.47204  -0.46948  -0.46866  -0.46593
 Alpha  occ. eigenvalues --   -0.46453  -0.46193  -0.46013  -0.45799  -0.45661
 Alpha  occ. eigenvalues --   -0.45436  -0.45410  -0.45314  -0.45102  -0.44916
 Alpha  occ. eigenvalues --   -0.44630  -0.44163  -0.43712  -0.43603  -0.43383
 Alpha  occ. eigenvalues --   -0.43317  -0.43199  -0.43128  -0.42930  -0.42784
 Alpha  occ. eigenvalues --   -0.42582  -0.42135  -0.41977  -0.41860  -0.41732
 Alpha  occ. eigenvalues --   -0.41523  -0.41484  -0.40680  -0.40385  -0.40154
 Alpha  occ. eigenvalues --   -0.39844  -0.39677  -0.39197  -0.39072  -0.38951
 Alpha  occ. eigenvalues --   -0.38935  -0.38459  -0.38451  -0.37974  -0.37866
 Alpha  occ. eigenvalues --   -0.37642  -0.36933  -0.36362  -0.36127  -0.36111
 Alpha  occ. eigenvalues --   -0.35991  -0.35410  -0.35338  -0.33333  -0.32570
 Alpha  occ. eigenvalues --   -0.32467  -0.32181  -0.31246  -0.30938  -0.25978
 Alpha  occ. eigenvalues --   -0.22888
 Alpha virt. eigenvalues --   -0.06909  -0.00410   0.02539   0.04340   0.04758
 Alpha virt. eigenvalues --    0.07391   0.07975   0.08771   0.09110   0.09789
 Alpha virt. eigenvalues --    0.11009   0.11735   0.12253   0.12667   0.12922

 Mulliken charges:
               1
     1  Mg   0.940556
     2  C   -0.042182
     3  C   -0.067562
     4  C   -0.079631
     5  C   -0.056001
     6  N   -0.320514
     7  C   -0.055102
     8  C   -0.005722
     9  C   -0.148300
    10  C    0.055978
    11  C    0.021353
    12  C    0.019124
    13  C   -0.028757
    14  C    0.181433
    15  O   -0.289009
    16  O   -0.314843
    17  N   -0.462714
    18  C    0.167593
    19  C   -0.174640
    20  C   -0.087266
    21  C    0.202337
    22  C    0.084556
    23  C    0.035608
    24  O   -0.236303
    25  C    0.005363
    26  N   -0.323020
    27  C    0.047619
    28  C   -0.151673
    29  C   -0.061868
    30  C    0.045878
    31  C    0.017343
    32  C   -0.028656
    33  C   -0.050313
    34  N   -0.500865
    35  C    0.150020
    36  C   -0.185798
    37  C   -0.035151
    38  C    0.185876
    39  C    0.087797
    40  C    0.097204
    41  O   -0.232338
    42  C   -0.051400
    43  C    0.242550
    44  O   -0.237676
    45  O   -0.347677
    46  C    0.129277
    47  C    0.261923
    48  C   -0.181753
    49  C   -0.200642
    50  C    0.025760
    51  C    0.033196
    52  C   -0.084257
    53  C    0.065652
    54  C   -0.200081
    55  C   -0.000544
    56  C    0.032602
    57  C   -0.048699
    58  C    0.004843
    59  C   -0.202211
    60  C   -0.010824
    61  C    0.039520
    62  C   -0.023338
    63  C    0.007331
    64  C   -0.215423
    65  C    0.003107
    66  C   -0.005239
    67  H    0.015671
    68  H   -0.020611
    69  H    0.002440
    70  H    0.031987
    71  H    0.078488
    72  H    0.035573
    73  H    0.040686
    74  H    0.036976
    75  H    0.036147
    76  H    0.039236
    77  H    0.091879
    78  H    0.040223
    79  H    0.033079
    80  H    0.047887
    81  H    0.061222
    82  H    0.066107
    83  H    0.056225
    84  H    0.054786
    85  H    0.039865
    86  H    0.017566
    87  H    0.043567
    88  H    0.031024
    89  H    0.045880
    90  H    0.036956
    91  H    0.031609
    92  H    0.052943
    93  H    0.027582
    94  H    0.026493
    95  H    0.053513
    96  H    0.056257
    97  H    0.062509
    98  H    0.067768
    99  H    0.072772
   100  H    0.058734
   101  H    0.069237
   102  H    0.049427
   103  H    0.064039
   104  H    0.036396
   105  H    0.040477
   106  H    0.066358
   107  H    0.044271
   108  H    0.041662
   109  H    0.018765
   110  H    0.016153
   111  H    0.021139
   112  H    0.029448
   113  H    0.003954
   114  H    0.022142
   115  H    0.021418
   116  H    0.036298
   117  H    0.020556
   118  H    0.019710
   119  H    0.015749
   120  H    0.011859
   121  H    0.024562
   122  H    0.019303
   123  H    0.020196
   124  H    0.016536
   125  H    0.037395
   126  H    0.031074
   127  H    0.019350
   128  H    0.007341
   129  H    0.007559
   130  H    0.023989
   131  H    0.024717
   132  H    0.018711
   133  H   -0.000808
   134  H    0.019082
   135  H    0.027006
   136  H    0.020370
   137  H    0.032201
   138  H    0.028026
   139  H    0.024944
   140  H    0.032942
 Sum of Mulliken charges =  -0.00000

 Dipole moment (field-independent basis, Debye):
    X=              0.5855    Y=              0.8569    Z=             -0.3511  Tot=              1.0956
 Quadrupole moment (field-independent basis, Debye-Ang):
   XX=           -410.0209   YY=           -359.4581   ZZ=           -411.1209
   XY=            -28.7386   XZ=            -22.0085   YZ=            -25.9536

 Normal termination of Gaussian 16 at Thu May  5 00:30:50 2022.
