 Gaussian 16, Revision A.03,
 Gaussian 16:  ES64L-G16RevA.03 25-Dec-2016

 --------------------
 #p ZINDO=(nstates=5)
 --------------------

 -----------------------------
 step_501_chromophore_11 ZINDO
 -----------------------------
 Symbolic Z-matrix:
 Charge =  0 Multiplicity = 1

                         Standard orientation:
 ---------------------------------------------------------------------
 Center     Atomic      Atomic             Coordinates (Angstroms)
 Number     Number       Type             X           Y           Z
 ---------------------------------------------------------------------
      1         12           0       -4.346380    1.645060    0.788271
      2          6           0       -5.495938   -1.609818   -0.084326
      3          6           0       -2.539776    0.289337    3.363334
      4          6           0       -2.454132    4.584854    0.943398
      5          6           0       -5.739844    2.864282   -2.198403
      6          7           0       -3.899009   -0.576982    1.348867
      7          6           0       -4.631220   -1.658770    1.036861
      8          6           0       -4.461597   -2.709454    2.118923
      9          6           0       -3.444236   -2.136159    3.218579
     10          6           0       -3.414994   -0.628449    2.648908
     11          6           0       -4.096059   -2.263310    4.613834
     12          6           0       -3.981764   -4.024601    1.526273
     13          6           0       -2.955040   -3.937326    0.372146
     14          6           0       -1.491939   -4.339445    0.703682
     15          8           0       -0.901329   -4.015971    1.735638
     16          8           0       -0.965420   -5.100097   -0.222567
     17          7           0       -2.747775    2.396606    2.066351
     18          6           0       -2.167865    1.621345    3.046843
     19          6           0       -1.302234    2.497469    3.772146
     20          6           0       -1.153199    3.749829    3.062907
     21          6           0       -2.168150    3.667367    1.982235
     22          6           0       -0.474889    2.034320    4.948879
     23          6           0       -0.094695    4.832376    3.279830
     24          8           0        0.776077    4.673560    4.113523
     25          6           0       -0.049340    6.053137    2.532120
     26          7           0       -4.043190    3.426324   -0.497083
     27          6           0       -3.355586    4.496562   -0.126958
     28          6           0       -3.396102    5.622131   -1.147730
     29          6           0       -4.170747    4.885295   -2.323572
     30          6           0       -4.746425    3.691664   -1.650867
     31          6           0       -4.143278    6.945403   -0.627204
     32          6           0       -3.185316    4.596827   -3.547877
     33          6           0       -3.359182    5.319251   -4.853782
     34          7           0       -5.559447    0.925604   -0.643604
     35          6           0       -6.155341    1.576584   -1.742981
     36          6           0       -7.098776    0.676182   -2.431636
     37          6           0       -6.857253   -0.531904   -1.777762
     38          6           0       -5.833199   -0.413355   -0.774245
     39          6           0       -8.176671    1.002332   -3.522384
     40          6           0       -7.263082   -1.941003   -1.788831
     41          8           0       -8.089127   -2.581774   -2.459626
     42          6           0       -6.429831   -2.694649   -0.700292
     43          6           0       -5.683104   -3.645783   -1.570449
     44          8           0       -4.954647   -3.334168   -2.477444
     45          8           0       -6.035471   -4.896322   -1.286362
     46          6           0       -5.342932   -6.035126   -1.984537
     47          6           0        0.461535   -5.440190   -0.003956
     48          6           0        1.437269   -4.344308   -0.377708
     49          6           0        2.694940   -4.103316    0.072083
     50          6           0        3.610320   -5.065417    0.918980
     51          6           0        3.309440   -2.780398   -0.295986
     52          6           0        4.791701   -2.679222   -0.644552
     53          6           0        5.068258   -1.708263   -1.776540
     54          6           0        5.701665   -0.431915   -1.303680
     55          6           0        5.046908    0.731380   -2.075945
     56          6           0        7.265860   -0.408610   -1.388104
     57          6           0        8.032479   -0.897371   -0.160281
     58          6           0        9.131796    0.113078    0.405393
     59          6           0       10.417532   -0.594955    0.903280
     60          6           0       10.302649   -0.856055    2.462264
     61          6           0       11.687500    0.256681    0.622738
     62          6           0       12.423293   -0.186369   -0.593896
     63          6           0       12.863028    1.031900   -1.427556
     64          6           0       14.383946    1.149865   -1.543799
     65          6           0       15.030275    2.525005   -1.753572
     66          6           0       14.924954    0.092818   -2.564990
     67          1           0       -2.211290   -0.068746    4.341102
     68          1           0       -1.989688    5.572391    0.909748
     69          1           0       -6.030770    3.306852   -3.153919
     70          1           0       -5.503184   -2.780035    2.432402
     71          1           0       -2.470855   -2.626210    3.184090
     72          1           0       -3.455165   -2.892819    5.230822
     73          1           0       -5.076278   -2.740737    4.613914
     74          1           0       -4.110170   -1.255106    5.027002
     75          1           0       -4.835740   -4.585714    1.146730
     76          1           0       -3.473918   -4.622465    2.283638
     77          1           0       -2.731041   -2.951024   -0.033985
     78          1           0       -3.362906   -4.588335   -0.401201
     79          1           0       -0.596240    0.966927    5.135154
     80          1           0       -0.716447    2.679147    5.794530
     81          1           0        0.561095    2.297134    4.737831
     82          1           0        0.141578    5.941378    1.464589
     83          1           0        0.743510    6.687664    2.927720
     84          1           0       -1.054068    6.454227    2.669679
     85          1           0       -2.422787    5.878201   -1.565517
     86          1           0       -4.817445    5.686831   -2.680989
     87          1           0       -4.432704    6.812776    0.415675
     88          1           0       -5.056680    7.049332   -1.213171
     89          1           0       -3.601693    7.883631   -0.757183
     90          1           0       -3.288104    3.571698   -3.903938
     91          1           0       -2.147015    4.753198   -3.258567
     92          1           0       -3.852939    4.726637   -5.623962
     93          1           0       -2.311185    5.477122   -5.110617
     94          1           0       -3.718843    6.344632   -4.766531
     95          1           0       -7.655872    1.140666   -4.469477
     96          1           0       -8.729242    1.875059   -3.173983
     97          1           0       -8.812053    0.125917   -3.648712
     98          1           0       -7.157909   -3.128316   -0.013789
     99          1           0       -5.786475   -6.270177   -2.952338
    100          1           0       -5.369026   -6.942262   -1.379408
    101          1           0       -4.308233   -5.707655   -2.085680
    102          1           0        0.616883   -6.208113   -0.760708
    103          1           0        0.577927   -5.766944    1.029333
    104          1           0        0.883492   -3.525234   -0.837492
    105          1           0        3.265467   -6.039368    0.572900
    106          1           0        3.433888   -4.843156    1.971497
    107          1           0        4.670204   -4.983215    0.677446
    108          1           0        3.149441   -2.131417    0.565016
    109          1           0        2.693508   -2.418697   -1.119302
    110          1           0        5.169312   -3.670168   -0.898506
    111          1           0        5.294788   -2.518986    0.309072
    112          1           0        4.234935   -1.539235   -2.458311
    113          1           0        5.855445   -2.275963   -2.273558
    114          1           0        5.308853   -0.323443   -0.292551
    115          1           0        5.832006    1.337311   -2.527495
    116          1           0        4.394411    1.204491   -1.342431
    117          1           0        4.399713    0.457436   -2.910048
    118          1           0        7.625288    0.557429   -1.744300
    119          1           0        7.640436   -1.170961   -2.070034
    120          1           0        8.563269   -1.795517   -0.477868
    121          1           0        7.334452   -1.166948    0.632360
    122          1           0        8.663320    0.564960    1.280094
    123          1           0        9.302308    0.886578   -0.343807
    124          1           0       10.450768   -1.537160    0.356444
    125          1           0       10.529250    0.059730    3.009128
    126          1           0       10.931285   -1.683900    2.791245
    127          1           0        9.291489   -1.184212    2.699751
    128          1           0       12.304939    0.293986    1.519241
    129          1           0       11.364526    1.295781    0.565954
    130          1           0       11.863518   -0.907156   -1.190675
    131          1           0       13.288717   -0.746271   -0.241441
    132          1           0       12.385856    1.997527   -1.254998
    133          1           0       12.457964    0.780683   -2.408008
    134          1           0       14.605096    0.919446   -0.501604
    135          1           0       14.366148    3.285349   -2.164882
    136          1           0       15.866384    2.567080   -2.450649
    137          1           0       15.428501    2.738849   -0.762050
    138          1           0       15.014175   -0.872687   -2.066991
    139          1           0       15.936907    0.291368   -2.917596
    140          1           0       14.277106    0.045110   -3.439514
 ---------------------------------------------------------------------

 SCF Done:  E(RZINDO/S) =  -474.172314773     A.U. after   21 cycles

 Excitation energies and oscillator strengths:

 Excited State   1:      Singlet-A      1.2169 eV 1018.88 nm  f=0.5502  <S**2>=0.000
     175 ->178         0.21275
     176 ->177         0.65708
 This state for optimization and/or second-order correction.
 Total Energy, E(CIS/TDA) =  -474.127595847
 Copying the excited state density for this state as the 1-particle RhoCI density.

 Excited State   2:      Singlet-A      1.8380 eV  674.57 nm  f=0.0189  <S**2>=0.000
     175 ->177         0.52594
     176 ->178        -0.45094

 Excited State   3:      Singlet-A      2.9199 eV  424.62 nm  f=0.8301  <S**2>=0.000
     168 ->179        -0.10057
     171 ->177        -0.10841
     175 ->177         0.34807
     176 ->178         0.43345
     176 ->179        -0.21343
     176 ->180         0.19497

 Excited State   4:      Singlet-A      2.9457 eV  420.90 nm  f=0.0642  <S**2>=0.000
     168 ->177         0.26783
     168 ->179        -0.33795
     168 ->181         0.18932
     168 ->185         0.14765
     169 ->177         0.15661
     169 ->179        -0.18874
     169 ->181         0.12621
     171 ->177         0.10489
     176 ->178        -0.10565
     176 ->179        -0.10129
     176 ->180        -0.21996

 Excited State   5:      Singlet-A      2.9655 eV  418.08 nm  f=0.0016  <S**2>=0.000
     170 ->177        -0.22770
     170 ->179        -0.22644
     170 ->181        -0.31171
     170 ->184        -0.11405
     170 ->185         0.17878
     170 ->187        -0.16342
     176 ->180         0.41031

 The electronic state is 1-A.
 Alpha  occ. eigenvalues --   -1.82912  -1.80732  -1.77564  -1.75251  -1.74001
 Alpha  occ. eigenvalues --   -1.69920  -1.65530  -1.62593  -1.61020  -1.57914
 Alpha  occ. eigenvalues --   -1.54639  -1.50636  -1.48477  -1.46833  -1.46749
 Alpha  occ. eigenvalues --   -1.43037  -1.41615  -1.39186  -1.38372  -1.38027
 Alpha  occ. eigenvalues --   -1.35299  -1.32256  -1.31802  -1.29601  -1.28881
 Alpha  occ. eigenvalues --   -1.28490  -1.26432  -1.22659  -1.20720  -1.17720
 Alpha  occ. eigenvalues --   -1.17322  -1.16144  -1.15831  -1.14156  -1.12627
 Alpha  occ. eigenvalues --   -1.11147  -1.10959  -1.08014  -1.05411  -1.04111
 Alpha  occ. eigenvalues --   -1.03124  -1.01695  -0.98729  -0.97266  -0.96601
 Alpha  occ. eigenvalues --   -0.94452  -0.93519  -0.92208  -0.91912  -0.91654
 Alpha  occ. eigenvalues --   -0.90978  -0.90390  -0.89830  -0.89087  -0.88719
 Alpha  occ. eigenvalues --   -0.85619  -0.83499  -0.82377  -0.81337  -0.79790
 Alpha  occ. eigenvalues --   -0.79213  -0.79081  -0.77351  -0.77023  -0.75944
 Alpha  occ. eigenvalues --   -0.75751  -0.75163  -0.74606  -0.73801  -0.73501
 Alpha  occ. eigenvalues --   -0.72368  -0.72071  -0.71195  -0.71183  -0.70895
 Alpha  occ. eigenvalues --   -0.70076  -0.69484  -0.69157  -0.68674  -0.67812
 Alpha  occ. eigenvalues --   -0.67521  -0.67073  -0.66014  -0.65880  -0.65623
 Alpha  occ. eigenvalues --   -0.65146  -0.64815  -0.64511  -0.64413  -0.64204
 Alpha  occ. eigenvalues --   -0.63301  -0.63011  -0.62800  -0.62243  -0.61751
 Alpha  occ. eigenvalues --   -0.61574  -0.60476  -0.60291  -0.60261  -0.59304
 Alpha  occ. eigenvalues --   -0.59050  -0.58802  -0.58611  -0.58205  -0.58017
 Alpha  occ. eigenvalues --   -0.57594  -0.57424  -0.57244  -0.56364  -0.56144
 Alpha  occ. eigenvalues --   -0.56003  -0.55621  -0.55305  -0.54780  -0.54664
 Alpha  occ. eigenvalues --   -0.54369  -0.54061  -0.53588  -0.53166  -0.52822
 Alpha  occ. eigenvalues --   -0.52367  -0.52235  -0.52012  -0.51617  -0.51265
 Alpha  occ. eigenvalues --   -0.50925  -0.50772  -0.50435  -0.50298  -0.49834
 Alpha  occ. eigenvalues --   -0.49791  -0.49425  -0.49245  -0.49001  -0.48503
 Alpha  occ. eigenvalues --   -0.48339  -0.47778  -0.47653  -0.47500  -0.47289
 Alpha  occ. eigenvalues --   -0.47199  -0.46674  -0.46216  -0.46056  -0.46049
 Alpha  occ. eigenvalues --   -0.45882  -0.45720  -0.45450  -0.44915  -0.44531
 Alpha  occ. eigenvalues --   -0.44400  -0.44153  -0.44033  -0.43812  -0.43333
 Alpha  occ. eigenvalues --   -0.42673  -0.42366  -0.42175  -0.42054  -0.41935
 Alpha  occ. eigenvalues --   -0.41191  -0.41086  -0.40921  -0.38812  -0.38223
 Alpha  occ. eigenvalues --   -0.37829  -0.37396  -0.35114  -0.34735  -0.34477
 Alpha  occ. eigenvalues --   -0.33116  -0.32470  -0.31764  -0.31404  -0.26548
 Alpha  occ. eigenvalues --   -0.21642
 Alpha virt. eigenvalues --   -0.08444  -0.02605  -0.00389   0.00853   0.01457
 Alpha virt. eigenvalues --    0.02374   0.02905   0.03399   0.04929   0.05149
 Alpha virt. eigenvalues --    0.06017   0.06965   0.07214   0.07496   0.08277

 Mulliken charges:
               1
     1  Mg   0.430263
     2  C   -0.061231
     3  C   -0.058853
     4  C   -0.087986
     5  C   -0.072101
     6  N   -0.278934
     7  C    0.152057
     8  C    0.008965
     9  C   -0.007127
    10  C    0.094911
    11  C   -0.054191
    12  C   -0.017773
    13  C   -0.001730
    14  C    0.472774
    15  O   -0.553678
    16  O   -0.252729
    17  N   -0.338663
    18  C    0.109459
    19  C    0.039978
    20  C   -0.066099
    21  C    0.118897
    22  C   -0.046168
    23  C    0.338298
    24  O   -0.531869
    25  C   -0.021054
    26  N   -0.267424
    27  C    0.146569
    28  C   -0.015225
    29  C   -0.002149
    30  C    0.124135
    31  C   -0.057025
    32  C   -0.032154
    33  C   -0.058895
    34  N   -0.325899
    35  C    0.104861
    36  C    0.027888
    37  C   -0.041379
    38  C    0.119159
    39  C   -0.033297
    40  C    0.332582
    41  O   -0.534166
    42  C    0.049622
    43  C    0.510961
    44  O   -0.534478
    45  O   -0.274174
    46  C    0.073533
    47  C    0.105740
    48  C   -0.092724
    49  C   -0.004168
    50  C   -0.048654
    51  C   -0.023581
    52  C   -0.033191
    53  C   -0.029972
    54  C   -0.009931
    55  C   -0.065653
    56  C   -0.036600
    57  C   -0.044042
    58  C   -0.040924
    59  C   -0.017673
    60  C   -0.059765
    61  C   -0.030588
    62  C   -0.024822
    63  C   -0.033639
    64  C   -0.013355
    65  C   -0.059251
    66  C   -0.055281
    67  H    0.036780
    68  H    0.023600
    69  H    0.029522
    70  H    0.032915
    71  H    0.063209
    72  H    0.017889
    73  H    0.024417
    74  H    0.025147
    75  H    0.018135
    76  H    0.028266
    77  H    0.058856
    78  H    0.038912
    79  H    0.027166
    80  H    0.035709
    81  H    0.042497
    82  H    0.038960
    83  H    0.038122
    84  H    0.035823
    85  H    0.035236
    86  H    0.028649
    87  H    0.024614
    88  H    0.018784
    89  H    0.025424
    90  H    0.020302
    91  H    0.024153
    92  H    0.029672
    93  H    0.011997
    94  H    0.018941
    95  H    0.037259
    96  H    0.034738
    97  H    0.039027
    98  H    0.059354
    99  H    0.052618
   100  H    0.033922
   101  H    0.045007
   102  H    0.033372
   103  H    0.058679
   104  H    0.031395
   105  H    0.023026
   106  H    0.040328
   107  H    0.029623
   108  H    0.028367
   109  H    0.019927
   110  H    0.008611
   111  H    0.020282
   112  H    0.032802
   113  H    0.009188
   114  H    0.022862
   115  H    0.019492
   116  H    0.021032
   117  H    0.015799
   118  H    0.023463
   119  H    0.017696
   120  H    0.015208
   121  H    0.021208
   122  H    0.016848
   123  H    0.023266
   124  H    0.024713
   125  H    0.025134
   126  H    0.015579
   127  H    0.012288
   128  H    0.014896
   129  H    0.014764
   130  H    0.022055
   131  H    0.016905
   132  H    0.025773
   133  H    0.001210
   134  H    0.017413
   135  H    0.020611
   136  H    0.016461
   137  H    0.019249
   138  H    0.015779
   139  H    0.013974
   140  H    0.024709
 Sum of Mulliken charges =   0.00000

 Dipole moment (field-independent basis, Debye):
    X=             -1.7571    Y=              1.7849    Z=              0.1911  Tot=              2.5119
 N-N= 4.422026608937D+03 E-N= 0.000000000000D+00  KE=-9.519069768778D+03
 Leave Link  601 at Thu May  5 00:51:51 2022, MaxMem=  6710886400 cpu:               0.8 elap:               0.0
 (Enter /sw/apps/gaussian-16.0/g16/l9999.exe)
 1\1\GINC-BP1-COMPUTE159\SP\RZINDO CIS\STO-3G\C55H74Mg1N4O6\OF15641\05-
 May-2022\0\\#p ZINDO=(nstates=5)\\step_501_chromophore_11 ZINDO\\0,1\M
 g,0,53.036,23.473,43.742\C,0,50.273,25.684,43.349\C,0,50.897,20.805,43
 .544\C,0,55.769,21.395,43.064\C,0,55.199,26.214,43.346\N,0,50.767,23.3
 59,43.203\C,0,49.85,24.332,43.33\C,0,48.49,23.71,43.589\C,0,48.66,22.1
 15,43.586\C,0,50.272,22.119,43.583\C,0,48.04,21.546,44.882\C,0,47.475,
 24.179,42.559\C,0,47.98,24.345,41.106\C,0,47.514,23.28,40.076\O,0,47.4

 Normal termination of Gaussian 16 at Thu May  5 00:51:51 2022.
