 Gaussian 16, Revision A.03,
 Gaussian 16:  ES64L-G16RevA.03 25-Dec-2016

 ------------------------------
 #p blyp/Def2SVP td=(nstates=5)
 ------------------------------

 --------------------------------------------------
 step_451_chromophore_14 TDDFT with blyp functional
 --------------------------------------------------
 Symbolic Z-matrix:
 Charge =  0 Multiplicity = 1

                         Standard orientation:
 ---------------------------------------------------------------------
 Center     Atomic      Atomic             Coordinates (Angstroms)
 Number     Number       Type             X           Y           Z
 ---------------------------------------------------------------------
      1         12           0        5.159505    1.017839   -0.254487
      2          6           0        4.738519   -2.479859    0.076764
      3          6           0        3.734830    0.859733   -3.370539
      4          6           0        4.467647    4.469522   -0.200146
      5          6           0        5.645527    1.169943    3.242454
      6          7           0        4.301517   -0.623076   -1.458462
      7          6           0        4.259473   -1.982447   -1.120468
      8          6           0        3.756599   -2.805593   -2.340565
      9          6           0        3.558611   -1.667423   -3.431601
     10          6           0        3.922098   -0.398548   -2.711150
     11          6           0        4.433512   -1.836441   -4.715325
     12          6           0        2.521199   -3.720637   -2.067746
     13          6           0        1.371865   -3.182567   -1.126085
     14          6           0        0.009601   -3.723372   -1.280185
     15          8           0       -0.360269   -4.526438   -2.147968
     16          8           0       -0.751964   -3.266983   -0.215993
     17          7           0        4.390980    2.461510   -1.644591
     18          6           0        3.895822    2.194512   -2.897033
     19          6           0        3.546470    3.391551   -3.606889
     20          6           0        3.776474    4.466059   -2.722632
     21          6           0        4.277803    3.832283   -1.448550
     22          6           0        2.985239    3.328968   -5.020808
     23          6           0        3.477540    5.978378   -2.937033
     24          8           0        2.998590    6.316901   -4.036217
     25          6           0        3.598798    7.110356   -1.943925
     26          7           0        5.007935    2.528144    1.259340
     27          6           0        4.807652    3.903668    1.022526
     28          6           0        4.943534    4.746473    2.348229
     29          6           0        5.616501    3.703204    3.275464
     30          6           0        5.371662    2.366403    2.577881
     31          6           0        5.628716    6.165714    2.179963
     32          6           0        5.073915    3.801631    4.761694
     33          6           0        6.189253    4.153347    5.761105
     34          7           0        5.466664   -0.336645    1.340849
     35          6           0        5.675459   -0.118659    2.677074
     36          6           0        5.860420   -1.465815    3.307549
     37          6           0        5.553488   -2.373896    2.309722
     38          6           0        5.180852   -1.679806    1.168480
     39          6           0        6.135165   -1.838493    4.760706
     40          6           0        5.404519   -3.789657    2.079479
     41          8           0        5.541628   -4.817767    2.758973
     42          6           0        4.885707   -3.873735    0.500741
     43          6           0        5.898568   -4.721582   -0.261345
     44          8           0        5.683679   -5.768877   -0.812589
     45          8           0        7.165014   -4.180660   -0.098302
     46          6           0        8.291984   -4.968249   -0.614087
     47          6           0       -2.128678   -3.742168   -0.098405
     48          6           0       -2.884082   -2.476756    0.023464
     49          6           0       -3.561437   -1.751214   -0.861716
     50          6           0       -3.563871   -2.086581   -2.373844
     51          6           0       -4.152698   -0.376281   -0.526392
     52          6           0       -5.746025   -0.286778   -0.455312
     53          6           0       -6.267453   -0.442384    1.047942
     54          6           0       -7.797135   -0.282179    1.253545
     55          6           0       -8.063870    0.724973    2.392157
     56          6           0       -8.516362   -1.646410    1.537036
     57          6           0       -9.736247   -1.897945    0.688892
     58          6           0      -11.058317   -2.166807    1.521753
     59          6           0      -11.877730   -0.838594    1.403468
     60          6           0      -12.904743   -0.814086    2.579638
     61          6           0      -12.655139   -0.804807    0.044121
     62          6           0      -12.784687    0.680155   -0.446326
     63          6           0      -14.209807    1.089165   -0.876815
     64          6           0      -14.582352    2.528398   -0.505909
     65          6           0      -14.845478    2.631275    0.986885
     66          6           0      -15.694511    3.155535   -1.385531
     67          1           0        3.236277    0.685663   -4.326132
     68          1           0        4.595289    5.552542   -0.147070
     69          1           0        5.981124    1.124695    4.279868
     70          1           0        4.538148   -3.508117   -2.632208
     71          1           0        2.487724   -1.577893   -3.611674
     72          1           0        3.814405   -1.928798   -5.608391
     73          1           0        5.000942   -2.766378   -4.693927
     74          1           0        5.019807   -0.917760   -4.718782
     75          1           0        2.967413   -4.665494   -1.759848
     76          1           0        1.979480   -3.768442   -3.012485
     77          1           0        1.295999   -2.098005   -1.204144
     78          1           0        1.652765   -3.451497   -0.108185
     79          1           0        1.897172    3.277852   -4.985910
     80          1           0        3.272427    2.407279   -5.528108
     81          1           0        3.392438    4.126909   -5.643012
     82          1           0        4.590153    7.045417   -1.495190
     83          1           0        2.874327    6.885315   -1.162012
     84          1           0        3.442567    8.092615   -2.389580
     85          1           0        3.915376    4.900639    2.676117
     86          1           0        6.684193    3.904489    3.363791
     87          1           0        6.253726    6.387096    3.045338
     88          1           0        4.862404    6.926224    2.029924
     89          1           0        6.145048    6.153684    1.221104
     90          1           0        4.526165    2.901537    5.040358
     91          1           0        4.429475    4.663710    4.938560
     92          1           0        6.979897    4.756921    5.315211
     93          1           0        6.483971    3.287077    6.354238
     94          1           0        5.807131    4.904531    6.452770
     95          1           0        5.267091   -2.364133    5.158259
     96          1           0        6.481203   -0.941250    5.273949
     97          1           0        6.945201   -2.559859    4.653782
     98          1           0        3.993090   -4.500435    0.490394
     99          1           0        8.763177   -4.361309   -1.387104
    100          1           0        7.954564   -5.885243   -1.097120
    101          1           0        8.964194   -5.176100    0.218533
    102          1           0       -2.346808   -4.206382    0.863156
    103          1           0       -2.499989   -4.323035   -0.942618
    104          1           0       -3.136968   -2.222360    1.052676
    105          1           0       -2.686750   -2.680787   -2.627829
    106          1           0       -3.832479   -1.330404   -3.111814
    107          1           0       -4.482562   -2.665304   -2.465942
    108          1           0       -3.700411    0.278552   -1.271144
    109          1           0       -3.769822   -0.078906    0.450167
    110          1           0       -6.130271   -1.101966   -1.067696
    111          1           0       -5.873500    0.742667   -0.789739
    112          1           0       -5.689715    0.283392    1.621246
    113          1           0       -5.843093   -1.395975    1.361329
    114          1           0       -8.235155    0.183404    0.370841
    115          1           0       -9.118666    0.778238    2.660385
    116          1           0       -7.754936    1.736667    2.126585
    117          1           0       -7.434929    0.422016    3.228732
    118          1           0       -8.744415   -1.729492    2.599930
    119          1           0       -7.866842   -2.459238    1.215017
    120          1           0       -9.650638   -2.736134   -0.003098
    121          1           0       -9.853400   -1.066801   -0.006333
    122          1           0      -10.866791   -2.336557    2.581766
    123          1           0      -11.517896   -2.968129    0.943038
    124          1           0      -11.145073   -0.030521    1.390972
    125          1           0      -13.694588   -0.071155    2.467522
    126          1           0      -12.343371   -0.704603    3.508019
    127          1           0      -13.323682   -1.818046    2.639642
    128          1           0      -13.660563   -1.220315    0.101450
    129          1           0      -12.173190   -1.345487   -0.770279
    130          1           0      -12.230355    0.683527   -1.385698
    131          1           0      -12.323871    1.420940    0.207487
    132          1           0      -15.003790    0.484650   -0.439521
    133          1           0      -14.394882    0.990638   -1.946371
    134          1           0      -13.693388    3.125774   -0.709424
    135          1           0      -14.463123    1.739238    1.482757
    136          1           0      -15.895231    2.689881    1.273850
    137          1           0      -14.343652    3.573941    1.205237
    138          1           0      -16.668793    3.197445   -0.897909
    139          1           0      -15.748893    2.720989   -2.383489
    140          1           0      -15.435442    4.184266   -1.637788
 ---------------------------------------------------------------------

 SCF Done:  E(RB-LYP) =  -3007.39192234     A.U. after   20 cycles

 Excitation energies and oscillator strengths:

 Excited State   1:      Singlet-A      1.7429 eV  711.36 nm  f=0.0106  <S**2>=0.000
     244 -> 247        0.68847
     246 -> 247        0.12719
 This state for optimization and/or second-order correction.
 Total Energy, E(TD-HF/TD-DFT) =  -3007.32787141
 Copying the excited state density for this state as the 1-particle RhoCI density.

 Excited State   2:      Singlet-A      1.7690 eV  700.85 nm  f=0.2866  <S**2>=0.000
     244 -> 247       -0.12939
     245 -> 248       -0.18009
     246 -> 247        0.68276
     246 <- 247       -0.15732

 Excited State   3:      Singlet-A      1.9400 eV  639.08 nm  f=0.0266  <S**2>=0.000
     243 -> 247        0.51059
     245 -> 247        0.45989
     246 -> 248        0.13724

 Excited State   4:      Singlet-A      2.0887 eV  593.59 nm  f=0.0361  <S**2>=0.000
     243 -> 247        0.47905
     245 -> 247       -0.43578
     246 -> 248       -0.24959

 Excited State   5:      Singlet-A      2.2447 eV  552.35 nm  f=0.0001  <S**2>=0.000
     242 -> 247        0.70697

 The electronic state is 1-A.
 Alpha  occ. eigenvalues --  -46.28311 -18.81925 -18.81660 -18.77237 -18.77029
 Alpha  occ. eigenvalues --  -18.76544 -18.75269 -14.03885 -14.03674 -14.01662
 Alpha  occ. eigenvalues --  -14.01235 -10.04191 -10.04061 -10.00388 -10.00361
 Alpha  occ. eigenvalues --   -9.97442  -9.97434  -9.97001  -9.96930  -9.96888
 Alpha  occ. eigenvalues --   -9.96861  -9.96748  -9.95993  -9.95930  -9.94937
 Alpha  occ. eigenvalues --   -9.94637  -9.94297  -9.94082  -9.93993  -9.93942
 Alpha  occ. eigenvalues --   -9.93938  -9.93910  -9.93880  -9.93749  -9.93563
 Alpha  occ. eigenvalues --   -9.93517  -9.93430  -9.93066  -9.93019  -9.92984
 Alpha  occ. eigenvalues --   -9.92967  -9.92813  -9.92777  -9.92763  -9.92738
 Alpha  occ. eigenvalues --   -9.92399  -9.92180  -9.92160  -9.92140  -9.91986
 Alpha  occ. eigenvalues --   -9.91936  -9.91796  -9.91544  -9.91259  -9.91129
 Alpha  occ. eigenvalues --   -9.91024  -9.90987  -9.90954  -9.90941  -9.90877
 Alpha  occ. eigenvalues --   -9.90840  -9.90605  -9.90578  -9.90533  -9.90417
 Alpha  occ. eigenvalues --   -9.90366  -2.92790  -1.73184  -1.72667  -1.72520
 Alpha  occ. eigenvalues --   -0.97669  -0.97079  -0.90764  -0.90373  -0.90256
 Alpha  occ. eigenvalues --   -0.89544  -0.86553  -0.85688  -0.85269  -0.84414
 Alpha  occ. eigenvalues --   -0.76025  -0.73234  -0.72861  -0.72340  -0.72259
 Alpha  occ. eigenvalues --   -0.71939  -0.71856  -0.71255  -0.70694  -0.69899
 Alpha  occ. eigenvalues --   -0.69601  -0.69274  -0.68044  -0.67715  -0.67225
 Alpha  occ. eigenvalues --   -0.66287  -0.65966  -0.65310  -0.64933  -0.64788
 Alpha  occ. eigenvalues --   -0.64025  -0.62776  -0.62317  -0.61843  -0.60903
 Alpha  occ. eigenvalues --   -0.60145  -0.60063  -0.59899  -0.59296  -0.58760
 Alpha  occ. eigenvalues --   -0.58296  -0.57643  -0.57136  -0.56069  -0.54462
 Alpha  occ. eigenvalues --   -0.54260  -0.53141  -0.52611  -0.52058  -0.51536
 Alpha  occ. eigenvalues --   -0.51289  -0.50973  -0.50938  -0.50708  -0.49783
 Alpha  occ. eigenvalues --   -0.49341  -0.48978  -0.48836  -0.48221  -0.46422
 Alpha  occ. eigenvalues --   -0.46034  -0.45916  -0.45576  -0.44869  -0.44181
 Alpha  occ. eigenvalues --   -0.43969  -0.43496  -0.43203  -0.42902  -0.42470
 Alpha  occ. eigenvalues --   -0.42122  -0.41971  -0.41532  -0.41481  -0.41160
 Alpha  occ. eigenvalues --   -0.40658  -0.40573  -0.40335  -0.40282  -0.39967
 Alpha  occ. eigenvalues --   -0.39889  -0.39742  -0.39385  -0.39224  -0.39205
 Alpha  occ. eigenvalues --   -0.39155  -0.38996  -0.38777  -0.38648  -0.38124
 Alpha  occ. eigenvalues --   -0.37963  -0.37806  -0.37772  -0.37702  -0.37322
 Alpha  occ. eigenvalues --   -0.37117  -0.37035  -0.36732  -0.36464  -0.36436
 Alpha  occ. eigenvalues --   -0.36229  -0.36149  -0.35859  -0.35835  -0.35806
 Alpha  occ. eigenvalues --   -0.35439  -0.35304  -0.35294  -0.34904  -0.34580
 Alpha  occ. eigenvalues --   -0.34381  -0.34268  -0.34191  -0.34183  -0.34059
 Alpha  occ. eigenvalues --   -0.33791  -0.33512  -0.33468  -0.33388  -0.33251
 Alpha  occ. eigenvalues --   -0.33081  -0.32878  -0.32766  -0.32332  -0.32152
 Alpha  occ. eigenvalues --   -0.31976  -0.31778  -0.31727  -0.31611  -0.31354
 Alpha  occ. eigenvalues --   -0.31252  -0.31223  -0.31017  -0.30923  -0.30692
 Alpha  occ. eigenvalues --   -0.30582  -0.30546  -0.30246  -0.29964  -0.29920
 Alpha  occ. eigenvalues --   -0.29790  -0.29686  -0.29612  -0.29450  -0.29001
 Alpha  occ. eigenvalues --   -0.28641  -0.28495  -0.28055  -0.28023  -0.27902
 Alpha  occ. eigenvalues --   -0.27748  -0.27287  -0.26893  -0.26776  -0.26477
 Alpha  occ. eigenvalues --   -0.26273  -0.26072  -0.25982  -0.25535  -0.25132
 Alpha  occ. eigenvalues --   -0.24969  -0.24854  -0.24490  -0.24120  -0.23757
 Alpha  occ. eigenvalues --   -0.23117  -0.23088  -0.22317  -0.22054  -0.20930
 Alpha  occ. eigenvalues --   -0.20559  -0.20146  -0.19152  -0.18234  -0.17854
 Alpha  occ. eigenvalues --   -0.15965
 Alpha virt. eigenvalues --   -0.11898  -0.07354  -0.06597  -0.05117  -0.04148
 Alpha virt. eigenvalues --   -0.02964  -0.02488  -0.02000  -0.01861  -0.00233
 Alpha virt. eigenvalues --    0.01086   0.01506   0.02029   0.02648   0.02944

 Mulliken charges:
               1
     1  Mg   0.706107
     2  C    0.084687
     3  C   -0.060149
     4  C   -0.047018
     5  C   -0.065228
     6  N   -0.206565
     7  C   -0.093262
     8  C    0.025176
     9  C    0.003026
    10  C   -0.037115
    11  C    0.133423
    12  C    0.106188
    13  C    0.082031
    14  C    0.109063
    15  O   -0.202561
    16  O   -0.281198
    17  N   -0.273265
    18  C    0.147351
    19  C   -0.129692
    20  C    0.027873
    21  C    0.121347
    22  C    0.189877
    23  C   -0.087646
    24  O   -0.193026
    25  C    0.163506
    26  N   -0.242258
    27  C   -0.014603
    28  C    0.015027
    29  C    0.026714
    30  C    0.081641
    31  C    0.127842
    32  C    0.079019
    33  C    0.049384
    34  N   -0.277835
    35  C    0.074816
    36  C   -0.210915
    37  C    0.123236
    38  C    0.067311
    39  C    0.183641
    40  C   -0.035213
    41  O   -0.138769
    42  C    0.000687
    43  C    0.092488
    44  O   -0.145152
    45  O   -0.296781
    46  C    0.202544
    47  C    0.371947
    48  C   -0.139205
    49  C   -0.153885
    50  C    0.124873
    51  C    0.112865
    52  C    0.071829
    53  C    0.069149
    54  C   -0.030594
    55  C    0.078625
    56  C    0.157967
    57  C    0.019090
    58  C    0.115258
    59  C   -0.102694
    60  C    0.116675
    61  C    0.099740
    62  C    0.073525
    63  C    0.083375
    64  C   -0.114712
    65  C    0.125061
    66  C    0.107144
    67  H   -0.054324
    68  H   -0.091710
    69  H   -0.063635
    70  H   -0.016486
    71  H   -0.017575
    72  H   -0.005466
    73  H   -0.001152
    74  H    0.002949
    75  H    0.011597
    76  H   -0.013024
    77  H    0.014229
    78  H    0.011402
    79  H    0.006466
    80  H   -0.024328
    81  H    0.011437
    82  H    0.012639
    83  H    0.012822
    84  H    0.001109
    85  H   -0.011186
    86  H   -0.016095
    87  H    0.000516
    88  H   -0.006002
    89  H    0.001147
    90  H   -0.013059
    91  H   -0.021657
    92  H   -0.012217
    93  H    0.004027
    94  H   -0.027917
    95  H    0.022310
    96  H   -0.011381
    97  H    0.010374
    98  H   -0.009367
    99  H    0.009367
   100  H    0.024446
   101  H    0.026822
   102  H   -0.012087
   103  H    0.000177
   104  H   -0.043361
   105  H    0.019076
   106  H   -0.019474
   107  H   -0.010994
   108  H   -0.018448
   109  H   -0.036958
   110  H   -0.017303
   111  H   -0.018420
   112  H   -0.042385
   113  H   -0.030737
   114  H   -0.034867
   115  H   -0.011256
   116  H   -0.017535
   117  H   -0.013347
   118  H   -0.031602
   119  H   -0.035370
   120  H   -0.045114
   121  H   -0.033363
   122  H   -0.027472
   123  H   -0.030826
   124  H   -0.017113
   125  H   -0.007497
   126  H   -0.019046
   127  H   -0.018229
   128  H   -0.033859
   129  H   -0.038735
   130  H   -0.033677
   131  H   -0.014372
   132  H   -0.040271
   133  H   -0.048789
   134  H   -0.039749
   135  H   -0.017883
   136  H   -0.019745
   137  H   -0.012644
   138  H   -0.012726
   139  H   -0.024991
   140  H   -0.027869
 Sum of Mulliken charges =  -0.00000

 Dipole moment (field-independent basis, Debye):
    X=              1.7651    Y=              4.8193    Z=              1.8421  Tot=              5.4530
 Quadrupole moment (field-independent basis, Debye-Ang):
   XX=           -372.5098   YY=           -442.0142   ZZ=           -407.2604
   XY=             25.2984   XZ=              3.5986   YZ=             30.5945

 Normal termination of Gaussian 16 at Wed May  4 22:29:47 2022.
