 Gaussian 16, Revision A.03,
 Gaussian 16:  ES64L-G16RevA.03 25-Dec-2016

 -----------------------------------
 #p cam-b3lyp/Def2SVP td=(nstates=5)
 -----------------------------------

 -------------------------------------------------------
 step_451_chromophore_14 TDDFT with cam-b3lyp functional
 -------------------------------------------------------
 Symbolic Z-matrix:
 Charge =  0 Multiplicity = 1

                         Standard orientation:
 ---------------------------------------------------------------------
 Center     Atomic      Atomic             Coordinates (Angstroms)
 Number     Number       Type             X           Y           Z
 ---------------------------------------------------------------------
      1         12           0        5.159505    1.017839   -0.254487
      2          6           0        4.738519   -2.479859    0.076764
      3          6           0        3.734830    0.859733   -3.370539
      4          6           0        4.467647    4.469522   -0.200146
      5          6           0        5.645527    1.169943    3.242454
      6          7           0        4.301517   -0.623076   -1.458462
      7          6           0        4.259473   -1.982447   -1.120468
      8          6           0        3.756599   -2.805593   -2.340565
      9          6           0        3.558611   -1.667423   -3.431601
     10          6           0        3.922098   -0.398548   -2.711150
     11          6           0        4.433512   -1.836441   -4.715325
     12          6           0        2.521199   -3.720637   -2.067746
     13          6           0        1.371865   -3.182567   -1.126085
     14          6           0        0.009601   -3.723372   -1.280185
     15          8           0       -0.360269   -4.526438   -2.147968
     16          8           0       -0.751964   -3.266983   -0.215993
     17          7           0        4.390980    2.461510   -1.644591
     18          6           0        3.895822    2.194512   -2.897033
     19          6           0        3.546470    3.391551   -3.606889
     20          6           0        3.776474    4.466059   -2.722632
     21          6           0        4.277803    3.832283   -1.448550
     22          6           0        2.985239    3.328968   -5.020808
     23          6           0        3.477540    5.978378   -2.937033
     24          8           0        2.998590    6.316901   -4.036217
     25          6           0        3.598798    7.110356   -1.943925
     26          7           0        5.007935    2.528144    1.259340
     27          6           0        4.807652    3.903668    1.022526
     28          6           0        4.943534    4.746473    2.348229
     29          6           0        5.616501    3.703204    3.275464
     30          6           0        5.371662    2.366403    2.577881
     31          6           0        5.628716    6.165714    2.179963
     32          6           0        5.073915    3.801631    4.761694
     33          6           0        6.189253    4.153347    5.761105
     34          7           0        5.466664   -0.336645    1.340849
     35          6           0        5.675459   -0.118659    2.677074
     36          6           0        5.860420   -1.465815    3.307549
     37          6           0        5.553488   -2.373896    2.309722
     38          6           0        5.180852   -1.679806    1.168480
     39          6           0        6.135165   -1.838493    4.760706
     40          6           0        5.404519   -3.789657    2.079479
     41          8           0        5.541628   -4.817767    2.758973
     42          6           0        4.885707   -3.873735    0.500741
     43          6           0        5.898568   -4.721582   -0.261345
     44          8           0        5.683679   -5.768877   -0.812589
     45          8           0        7.165014   -4.180660   -0.098302
     46          6           0        8.291984   -4.968249   -0.614087
     47          6           0       -2.128678   -3.742168   -0.098405
     48          6           0       -2.884082   -2.476756    0.023464
     49          6           0       -3.561437   -1.751214   -0.861716
     50          6           0       -3.563871   -2.086581   -2.373844
     51          6           0       -4.152698   -0.376281   -0.526392
     52          6           0       -5.746025   -0.286778   -0.455312
     53          6           0       -6.267453   -0.442384    1.047942
     54          6           0       -7.797135   -0.282179    1.253545
     55          6           0       -8.063870    0.724973    2.392157
     56          6           0       -8.516362   -1.646410    1.537036
     57          6           0       -9.736247   -1.897945    0.688892
     58          6           0      -11.058317   -2.166807    1.521753
     59          6           0      -11.877730   -0.838594    1.403468
     60          6           0      -12.904743   -0.814086    2.579638
     61          6           0      -12.655139   -0.804807    0.044121
     62          6           0      -12.784687    0.680155   -0.446326
     63          6           0      -14.209807    1.089165   -0.876815
     64          6           0      -14.582352    2.528398   -0.505909
     65          6           0      -14.845478    2.631275    0.986885
     66          6           0      -15.694511    3.155535   -1.385531
     67          1           0        3.236277    0.685663   -4.326132
     68          1           0        4.595289    5.552542   -0.147070
     69          1           0        5.981124    1.124695    4.279868
     70          1           0        4.538148   -3.508117   -2.632208
     71          1           0        2.487724   -1.577893   -3.611674
     72          1           0        3.814405   -1.928798   -5.608391
     73          1           0        5.000942   -2.766378   -4.693927
     74          1           0        5.019807   -0.917760   -4.718782
     75          1           0        2.967413   -4.665494   -1.759848
     76          1           0        1.979480   -3.768442   -3.012485
     77          1           0        1.295999   -2.098005   -1.204144
     78          1           0        1.652765   -3.451497   -0.108185
     79          1           0        1.897172    3.277852   -4.985910
     80          1           0        3.272427    2.407279   -5.528108
     81          1           0        3.392438    4.126909   -5.643012
     82          1           0        4.590153    7.045417   -1.495190
     83          1           0        2.874327    6.885315   -1.162012
     84          1           0        3.442567    8.092615   -2.389580
     85          1           0        3.915376    4.900639    2.676117
     86          1           0        6.684193    3.904489    3.363791
     87          1           0        6.253726    6.387096    3.045338
     88          1           0        4.862404    6.926224    2.029924
     89          1           0        6.145048    6.153684    1.221104
     90          1           0        4.526165    2.901537    5.040358
     91          1           0        4.429475    4.663710    4.938560
     92          1           0        6.979897    4.756921    5.315211
     93          1           0        6.483971    3.287077    6.354238
     94          1           0        5.807131    4.904531    6.452770
     95          1           0        5.267091   -2.364133    5.158259
     96          1           0        6.481203   -0.941250    5.273949
     97          1           0        6.945201   -2.559859    4.653782
     98          1           0        3.993090   -4.500435    0.490394
     99          1           0        8.763177   -4.361309   -1.387104
    100          1           0        7.954564   -5.885243   -1.097120
    101          1           0        8.964194   -5.176100    0.218533
    102          1           0       -2.346808   -4.206382    0.863156
    103          1           0       -2.499989   -4.323035   -0.942618
    104          1           0       -3.136968   -2.222360    1.052676
    105          1           0       -2.686750   -2.680787   -2.627829
    106          1           0       -3.832479   -1.330404   -3.111814
    107          1           0       -4.482562   -2.665304   -2.465942
    108          1           0       -3.700411    0.278552   -1.271144
    109          1           0       -3.769822   -0.078906    0.450167
    110          1           0       -6.130271   -1.101966   -1.067696
    111          1           0       -5.873500    0.742667   -0.789739
    112          1           0       -5.689715    0.283392    1.621246
    113          1           0       -5.843093   -1.395975    1.361329
    114          1           0       -8.235155    0.183404    0.370841
    115          1           0       -9.118666    0.778238    2.660385
    116          1           0       -7.754936    1.736667    2.126585
    117          1           0       -7.434929    0.422016    3.228732
    118          1           0       -8.744415   -1.729492    2.599930
    119          1           0       -7.866842   -2.459238    1.215017
    120          1           0       -9.650638   -2.736134   -0.003098
    121          1           0       -9.853400   -1.066801   -0.006333
    122          1           0      -10.866791   -2.336557    2.581766
    123          1           0      -11.517896   -2.968129    0.943038
    124          1           0      -11.145073   -0.030521    1.390972
    125          1           0      -13.694588   -0.071155    2.467522
    126          1           0      -12.343371   -0.704603    3.508019
    127          1           0      -13.323682   -1.818046    2.639642
    128          1           0      -13.660563   -1.220315    0.101450
    129          1           0      -12.173190   -1.345487   -0.770279
    130          1           0      -12.230355    0.683527   -1.385698
    131          1           0      -12.323871    1.420940    0.207487
    132          1           0      -15.003790    0.484650   -0.439521
    133          1           0      -14.394882    0.990638   -1.946371
    134          1           0      -13.693388    3.125774   -0.709424
    135          1           0      -14.463123    1.739238    1.482757
    136          1           0      -15.895231    2.689881    1.273850
    137          1           0      -14.343652    3.573941    1.205237
    138          1           0      -16.668793    3.197445   -0.897909
    139          1           0      -15.748893    2.720989   -2.383489
    140          1           0      -15.435442    4.184266   -1.637788
 ---------------------------------------------------------------------

 SCF Done:  E(RCAM-B3LYP) =  -3007.17523074     A.U. after   17 cycles

 Excitation energies and oscillator strengths:

 Excited State   1:      Singlet-A      1.6643 eV  744.95 nm  f=0.3707  <S**2>=0.000
     245 -> 248       -0.16877
     246 -> 247        0.68832
     245 <- 248       -0.10673
 This state for optimization and/or second-order correction.
 Total Energy, E(TD-HF/TD-DFT) =  -3007.11406767
 Copying the excited state density for this state as the 1-particle RhoCI density.

 Excited State   2:      Singlet-A      2.2714 eV  545.85 nm  f=0.0676  <S**2>=0.000
     245 -> 247        0.61275
     246 -> 248        0.33849

 Excited State   3:      Singlet-A      3.3647 eV  368.48 nm  f=0.0104  <S**2>=0.000
     242 -> 247       -0.45146
     244 -> 247        0.49499

 Excited State   4:      Singlet-A      3.3858 eV  366.19 nm  f=0.1994  <S**2>=0.000
     241 -> 247       -0.14058
     242 -> 247       -0.27822
     244 -> 247       -0.38035
     245 -> 247       -0.18178
     246 -> 248        0.41393

 Excited State   5:      Singlet-A      3.4561 eV  358.74 nm  f=0.1710  <S**2>=0.000
     240 -> 247        0.46392
     240 -> 248       -0.10731
     240 -> 249       -0.22590
     240 -> 251       -0.20868
     242 -> 251        0.10189
     245 -> 247        0.15954
     246 -> 248       -0.29535

 The electronic state is 1-A.
 Alpha  occ. eigenvalues --  -46.89958 -19.24755 -19.24451 -19.20322 -19.19936
 Alpha  occ. eigenvalues --  -19.19508 -19.18741 -14.42914 -14.42491 -14.40375
 Alpha  occ. eigenvalues --  -14.39491 -10.39504 -10.39457 -10.35802 -10.35715
 Alpha  occ. eigenvalues --  -10.31819 -10.31716 -10.31584 -10.31474 -10.31309
 Alpha  occ. eigenvalues --  -10.31243 -10.31136 -10.30673 -10.29903 -10.28945
 Alpha  occ. eigenvalues --  -10.28935 -10.28706 -10.28577 -10.28374 -10.28272
 Alpha  occ. eigenvalues --  -10.28182 -10.28073 -10.27961 -10.27956 -10.27839
 Alpha  occ. eigenvalues --  -10.27428 -10.27393 -10.27193 -10.26994 -10.26914
 Alpha  occ. eigenvalues --  -10.26902 -10.26893 -10.26682 -10.26565 -10.26268
 Alpha  occ. eigenvalues --  -10.26245 -10.26128 -10.25856 -10.25786 -10.25736
 Alpha  occ. eigenvalues --  -10.25697 -10.25428 -10.25260 -10.24946 -10.24887
 Alpha  occ. eigenvalues --  -10.24656 -10.24655 -10.24631 -10.24603 -10.24491
 Alpha  occ. eigenvalues --  -10.24449 -10.24363 -10.24247 -10.24197 -10.24025
 Alpha  occ. eigenvalues --  -10.23986  -3.18326  -1.93200  -1.92770  -1.92633
 Alpha  occ. eigenvalues --   -1.16180  -1.15451  -1.08971  -1.08924  -1.08105
 Alpha  occ. eigenvalues --   -1.07352  -1.04339  -1.03150  -1.03055  -1.01934
 Alpha  occ. eigenvalues --   -0.93066  -0.90063  -0.89656  -0.89068  -0.88983
 Alpha  occ. eigenvalues --   -0.88661  -0.88592  -0.87867  -0.87265  -0.86526
 Alpha  occ. eigenvalues --   -0.86052  -0.85742  -0.84317  -0.83820  -0.83427
 Alpha  occ. eigenvalues --   -0.82335  -0.82257  -0.81353  -0.80644  -0.80609
 Alpha  occ. eigenvalues --   -0.79790  -0.78394  -0.77840  -0.77611  -0.76303
 Alpha  occ. eigenvalues --   -0.75530  -0.75368  -0.75207  -0.74571  -0.73992
 Alpha  occ. eigenvalues --   -0.73365  -0.72605  -0.72088  -0.70940  -0.69038
 Alpha  occ. eigenvalues --   -0.68802  -0.67634  -0.67239  -0.66386  -0.65689
 Alpha  occ. eigenvalues --   -0.65454  -0.65122  -0.65037  -0.64631  -0.63801
 Alpha  occ. eigenvalues --   -0.63325  -0.62621  -0.62480  -0.62094  -0.59996
 Alpha  occ. eigenvalues --   -0.59601  -0.59364  -0.59048  -0.58328  -0.57585
 Alpha  occ. eigenvalues --   -0.57308  -0.56852  -0.56512  -0.56249  -0.55543
 Alpha  occ. eigenvalues --   -0.55264  -0.54954  -0.54537  -0.54265  -0.54099
 Alpha  occ. eigenvalues --   -0.53668  -0.53298  -0.53143  -0.53106  -0.52903
 Alpha  occ. eigenvalues --   -0.52591  -0.52283  -0.52175  -0.52019  -0.51833
 Alpha  occ. eigenvalues --   -0.51821  -0.51581  -0.51423  -0.50984  -0.50418
 Alpha  occ. eigenvalues --   -0.50355  -0.50207  -0.50098  -0.49935  -0.49750
 Alpha  occ. eigenvalues --   -0.49507  -0.49218  -0.49087  -0.48850  -0.48612
 Alpha  occ. eigenvalues --   -0.48436  -0.48177  -0.48113  -0.47992  -0.47871
 Alpha  occ. eigenvalues --   -0.47584  -0.47427  -0.47208  -0.46956  -0.46858
 Alpha  occ. eigenvalues --   -0.46359  -0.46119  -0.45997  -0.45994  -0.45832
 Alpha  occ. eigenvalues --   -0.45751  -0.45467  -0.45248  -0.45122  -0.44860
 Alpha  occ. eigenvalues --   -0.44759  -0.44570  -0.44347  -0.44043  -0.43917
 Alpha  occ. eigenvalues --   -0.43627  -0.43382  -0.43222  -0.43168  -0.43041
 Alpha  occ. eigenvalues --   -0.42701  -0.42545  -0.42320  -0.42265  -0.42109
 Alpha  occ. eigenvalues --   -0.41892  -0.41879  -0.41711  -0.41570  -0.41539
 Alpha  occ. eigenvalues --   -0.41347  -0.41112  -0.40824  -0.40581  -0.40191
 Alpha  occ. eigenvalues --   -0.39715  -0.39433  -0.39093  -0.38993  -0.38767
 Alpha  occ. eigenvalues --   -0.38659  -0.38154  -0.38077  -0.37786  -0.37226
 Alpha  occ. eigenvalues --   -0.36980  -0.36923  -0.36756  -0.36386  -0.36120
 Alpha  occ. eigenvalues --   -0.35819  -0.35614  -0.35418  -0.35244  -0.34653
 Alpha  occ. eigenvalues --   -0.34373  -0.33465  -0.33200  -0.31688  -0.30984
 Alpha  occ. eigenvalues --   -0.30723  -0.30532  -0.29848  -0.29665  -0.24871
 Alpha  occ. eigenvalues --   -0.21154
 Alpha virt. eigenvalues --   -0.08995  -0.02285  -0.00059   0.00914   0.01875
 Alpha virt. eigenvalues --    0.04894   0.05010   0.05477   0.05768   0.06976
 Alpha virt. eigenvalues --    0.07342   0.08083   0.08659   0.08891   0.09141

 Mulliken charges:
               1
     1  Mg   0.833797
     2  C    0.051757
     3  C   -0.074680
     4  C   -0.071954
     5  C   -0.072982
     6  N   -0.275955
     7  C   -0.054410
     8  C   -0.012677
     9  C   -0.059344
    10  C   -0.010329
    11  C    0.073670
    12  C    0.056719
    13  C    0.010200
    14  C    0.194539
    15  O   -0.245651
    16  O   -0.345846
    17  N   -0.359269
    18  C    0.155619
    19  C   -0.134251
    20  C   -0.039100
    21  C    0.156509
    22  C    0.137247
    23  C   -0.011873
    24  O   -0.230590
    25  C    0.083450
    26  N   -0.315632
    27  C    0.014377
    28  C   -0.037181
    29  C   -0.030183
    30  C    0.102055
    31  C    0.068447
    32  C    0.018916
    33  C   -0.009321
    34  N   -0.361311
    35  C    0.078110
    36  C   -0.208068
    37  C    0.041691
    38  C    0.100035
    39  C    0.135138
    40  C    0.066295
    41  O   -0.179531
    42  C   -0.072817
    43  C    0.182340
    44  O   -0.186440
    45  O   -0.358759
    46  C    0.165748
    47  C    0.330151
    48  C   -0.155857
    49  C   -0.169904
    50  C    0.060661
    51  C    0.055112
    52  C    0.019620
    53  C    0.019620
    54  C   -0.091181
    55  C    0.026800
    56  C    0.099126
    57  C   -0.029220
    58  C    0.057765
    59  C   -0.151911
    60  C    0.061936
    61  C    0.046983
    62  C    0.013652
    63  C    0.033919
    64  C   -0.174268
    65  C    0.069217
    66  C    0.048887
    67  H   -0.018393
    68  H   -0.058836
    69  H   -0.030733
    70  H    0.017290
    71  H    0.016557
    72  H    0.019671
    73  H    0.024859
    74  H    0.028209
    75  H    0.038650
    76  H    0.019211
    77  H    0.044630
    78  H    0.041874
    79  H    0.035460
    80  H    0.002815
    81  H    0.041322
    82  H    0.036312
    83  H    0.040411
    84  H    0.037899
    85  H    0.023609
    86  H    0.017446
    87  H    0.025264
    88  H    0.017883
    89  H    0.024107
    90  H    0.017739
    91  H    0.007064
    92  H    0.009106
    93  H    0.026698
    94  H   -0.002470
    95  H    0.046367
    96  H    0.010415
    97  H    0.035234
    98  H    0.030884
    99  H    0.030347
   100  H    0.050365
   101  H    0.047771
   102  H    0.016984
   103  H    0.034668
   104  H   -0.012829
   105  H    0.040904
   106  H    0.008234
   107  H    0.012908
   108  H    0.011251
   109  H   -0.005948
   110  H    0.006828
   111  H    0.009073
   112  H   -0.013101
   113  H   -0.004446
   114  H   -0.003387
   115  H    0.010065
   116  H    0.006943
   117  H    0.009392
   118  H   -0.003207
   119  H   -0.004143
   120  H   -0.014629
   121  H   -0.007854
   122  H    0.001184
   123  H   -0.001105
   124  H    0.007056
   125  H    0.012651
   126  H    0.005160
   127  H    0.005865
   128  H   -0.004722
   129  H   -0.009064
   130  H   -0.003812
   131  H    0.012327
   132  H   -0.013055
   133  H   -0.018993
   134  H   -0.008247
   135  H   -0.001996
   136  H    0.004822
   137  H    0.011648
   138  H    0.010360
   139  H    0.000089
   140  H   -0.002525
 Sum of Mulliken charges =  -0.00000

 Dipole moment (field-independent basis, Debye):
    X=              1.6737    Y=              5.6725    Z=              1.2106  Tot=              6.0369
 Quadrupole moment (field-independent basis, Debye-Ang):
   XX=           -372.7273   YY=           -438.4136   ZZ=           -405.3328
   XY=             28.5830   XZ=              1.2399   YZ=             30.8502

 Normal termination of Gaussian 16 at Wed May  4 21:00:22 2022.
