 Gaussian 16, Revision A.03,
 Gaussian 16:  ES64L-G16RevA.03 25-Dec-2016

 ---------------------------------
 #p PBE1PBE/Def2SVP td=(nstates=5)
 ---------------------------------

 -----------------------------------------------------
 step_451_chromophore_14 TDDFT with PBE1PBE functional
 -----------------------------------------------------
 Symbolic Z-matrix:
 Charge =  0 Multiplicity = 1

                         Standard orientation:
 ---------------------------------------------------------------------
 Center     Atomic      Atomic             Coordinates (Angstroms)
 Number     Number       Type             X           Y           Z
 ---------------------------------------------------------------------
      1         12           0        5.159505    1.017839   -0.254487
      2          6           0        4.738519   -2.479859    0.076764
      3          6           0        3.734830    0.859733   -3.370539
      4          6           0        4.467647    4.469522   -0.200146
      5          6           0        5.645527    1.169943    3.242454
      6          7           0        4.301517   -0.623076   -1.458462
      7          6           0        4.259473   -1.982447   -1.120468
      8          6           0        3.756599   -2.805593   -2.340565
      9          6           0        3.558611   -1.667423   -3.431601
     10          6           0        3.922098   -0.398548   -2.711150
     11          6           0        4.433512   -1.836441   -4.715325
     12          6           0        2.521199   -3.720637   -2.067746
     13          6           0        1.371865   -3.182567   -1.126085
     14          6           0        0.009601   -3.723372   -1.280185
     15          8           0       -0.360269   -4.526438   -2.147968
     16          8           0       -0.751964   -3.266983   -0.215993
     17          7           0        4.390980    2.461510   -1.644591
     18          6           0        3.895822    2.194512   -2.897033
     19          6           0        3.546470    3.391551   -3.606889
     20          6           0        3.776474    4.466059   -2.722632
     21          6           0        4.277803    3.832283   -1.448550
     22          6           0        2.985239    3.328968   -5.020808
     23          6           0        3.477540    5.978378   -2.937033
     24          8           0        2.998590    6.316901   -4.036217
     25          6           0        3.598798    7.110356   -1.943925
     26          7           0        5.007935    2.528144    1.259340
     27          6           0        4.807652    3.903668    1.022526
     28          6           0        4.943534    4.746473    2.348229
     29          6           0        5.616501    3.703204    3.275464
     30          6           0        5.371662    2.366403    2.577881
     31          6           0        5.628716    6.165714    2.179963
     32          6           0        5.073915    3.801631    4.761694
     33          6           0        6.189253    4.153347    5.761105
     34          7           0        5.466664   -0.336645    1.340849
     35          6           0        5.675459   -0.118659    2.677074
     36          6           0        5.860420   -1.465815    3.307549
     37          6           0        5.553488   -2.373896    2.309722
     38          6           0        5.180852   -1.679806    1.168480
     39          6           0        6.135165   -1.838493    4.760706
     40          6           0        5.404519   -3.789657    2.079479
     41          8           0        5.541628   -4.817767    2.758973
     42          6           0        4.885707   -3.873735    0.500741
     43          6           0        5.898568   -4.721582   -0.261345
     44          8           0        5.683679   -5.768877   -0.812589
     45          8           0        7.165014   -4.180660   -0.098302
     46          6           0        8.291984   -4.968249   -0.614087
     47          6           0       -2.128678   -3.742168   -0.098405
     48          6           0       -2.884082   -2.476756    0.023464
     49          6           0       -3.561437   -1.751214   -0.861716
     50          6           0       -3.563871   -2.086581   -2.373844
     51          6           0       -4.152698   -0.376281   -0.526392
     52          6           0       -5.746025   -0.286778   -0.455312
     53          6           0       -6.267453   -0.442384    1.047942
     54          6           0       -7.797135   -0.282179    1.253545
     55          6           0       -8.063870    0.724973    2.392157
     56          6           0       -8.516362   -1.646410    1.537036
     57          6           0       -9.736247   -1.897945    0.688892
     58          6           0      -11.058317   -2.166807    1.521753
     59          6           0      -11.877730   -0.838594    1.403468
     60          6           0      -12.904743   -0.814086    2.579638
     61          6           0      -12.655139   -0.804807    0.044121
     62          6           0      -12.784687    0.680155   -0.446326
     63          6           0      -14.209807    1.089165   -0.876815
     64          6           0      -14.582352    2.528398   -0.505909
     65          6           0      -14.845478    2.631275    0.986885
     66          6           0      -15.694511    3.155535   -1.385531
     67          1           0        3.236277    0.685663   -4.326132
     68          1           0        4.595289    5.552542   -0.147070
     69          1           0        5.981124    1.124695    4.279868
     70          1           0        4.538148   -3.508117   -2.632208
     71          1           0        2.487724   -1.577893   -3.611674
     72          1           0        3.814405   -1.928798   -5.608391
     73          1           0        5.000942   -2.766378   -4.693927
     74          1           0        5.019807   -0.917760   -4.718782
     75          1           0        2.967413   -4.665494   -1.759848
     76          1           0        1.979480   -3.768442   -3.012485
     77          1           0        1.295999   -2.098005   -1.204144
     78          1           0        1.652765   -3.451497   -0.108185
     79          1           0        1.897172    3.277852   -4.985910
     80          1           0        3.272427    2.407279   -5.528108
     81          1           0        3.392438    4.126909   -5.643012
     82          1           0        4.590153    7.045417   -1.495190
     83          1           0        2.874327    6.885315   -1.162012
     84          1           0        3.442567    8.092615   -2.389580
     85          1           0        3.915376    4.900639    2.676117
     86          1           0        6.684193    3.904489    3.363791
     87          1           0        6.253726    6.387096    3.045338
     88          1           0        4.862404    6.926224    2.029924
     89          1           0        6.145048    6.153684    1.221104
     90          1           0        4.526165    2.901537    5.040358
     91          1           0        4.429475    4.663710    4.938560
     92          1           0        6.979897    4.756921    5.315211
     93          1           0        6.483971    3.287077    6.354238
     94          1           0        5.807131    4.904531    6.452770
     95          1           0        5.267091   -2.364133    5.158259
     96          1           0        6.481203   -0.941250    5.273949
     97          1           0        6.945201   -2.559859    4.653782
     98          1           0        3.993090   -4.500435    0.490394
     99          1           0        8.763177   -4.361309   -1.387104
    100          1           0        7.954564   -5.885243   -1.097120
    101          1           0        8.964194   -5.176100    0.218533
    102          1           0       -2.346808   -4.206382    0.863156
    103          1           0       -2.499989   -4.323035   -0.942618
    104          1           0       -3.136968   -2.222360    1.052676
    105          1           0       -2.686750   -2.680787   -2.627829
    106          1           0       -3.832479   -1.330404   -3.111814
    107          1           0       -4.482562   -2.665304   -2.465942
    108          1           0       -3.700411    0.278552   -1.271144
    109          1           0       -3.769822   -0.078906    0.450167
    110          1           0       -6.130271   -1.101966   -1.067696
    111          1           0       -5.873500    0.742667   -0.789739
    112          1           0       -5.689715    0.283392    1.621246
    113          1           0       -5.843093   -1.395975    1.361329
    114          1           0       -8.235155    0.183404    0.370841
    115          1           0       -9.118666    0.778238    2.660385
    116          1           0       -7.754936    1.736667    2.126585
    117          1           0       -7.434929    0.422016    3.228732
    118          1           0       -8.744415   -1.729492    2.599930
    119          1           0       -7.866842   -2.459238    1.215017
    120          1           0       -9.650638   -2.736134   -0.003098
    121          1           0       -9.853400   -1.066801   -0.006333
    122          1           0      -10.866791   -2.336557    2.581766
    123          1           0      -11.517896   -2.968129    0.943038
    124          1           0      -11.145073   -0.030521    1.390972
    125          1           0      -13.694588   -0.071155    2.467522
    126          1           0      -12.343371   -0.704603    3.508019
    127          1           0      -13.323682   -1.818046    2.639642
    128          1           0      -13.660563   -1.220315    0.101450
    129          1           0      -12.173190   -1.345487   -0.770279
    130          1           0      -12.230355    0.683527   -1.385698
    131          1           0      -12.323871    1.420940    0.207487
    132          1           0      -15.003790    0.484650   -0.439521
    133          1           0      -14.394882    0.990638   -1.946371
    134          1           0      -13.693388    3.125774   -0.709424
    135          1           0      -14.463123    1.739238    1.482757
    136          1           0      -15.895231    2.689881    1.273850
    137          1           0      -14.343652    3.573941    1.205237
    138          1           0      -16.668793    3.197445   -0.897909
    139          1           0      -15.748893    2.720989   -2.383489
    140          1           0      -15.435442    4.184266   -1.637788
 ---------------------------------------------------------------------

 SCF Done:  E(RPBE1PBE) =  -3005.36342261     A.U. after   15 cycles

 Excitation energies and oscillator strengths:

 Excited State   1:      Singlet-A      1.8102 eV  684.93 nm  f=0.3589  <S**2>=0.000
     245 -> 248        0.16435
     246 -> 247        0.69627
     246 <- 247       -0.11634
 This state for optimization and/or second-order correction.
 Total Energy, E(TD-HF/TD-DFT) =  -3005.29690015
 Copying the excited state density for this state as the 1-particle RhoCI density.

 Excited State   2:      Singlet-A      2.2705 eV  546.08 nm  f=0.0722  <S**2>=0.000
     245 -> 247        0.62961
     246 -> 248       -0.30706

 Excited State   3:      Singlet-A      2.9120 eV  425.76 nm  f=0.0000  <S**2>=0.000
     242 -> 247        0.29263
     243 -> 247        0.60246
     243 -> 249        0.12120
     243 -> 250        0.10455

 Excited State   4:      Singlet-A      2.9806 eV  415.97 nm  f=0.0009  <S**2>=0.000
     241 -> 247       -0.21372
     242 -> 247        0.57351
     243 -> 247       -0.29358
     246 -> 248       -0.11739

 Excited State   5:      Singlet-A      3.0911 eV  401.10 nm  f=0.0028  <S**2>=0.000
     240 -> 247        0.23505
     241 -> 247        0.60078
     241 -> 249       -0.11948
     242 -> 247        0.18953
     243 -> 247       -0.10963

 The electronic state is 1-A.
 Alpha  occ. eigenvalues --  -46.93356 -19.25464 -19.25157 -19.20607 -19.20220
 Alpha  occ. eigenvalues --  -19.19929 -19.18800 -14.42335 -14.42106 -14.39894
 Alpha  occ. eigenvalues --  -14.39292 -10.36535 -10.36501 -10.33040 -10.32832
 Alpha  occ. eigenvalues --  -10.29407 -10.29147 -10.29122 -10.29104 -10.29048
 Alpha  occ. eigenvalues --  -10.28836 -10.28562 -10.28071 -10.27910 -10.26904
 Alpha  occ. eigenvalues --  -10.26505 -10.26296 -10.26228 -10.26071 -10.25991
 Alpha  occ. eigenvalues --  -10.25981 -10.25954 -10.25853 -10.25815 -10.25364
 Alpha  occ. eigenvalues --  -10.24889 -10.24888 -10.24804 -10.24694 -10.24577
 Alpha  occ. eigenvalues --  -10.24562 -10.24387 -10.24186 -10.23991 -10.23895
 Alpha  occ. eigenvalues --  -10.23696 -10.23556 -10.23488 -10.23412 -10.23303
 Alpha  occ. eigenvalues --  -10.23281 -10.22834 -10.22824 -10.22817 -10.22588
 Alpha  occ. eigenvalues --  -10.22227 -10.22223 -10.22205 -10.21997 -10.21988
 Alpha  occ. eigenvalues --  -10.21894 -10.21881 -10.21808 -10.21579 -10.21564
 Alpha  occ. eigenvalues --  -10.21352  -3.15306  -1.88118  -1.87668  -1.87535
 Alpha  occ. eigenvalues --   -1.10987  -1.10244  -1.03821  -1.03538  -1.03003
 Alpha  occ. eigenvalues --   -1.02200  -0.98904  -0.97907  -0.97575  -0.96571
 Alpha  occ. eigenvalues --   -0.87523  -0.84185  -0.83758  -0.83318  -0.83187
 Alpha  occ. eigenvalues --   -0.82904  -0.82724  -0.82209  -0.81377  -0.80744
 Alpha  occ. eigenvalues --   -0.80429  -0.79965  -0.78552  -0.78156  -0.77604
 Alpha  occ. eigenvalues --   -0.76530  -0.76358  -0.75587  -0.74985  -0.74848
 Alpha  occ. eigenvalues --   -0.73957  -0.72693  -0.72156  -0.71785  -0.70630
 Alpha  occ. eigenvalues --   -0.69673  -0.69601  -0.69409  -0.68690  -0.68162
 Alpha  occ. eigenvalues --   -0.67727  -0.67028  -0.66477  -0.65267  -0.63453
 Alpha  occ. eigenvalues --   -0.63334  -0.61917  -0.61572  -0.60689  -0.60101
 Alpha  occ. eigenvalues --   -0.59823  -0.59577  -0.59383  -0.59187  -0.57884
 Alpha  occ. eigenvalues --   -0.57470  -0.57183  -0.57034  -0.56280  -0.54558
 Alpha  occ. eigenvalues --   -0.54090  -0.53868  -0.53621  -0.52814  -0.52238
 Alpha  occ. eigenvalues --   -0.51725  -0.51201  -0.51015  -0.50782  -0.50042
 Alpha  occ. eigenvalues --   -0.49804  -0.49503  -0.49079  -0.48790  -0.48539
 Alpha  occ. eigenvalues --   -0.48264  -0.47841  -0.47700  -0.47594  -0.47512
 Alpha  occ. eigenvalues --   -0.47096  -0.46751  -0.46565  -0.46517  -0.46401
 Alpha  occ. eigenvalues --   -0.46275  -0.46087  -0.45975  -0.45597  -0.44993
 Alpha  occ. eigenvalues --   -0.44834  -0.44691  -0.44648  -0.44493  -0.44455
 Alpha  occ. eigenvalues --   -0.44055  -0.43774  -0.43667  -0.43489  -0.43307
 Alpha  occ. eigenvalues --   -0.43101  -0.42831  -0.42663  -0.42640  -0.42487
 Alpha  occ. eigenvalues --   -0.42268  -0.42009  -0.41811  -0.41595  -0.41495
 Alpha  occ. eigenvalues --   -0.40962  -0.40866  -0.40828  -0.40642  -0.40581
 Alpha  occ. eigenvalues --   -0.40510  -0.40191  -0.40006  -0.39732  -0.39594
 Alpha  occ. eigenvalues --   -0.39518  -0.39248  -0.38968  -0.38796  -0.38662
 Alpha  occ. eigenvalues --   -0.38402  -0.38218  -0.38067  -0.37851  -0.37791
 Alpha  occ. eigenvalues --   -0.37655  -0.37292  -0.37189  -0.37158  -0.36971
 Alpha  occ. eigenvalues --   -0.36775  -0.36644  -0.36568  -0.36304  -0.36287
 Alpha  occ. eigenvalues --   -0.36077  -0.35946  -0.35555  -0.35289  -0.35098
 Alpha  occ. eigenvalues --   -0.34607  -0.34239  -0.34057  -0.33808  -0.33689
 Alpha  occ. eigenvalues --   -0.33526  -0.33077  -0.32950  -0.32657  -0.32271
 Alpha  occ. eigenvalues --   -0.32033  -0.31764  -0.31584  -0.31376  -0.31000
 Alpha  occ. eigenvalues --   -0.30642  -0.30582  -0.30258  -0.30247  -0.29815
 Alpha  occ. eigenvalues --   -0.29142  -0.28848  -0.28426  -0.27289  -0.26084
 Alpha  occ. eigenvalues --   -0.25872  -0.25429  -0.25394  -0.25162  -0.21703
 Alpha  occ. eigenvalues --   -0.18845
 Alpha virt. eigenvalues --   -0.11493  -0.05756  -0.04276  -0.02561  -0.01859
 Alpha virt. eigenvalues --    0.00333   0.00554   0.00877   0.01242   0.02784
 Alpha virt. eigenvalues --    0.04034   0.04231   0.04809   0.05638   0.05831

 Mulliken charges:
               1
     1  Mg   0.971458
     2  C    0.025095
     3  C   -0.064582
     4  C   -0.070549
     5  C   -0.068114
     6  N   -0.385212
     7  C    0.024793
     8  C   -0.070819
     9  C   -0.140021
    10  C    0.030927
    11  C    0.014988
    12  C    0.002983
    13  C   -0.068078
    14  C    0.262695
    15  O   -0.279745
    16  O   -0.374961
    17  N   -0.469083
    18  C    0.174243
    19  C   -0.159573
    20  C   -0.088855
    21  C    0.184298
    22  C    0.081698
    23  C    0.038352
    24  O   -0.262773
    25  C    0.004951
    26  N   -0.416113
    27  C    0.050787
    28  C   -0.106917
    29  C   -0.108519
    30  C    0.141161
    31  C    0.002806
    32  C   -0.041232
    33  C   -0.079638
    34  N   -0.476810
    35  C    0.105576
    36  C   -0.220184
    37  C   -0.006607
    38  C    0.150326
    39  C    0.078100
    40  C    0.156219
    41  O   -0.224282
    42  C   -0.177201
    43  C    0.272974
    44  O   -0.225114
    45  O   -0.386615
    46  C    0.112344
    47  C    0.282071
    48  C   -0.167828
    49  C   -0.205291
    50  C   -0.001045
    51  C   -0.007689
    52  C   -0.049088
    53  C   -0.030665
    54  C   -0.179299
    55  C   -0.036842
    56  C    0.047093
    57  C   -0.088424
    58  C    0.001255
    59  C   -0.246288
    60  C   -0.006727
    61  C    0.000721
    62  C   -0.051777
    63  C   -0.021662
    64  C   -0.266436
    65  C   -0.000861
    66  C   -0.009403
    67  H    0.012007
    68  H   -0.023628
    69  H    0.003889
    70  H    0.056367
    71  H    0.053514
    72  H    0.046907
    73  H    0.051003
    74  H    0.057014
    75  H    0.069298
    76  H    0.053411
    77  H    0.077553
    78  H    0.075523
    79  H    0.062343
    80  H    0.028670
    81  H    0.067411
    82  H    0.061622
    83  H    0.067597
    84  H    0.064742
    85  H    0.061325
    86  H    0.055703
    87  H    0.053450
    88  H    0.045896
    89  H    0.052149
    90  H    0.049118
    91  H    0.040315
    92  H    0.036024
    93  H    0.053610
    94  H    0.026227
    95  H    0.074630
    96  H    0.038939
    97  H    0.064473
    98  H    0.068452
    99  H    0.052854
   100  H    0.070736
   101  H    0.069267
   102  H    0.043971
   103  H    0.060910
   104  H    0.016822
   105  H    0.069117
   106  H    0.034681
   107  H    0.041738
   108  H    0.043899
   109  H    0.026351
   110  H    0.040733
   111  H    0.042134
   112  H    0.018782
   113  H    0.028752
   114  H    0.033778
   115  H    0.039303
   116  H    0.035715
   117  H    0.037545
   118  H    0.027962
   119  H    0.029691
   120  H    0.017827
   121  H    0.024462
   122  H    0.033051
   123  H    0.031802
   124  H    0.048908
   125  H    0.045026
   126  H    0.034134
   127  H    0.034333
   128  H    0.027007
   129  H    0.022601
   130  H    0.030908
   131  H    0.041906
   132  H    0.019975
   133  H    0.013762
   134  H    0.030798
   135  H    0.035561
   136  H    0.032062
   137  H    0.039175
   138  H    0.037105
   139  H    0.026778
   140  H    0.025533
 Sum of Mulliken charges =  -0.00000

 Dipole moment (field-independent basis, Debye):
    X=              1.7968    Y=              5.4049    Z=              1.6406  Tot=              5.9274
 Quadrupole moment (field-independent basis, Debye-Ang):
   XX=           -368.6727   YY=           -435.8789   ZZ=           -400.9607
   XY=             27.5253   XZ=              4.1934   YZ=             32.3267

 Normal termination of Gaussian 16 at Wed May  4 21:30:14 2022.
