 Gaussian 16, Revision A.03,
 Gaussian 16:  ES64L-G16RevA.03 25-Dec-2016

 --------------------------------
 #p wB97XD/Def2SVP td=(nstates=5)
 --------------------------------

 ----------------------------------------------------
 step_451_chromophore_14 TDDFT with wB97XD functional
 ----------------------------------------------------
 Symbolic Z-matrix:
 Charge =  0 Multiplicity = 1

                         Standard orientation:
 ---------------------------------------------------------------------
 Center     Atomic      Atomic             Coordinates (Angstroms)
 Number     Number       Type             X           Y           Z
 ---------------------------------------------------------------------
      1         12           0        5.159505    1.017839   -0.254487
      2          6           0        4.738519   -2.479859    0.076764
      3          6           0        3.734830    0.859733   -3.370539
      4          6           0        4.467647    4.469522   -0.200146
      5          6           0        5.645527    1.169943    3.242454
      6          7           0        4.301517   -0.623076   -1.458462
      7          6           0        4.259473   -1.982447   -1.120468
      8          6           0        3.756599   -2.805593   -2.340565
      9          6           0        3.558611   -1.667423   -3.431601
     10          6           0        3.922098   -0.398548   -2.711150
     11          6           0        4.433512   -1.836441   -4.715325
     12          6           0        2.521199   -3.720637   -2.067746
     13          6           0        1.371865   -3.182567   -1.126085
     14          6           0        0.009601   -3.723372   -1.280185
     15          8           0       -0.360269   -4.526438   -2.147968
     16          8           0       -0.751964   -3.266983   -0.215993
     17          7           0        4.390980    2.461510   -1.644591
     18          6           0        3.895822    2.194512   -2.897033
     19          6           0        3.546470    3.391551   -3.606889
     20          6           0        3.776474    4.466059   -2.722632
     21          6           0        4.277803    3.832283   -1.448550
     22          6           0        2.985239    3.328968   -5.020808
     23          6           0        3.477540    5.978378   -2.937033
     24          8           0        2.998590    6.316901   -4.036217
     25          6           0        3.598798    7.110356   -1.943925
     26          7           0        5.007935    2.528144    1.259340
     27          6           0        4.807652    3.903668    1.022526
     28          6           0        4.943534    4.746473    2.348229
     29          6           0        5.616501    3.703204    3.275464
     30          6           0        5.371662    2.366403    2.577881
     31          6           0        5.628716    6.165714    2.179963
     32          6           0        5.073915    3.801631    4.761694
     33          6           0        6.189253    4.153347    5.761105
     34          7           0        5.466664   -0.336645    1.340849
     35          6           0        5.675459   -0.118659    2.677074
     36          6           0        5.860420   -1.465815    3.307549
     37          6           0        5.553488   -2.373896    2.309722
     38          6           0        5.180852   -1.679806    1.168480
     39          6           0        6.135165   -1.838493    4.760706
     40          6           0        5.404519   -3.789657    2.079479
     41          8           0        5.541628   -4.817767    2.758973
     42          6           0        4.885707   -3.873735    0.500741
     43          6           0        5.898568   -4.721582   -0.261345
     44          8           0        5.683679   -5.768877   -0.812589
     45          8           0        7.165014   -4.180660   -0.098302
     46          6           0        8.291984   -4.968249   -0.614087
     47          6           0       -2.128678   -3.742168   -0.098405
     48          6           0       -2.884082   -2.476756    0.023464
     49          6           0       -3.561437   -1.751214   -0.861716
     50          6           0       -3.563871   -2.086581   -2.373844
     51          6           0       -4.152698   -0.376281   -0.526392
     52          6           0       -5.746025   -0.286778   -0.455312
     53          6           0       -6.267453   -0.442384    1.047942
     54          6           0       -7.797135   -0.282179    1.253545
     55          6           0       -8.063870    0.724973    2.392157
     56          6           0       -8.516362   -1.646410    1.537036
     57          6           0       -9.736247   -1.897945    0.688892
     58          6           0      -11.058317   -2.166807    1.521753
     59          6           0      -11.877730   -0.838594    1.403468
     60          6           0      -12.904743   -0.814086    2.579638
     61          6           0      -12.655139   -0.804807    0.044121
     62          6           0      -12.784687    0.680155   -0.446326
     63          6           0      -14.209807    1.089165   -0.876815
     64          6           0      -14.582352    2.528398   -0.505909
     65          6           0      -14.845478    2.631275    0.986885
     66          6           0      -15.694511    3.155535   -1.385531
     67          1           0        3.236277    0.685663   -4.326132
     68          1           0        4.595289    5.552542   -0.147070
     69          1           0        5.981124    1.124695    4.279868
     70          1           0        4.538148   -3.508117   -2.632208
     71          1           0        2.487724   -1.577893   -3.611674
     72          1           0        3.814405   -1.928798   -5.608391
     73          1           0        5.000942   -2.766378   -4.693927
     74          1           0        5.019807   -0.917760   -4.718782
     75          1           0        2.967413   -4.665494   -1.759848
     76          1           0        1.979480   -3.768442   -3.012485
     77          1           0        1.295999   -2.098005   -1.204144
     78          1           0        1.652765   -3.451497   -0.108185
     79          1           0        1.897172    3.277852   -4.985910
     80          1           0        3.272427    2.407279   -5.528108
     81          1           0        3.392438    4.126909   -5.643012
     82          1           0        4.590153    7.045417   -1.495190
     83          1           0        2.874327    6.885315   -1.162012
     84          1           0        3.442567    8.092615   -2.389580
     85          1           0        3.915376    4.900639    2.676117
     86          1           0        6.684193    3.904489    3.363791
     87          1           0        6.253726    6.387096    3.045338
     88          1           0        4.862404    6.926224    2.029924
     89          1           0        6.145048    6.153684    1.221104
     90          1           0        4.526165    2.901537    5.040358
     91          1           0        4.429475    4.663710    4.938560
     92          1           0        6.979897    4.756921    5.315211
     93          1           0        6.483971    3.287077    6.354238
     94          1           0        5.807131    4.904531    6.452770
     95          1           0        5.267091   -2.364133    5.158259
     96          1           0        6.481203   -0.941250    5.273949
     97          1           0        6.945201   -2.559859    4.653782
     98          1           0        3.993090   -4.500435    0.490394
     99          1           0        8.763177   -4.361309   -1.387104
    100          1           0        7.954564   -5.885243   -1.097120
    101          1           0        8.964194   -5.176100    0.218533
    102          1           0       -2.346808   -4.206382    0.863156
    103          1           0       -2.499989   -4.323035   -0.942618
    104          1           0       -3.136968   -2.222360    1.052676
    105          1           0       -2.686750   -2.680787   -2.627829
    106          1           0       -3.832479   -1.330404   -3.111814
    107          1           0       -4.482562   -2.665304   -2.465942
    108          1           0       -3.700411    0.278552   -1.271144
    109          1           0       -3.769822   -0.078906    0.450167
    110          1           0       -6.130271   -1.101966   -1.067696
    111          1           0       -5.873500    0.742667   -0.789739
    112          1           0       -5.689715    0.283392    1.621246
    113          1           0       -5.843093   -1.395975    1.361329
    114          1           0       -8.235155    0.183404    0.370841
    115          1           0       -9.118666    0.778238    2.660385
    116          1           0       -7.754936    1.736667    2.126585
    117          1           0       -7.434929    0.422016    3.228732
    118          1           0       -8.744415   -1.729492    2.599930
    119          1           0       -7.866842   -2.459238    1.215017
    120          1           0       -9.650638   -2.736134   -0.003098
    121          1           0       -9.853400   -1.066801   -0.006333
    122          1           0      -10.866791   -2.336557    2.581766
    123          1           0      -11.517896   -2.968129    0.943038
    124          1           0      -11.145073   -0.030521    1.390972
    125          1           0      -13.694588   -0.071155    2.467522
    126          1           0      -12.343371   -0.704603    3.508019
    127          1           0      -13.323682   -1.818046    2.639642
    128          1           0      -13.660563   -1.220315    0.101450
    129          1           0      -12.173190   -1.345487   -0.770279
    130          1           0      -12.230355    0.683527   -1.385698
    131          1           0      -12.323871    1.420940    0.207487
    132          1           0      -15.003790    0.484650   -0.439521
    133          1           0      -14.394882    0.990638   -1.946371
    134          1           0      -13.693388    3.125774   -0.709424
    135          1           0      -14.463123    1.739238    1.482757
    136          1           0      -15.895231    2.689881    1.273850
    137          1           0      -14.343652    3.573941    1.205237
    138          1           0      -16.668793    3.197445   -0.897909
    139          1           0      -15.748893    2.720989   -2.383489
    140          1           0      -15.435442    4.184266   -1.637788
 ---------------------------------------------------------------------

 SCF Done:  E(RwB97XD) =  -3007.87453946     A.U. after   17 cycles

 Excitation energies and oscillator strengths:

 Excited State   1:      Singlet-A      1.6130 eV  768.64 nm  f=0.3701  <S**2>=0.000
     245 -> 248       -0.17350
     246 -> 247        0.68596
     245 <- 248       -0.11526
 This state for optimization and/or second-order correction.
 Total Energy, E(TD-HF/TD-DFT) =  -3007.81526124
 Copying the excited state density for this state as the 1-particle RhoCI density.

 Excited State   2:      Singlet-A      2.2164 eV  559.41 nm  f=0.0661  <S**2>=0.000
     245 -> 247        0.61135
     246 -> 248        0.33893

 Excited State   3:      Singlet-A      3.3762 eV  367.23 nm  f=0.0779  <S**2>=0.000
     240 -> 247       -0.14813
     240 -> 250        0.10315
     241 -> 247        0.35894
     241 -> 249       -0.11975
     242 -> 247        0.38624
     242 -> 249       -0.10178
     244 -> 247        0.25833
     246 -> 248        0.24537

 Excited State   4:      Singlet-A      3.4074 eV  363.86 nm  f=0.1592  <S**2>=0.000
     244 -> 247        0.54288
     245 -> 247        0.16541
     246 -> 248       -0.35940

 Excited State   5:      Singlet-A      3.4640 eV  357.92 nm  f=0.1563  <S**2>=0.000
     240 -> 247        0.43489
     240 -> 249       -0.21476
     240 -> 250        0.17106
     241 -> 247        0.11959
     241 -> 249       -0.13907
     241 -> 250        0.12945
     242 -> 247        0.11103
     242 -> 249       -0.11166
     242 -> 250        0.12110
     245 -> 247        0.14876
     246 -> 248       -0.28109

 The electronic state is 1-A.
 Alpha  occ. eigenvalues --  -46.96300 -19.29988 -19.29662 -19.25240 -19.24857
 Alpha  occ. eigenvalues --  -19.24536 -19.23822 -14.47522 -14.47096 -14.45021
 Alpha  occ. eigenvalues --  -14.44052 -10.43295 -10.43280 -10.39839 -10.39729
 Alpha  occ. eigenvalues --  -10.35919 -10.35858 -10.35634 -10.35324 -10.35247
 Alpha  occ. eigenvalues --  -10.35102 -10.35010 -10.34794 -10.33848 -10.33154
 Alpha  occ. eigenvalues --  -10.32877 -10.32765 -10.32761 -10.32446 -10.32301
 Alpha  occ. eigenvalues --  -10.32269 -10.32128 -10.32002 -10.31995 -10.31981
 Alpha  occ. eigenvalues --  -10.31328 -10.31272 -10.31257 -10.30901 -10.30896
 Alpha  occ. eigenvalues --  -10.30888 -10.30881 -10.30617 -10.30464 -10.30218
 Alpha  occ. eigenvalues --  -10.30086 -10.30055 -10.29840 -10.29685 -10.29662
 Alpha  occ. eigenvalues --  -10.29601 -10.29252 -10.29202 -10.28872 -10.28860
 Alpha  occ. eigenvalues --  -10.28589 -10.28576 -10.28569 -10.28426 -10.28361
 Alpha  occ. eigenvalues --  -10.28332 -10.28243 -10.28157 -10.28010 -10.27932
 Alpha  occ. eigenvalues --  -10.27791  -3.22141  -1.95696  -1.95245  -1.95111
 Alpha  occ. eigenvalues --   -1.18321  -1.17607  -1.11235  -1.11131  -1.10298
 Alpha  occ. eigenvalues --   -1.09523  -1.06339  -1.05172  -1.05091  -1.03954
 Alpha  occ. eigenvalues --   -0.95009  -0.91845  -0.91424  -0.90959  -0.90816
 Alpha  occ. eigenvalues --   -0.90550  -0.90384  -0.89789  -0.89040  -0.88538
 Alpha  occ. eigenvalues --   -0.87954  -0.87641  -0.86210  -0.85702  -0.85275
 Alpha  occ. eigenvalues --   -0.84204  -0.84177  -0.83266  -0.82565  -0.82476
 Alpha  occ. eigenvalues --   -0.81612  -0.80297  -0.79769  -0.79562  -0.78230
 Alpha  occ. eigenvalues --   -0.77307  -0.77291  -0.77079  -0.76382  -0.75824
 Alpha  occ. eigenvalues --   -0.75289  -0.74559  -0.74048  -0.72877  -0.70980
 Alpha  occ. eigenvalues --   -0.70766  -0.69544  -0.69247  -0.68279  -0.67612
 Alpha  occ. eigenvalues --   -0.67371  -0.67077  -0.66965  -0.66624  -0.65584
 Alpha  occ. eigenvalues --   -0.65136  -0.64585  -0.64444  -0.63917  -0.61984
 Alpha  occ. eigenvalues --   -0.61521  -0.61343  -0.61026  -0.60292  -0.59589
 Alpha  occ. eigenvalues --   -0.59210  -0.58729  -0.58472  -0.58174  -0.57458
 Alpha  occ. eigenvalues --   -0.57178  -0.56872  -0.56445  -0.56155  -0.55985
 Alpha  occ. eigenvalues --   -0.55605  -0.55212  -0.55035  -0.54988  -0.54864
 Alpha  occ. eigenvalues --   -0.54513  -0.54188  -0.54104  -0.53920  -0.53743
 Alpha  occ. eigenvalues --   -0.53705  -0.53441  -0.53355  -0.52893  -0.52348
 Alpha  occ. eigenvalues --   -0.52288  -0.52090  -0.51990  -0.51812  -0.51711
 Alpha  occ. eigenvalues --   -0.51377  -0.51097  -0.51050  -0.50754  -0.50524
 Alpha  occ. eigenvalues --   -0.50352  -0.50076  -0.49962  -0.49880  -0.49748
 Alpha  occ. eigenvalues --   -0.49524  -0.49400  -0.49084  -0.48922  -0.48803
 Alpha  occ. eigenvalues --   -0.48219  -0.48045  -0.47912  -0.47835  -0.47756
 Alpha  occ. eigenvalues --   -0.47671  -0.47398  -0.47158  -0.46965  -0.46738
 Alpha  occ. eigenvalues --   -0.46682  -0.46471  -0.46192  -0.45972  -0.45813
 Alpha  occ. eigenvalues --   -0.45574  -0.45372  -0.45141  -0.45040  -0.44975
 Alpha  occ. eigenvalues --   -0.44578  -0.44414  -0.44262  -0.44226  -0.44034
 Alpha  occ. eigenvalues --   -0.43794  -0.43775  -0.43666  -0.43578  -0.43401
 Alpha  occ. eigenvalues --   -0.43190  -0.42984  -0.42675  -0.42408  -0.42089
 Alpha  occ. eigenvalues --   -0.41615  -0.41277  -0.40996  -0.40850  -0.40592
 Alpha  occ. eigenvalues --   -0.40567  -0.40024  -0.39984  -0.39675  -0.39342
 Alpha  occ. eigenvalues --   -0.38905  -0.38755  -0.38578  -0.38407  -0.37960
 Alpha  occ. eigenvalues --   -0.37651  -0.37533  -0.37249  -0.37214  -0.36627
 Alpha  occ. eigenvalues --   -0.36253  -0.35442  -0.35301  -0.33894  -0.33037
 Alpha  occ. eigenvalues --   -0.32721  -0.32660  -0.31853  -0.31780  -0.26804
 Alpha  occ. eigenvalues --   -0.22953
 Alpha virt. eigenvalues --   -0.07341  -0.00370   0.02062   0.03948   0.04141
 Alpha virt. eigenvalues --    0.07151   0.07332   0.07665   0.08041   0.09517
 Alpha virt. eigenvalues --    0.10304   0.11060   0.11514   0.12326   0.12623

 Mulliken charges:
               1
     1  Mg   0.964256
     2  C    0.029393
     3  C   -0.086069
     4  C   -0.079539
     5  C   -0.082487
     6  N   -0.346791
     7  C   -0.013001
     8  C   -0.049624
     9  C   -0.116515
    10  C    0.021726
    11  C    0.027354
    12  C    0.015969
    13  C   -0.049140
    14  C    0.251730
    15  O   -0.276161
    16  O   -0.374439
    17  N   -0.439147
    18  C    0.171334
    19  C   -0.151752
    20  C   -0.081765
    21  C    0.183151
    22  C    0.093013
    23  C    0.032662
    24  O   -0.258175
    25  C    0.021283
    26  N   -0.387387
    27  C    0.042818
    28  C   -0.085903
    29  C   -0.080890
    30  C    0.127958
    31  C    0.018076
    32  C   -0.028282
    33  C   -0.062691
    34  N   -0.442981
    35  C    0.093302
    36  C   -0.221339
    37  C   -0.002910
    38  C    0.131502
    39  C    0.091464
    40  C    0.140397
    41  O   -0.215942
    42  C   -0.137064
    43  C    0.248956
    44  O   -0.219840
    45  O   -0.387324
    46  C    0.128387
    47  C    0.296092
    48  C   -0.173007
    49  C   -0.196601
    50  C    0.011228
    51  C    0.012514
    52  C   -0.031370
    53  C   -0.015074
    54  C   -0.149924
    55  C   -0.020879
    56  C    0.056988
    57  C   -0.067163
    58  C    0.014181
    59  C   -0.201835
    60  C    0.011096
    61  C    0.008425
    62  C   -0.036684
    63  C   -0.001979
    64  C   -0.236730
    65  C    0.018897
    66  C    0.001992
    67  H    0.005666
    68  H   -0.043463
    69  H   -0.005390
    70  H    0.044316
    71  H    0.042893
    72  H    0.042234
    73  H    0.047048
    74  H    0.048379
    75  H    0.062863
    76  H    0.043903
    77  H    0.069716
    78  H    0.066889
    79  H    0.059815
    80  H    0.023840
    81  H    0.065293
    82  H    0.056269
    83  H    0.062357
    84  H    0.065129
    85  H    0.050817
    86  H    0.042100
    87  H    0.048909
    88  H    0.040015
    89  H    0.044111
    90  H    0.042126
    91  H    0.031172
    92  H    0.028242
    93  H    0.048501
    94  H    0.019975
    95  H    0.068933
    96  H    0.032337
    97  H    0.057959
    98  H    0.060417
    99  H    0.048182
   100  H    0.066687
   101  H    0.065549
   102  H    0.040894
   103  H    0.056118
   104  H    0.011720
   105  H    0.062233
   106  H    0.030816
   107  H    0.034450
   108  H    0.036476
   109  H    0.016997
   110  H    0.030955
   111  H    0.034711
   112  H    0.009177
   113  H    0.016741
   114  H    0.020949
   115  H    0.032261
   116  H    0.029756
   117  H    0.030145
   118  H    0.019125
   119  H    0.021555
   120  H    0.011406
   121  H    0.009327
   122  H    0.023965
   123  H    0.023627
   124  H    0.024714
   125  H    0.036886
   126  H    0.027598
   127  H    0.026799
   128  H    0.017467
   129  H    0.015376
   130  H    0.022986
   131  H    0.032588
   132  H    0.008194
   133  H    0.005316
   134  H    0.018361
   135  H    0.016621
   136  H    0.026631
   137  H    0.034028
   138  H    0.031025
   139  H    0.020801
   140  H    0.019675
 Sum of Mulliken charges =  -0.00000

 Dipole moment (field-independent basis, Debye):
    X=              1.6928    Y=              5.8657    Z=              1.0884  Tot=              6.2013
 Quadrupole moment (field-independent basis, Debye-Ang):
   XX=           -368.8216   YY=           -434.2739   ZZ=           -400.7632
   XY=             29.0998   XZ=              1.1201   YZ=             31.0111

 Normal termination of Gaussian 16 at Wed May  4 22:09:57 2022.
