 Gaussian 16, Revision A.03,
 Gaussian 16:  ES64L-G16RevA.03 25-Dec-2016

 --------------------
 #p ZINDO=(nstates=5)
 --------------------

 -----------------------------
 step_451_chromophore_14 ZINDO
 -----------------------------
 Symbolic Z-matrix:
 Charge =  0 Multiplicity = 1

                         Standard orientation:
 ---------------------------------------------------------------------
 Center     Atomic      Atomic             Coordinates (Angstroms)
 Number     Number       Type             X           Y           Z
 ---------------------------------------------------------------------
      1         12           0        5.159505    1.017839   -0.254487
      2          6           0        4.738519   -2.479859    0.076764
      3          6           0        3.734830    0.859733   -3.370539
      4          6           0        4.467647    4.469522   -0.200146
      5          6           0        5.645527    1.169943    3.242454
      6          7           0        4.301517   -0.623076   -1.458462
      7          6           0        4.259473   -1.982447   -1.120468
      8          6           0        3.756599   -2.805593   -2.340565
      9          6           0        3.558611   -1.667423   -3.431601
     10          6           0        3.922098   -0.398548   -2.711150
     11          6           0        4.433512   -1.836441   -4.715325
     12          6           0        2.521199   -3.720637   -2.067746
     13          6           0        1.371865   -3.182567   -1.126085
     14          6           0        0.009601   -3.723372   -1.280185
     15          8           0       -0.360269   -4.526438   -2.147968
     16          8           0       -0.751964   -3.266983   -0.215993
     17          7           0        4.390980    2.461510   -1.644591
     18          6           0        3.895822    2.194512   -2.897033
     19          6           0        3.546470    3.391551   -3.606889
     20          6           0        3.776474    4.466059   -2.722632
     21          6           0        4.277803    3.832283   -1.448550
     22          6           0        2.985239    3.328968   -5.020808
     23          6           0        3.477540    5.978378   -2.937033
     24          8           0        2.998590    6.316901   -4.036217
     25          6           0        3.598798    7.110356   -1.943925
     26          7           0        5.007935    2.528144    1.259340
     27          6           0        4.807652    3.903668    1.022526
     28          6           0        4.943534    4.746473    2.348229
     29          6           0        5.616501    3.703204    3.275464
     30          6           0        5.371662    2.366403    2.577881
     31          6           0        5.628716    6.165714    2.179963
     32          6           0        5.073915    3.801631    4.761694
     33          6           0        6.189253    4.153347    5.761105
     34          7           0        5.466664   -0.336645    1.340849
     35          6           0        5.675459   -0.118659    2.677074
     36          6           0        5.860420   -1.465815    3.307549
     37          6           0        5.553488   -2.373896    2.309722
     38          6           0        5.180852   -1.679806    1.168480
     39          6           0        6.135165   -1.838493    4.760706
     40          6           0        5.404519   -3.789657    2.079479
     41          8           0        5.541628   -4.817767    2.758973
     42          6           0        4.885707   -3.873735    0.500741
     43          6           0        5.898568   -4.721582   -0.261345
     44          8           0        5.683679   -5.768877   -0.812589
     45          8           0        7.165014   -4.180660   -0.098302
     46          6           0        8.291984   -4.968249   -0.614087
     47          6           0       -2.128678   -3.742168   -0.098405
     48          6           0       -2.884082   -2.476756    0.023464
     49          6           0       -3.561437   -1.751214   -0.861716
     50          6           0       -3.563871   -2.086581   -2.373844
     51          6           0       -4.152698   -0.376281   -0.526392
     52          6           0       -5.746025   -0.286778   -0.455312
     53          6           0       -6.267453   -0.442384    1.047942
     54          6           0       -7.797135   -0.282179    1.253545
     55          6           0       -8.063870    0.724973    2.392157
     56          6           0       -8.516362   -1.646410    1.537036
     57          6           0       -9.736247   -1.897945    0.688892
     58          6           0      -11.058317   -2.166807    1.521753
     59          6           0      -11.877730   -0.838594    1.403468
     60          6           0      -12.904743   -0.814086    2.579638
     61          6           0      -12.655139   -0.804807    0.044121
     62          6           0      -12.784687    0.680155   -0.446326
     63          6           0      -14.209807    1.089165   -0.876815
     64          6           0      -14.582352    2.528398   -0.505909
     65          6           0      -14.845478    2.631275    0.986885
     66          6           0      -15.694511    3.155535   -1.385531
     67          1           0        3.236277    0.685663   -4.326132
     68          1           0        4.595289    5.552542   -0.147070
     69          1           0        5.981124    1.124695    4.279868
     70          1           0        4.538148   -3.508117   -2.632208
     71          1           0        2.487724   -1.577893   -3.611674
     72          1           0        3.814405   -1.928798   -5.608391
     73          1           0        5.000942   -2.766378   -4.693927
     74          1           0        5.019807   -0.917760   -4.718782
     75          1           0        2.967413   -4.665494   -1.759848
     76          1           0        1.979480   -3.768442   -3.012485
     77          1           0        1.295999   -2.098005   -1.204144
     78          1           0        1.652765   -3.451497   -0.108185
     79          1           0        1.897172    3.277852   -4.985910
     80          1           0        3.272427    2.407279   -5.528108
     81          1           0        3.392438    4.126909   -5.643012
     82          1           0        4.590153    7.045417   -1.495190
     83          1           0        2.874327    6.885315   -1.162012
     84          1           0        3.442567    8.092615   -2.389580
     85          1           0        3.915376    4.900639    2.676117
     86          1           0        6.684193    3.904489    3.363791
     87          1           0        6.253726    6.387096    3.045338
     88          1           0        4.862404    6.926224    2.029924
     89          1           0        6.145048    6.153684    1.221104
     90          1           0        4.526165    2.901537    5.040358
     91          1           0        4.429475    4.663710    4.938560
     92          1           0        6.979897    4.756921    5.315211
     93          1           0        6.483971    3.287077    6.354238
     94          1           0        5.807131    4.904531    6.452770
     95          1           0        5.267091   -2.364133    5.158259
     96          1           0        6.481203   -0.941250    5.273949
     97          1           0        6.945201   -2.559859    4.653782
     98          1           0        3.993090   -4.500435    0.490394
     99          1           0        8.763177   -4.361309   -1.387104
    100          1           0        7.954564   -5.885243   -1.097120
    101          1           0        8.964194   -5.176100    0.218533
    102          1           0       -2.346808   -4.206382    0.863156
    103          1           0       -2.499989   -4.323035   -0.942618
    104          1           0       -3.136968   -2.222360    1.052676
    105          1           0       -2.686750   -2.680787   -2.627829
    106          1           0       -3.832479   -1.330404   -3.111814
    107          1           0       -4.482562   -2.665304   -2.465942
    108          1           0       -3.700411    0.278552   -1.271144
    109          1           0       -3.769822   -0.078906    0.450167
    110          1           0       -6.130271   -1.101966   -1.067696
    111          1           0       -5.873500    0.742667   -0.789739
    112          1           0       -5.689715    0.283392    1.621246
    113          1           0       -5.843093   -1.395975    1.361329
    114          1           0       -8.235155    0.183404    0.370841
    115          1           0       -9.118666    0.778238    2.660385
    116          1           0       -7.754936    1.736667    2.126585
    117          1           0       -7.434929    0.422016    3.228732
    118          1           0       -8.744415   -1.729492    2.599930
    119          1           0       -7.866842   -2.459238    1.215017
    120          1           0       -9.650638   -2.736134   -0.003098
    121          1           0       -9.853400   -1.066801   -0.006333
    122          1           0      -10.866791   -2.336557    2.581766
    123          1           0      -11.517896   -2.968129    0.943038
    124          1           0      -11.145073   -0.030521    1.390972
    125          1           0      -13.694588   -0.071155    2.467522
    126          1           0      -12.343371   -0.704603    3.508019
    127          1           0      -13.323682   -1.818046    2.639642
    128          1           0      -13.660563   -1.220315    0.101450
    129          1           0      -12.173190   -1.345487   -0.770279
    130          1           0      -12.230355    0.683527   -1.385698
    131          1           0      -12.323871    1.420940    0.207487
    132          1           0      -15.003790    0.484650   -0.439521
    133          1           0      -14.394882    0.990638   -1.946371
    134          1           0      -13.693388    3.125774   -0.709424
    135          1           0      -14.463123    1.739238    1.482757
    136          1           0      -15.895231    2.689881    1.273850
    137          1           0      -14.343652    3.573941    1.205237
    138          1           0      -16.668793    3.197445   -0.897909
    139          1           0      -15.748893    2.720989   -2.383489
    140          1           0      -15.435442    4.184266   -1.637788
 ---------------------------------------------------------------------

 SCF Done:  E(RZINDO/S) =  -473.968327760     A.U. after   20 cycles

 Excitation energies and oscillator strengths:

 Excited State   1:      Singlet-A      1.2535 eV  989.11 nm  f=0.5736  <S**2>=0.000
     175 ->178         0.17093
     176 ->177         0.66867
 This state for optimization and/or second-order correction.
 Total Energy, E(CIS/TDA) =  -473.922262560
 Copying the excited state density for this state as the 1-particle RhoCI density.

 Excited State   2:      Singlet-A      1.9219 eV  645.11 nm  f=0.0021  <S**2>=0.000
     175 ->177        -0.47955
     176 ->178         0.49229

 Excited State   3:      Singlet-A      2.7982 eV  443.08 nm  f=0.0191  <S**2>=0.000
     176 ->179         0.18126
     176 ->180         0.67274

 Excited State   4:      Singlet-A      2.8948 eV  428.29 nm  f=0.0165  <S**2>=0.000
     168 ->177        -0.27740
     168 ->178         0.16741
     168 ->179         0.39671
     168 ->181        -0.30383
     168 ->185         0.24608
     176 ->179        -0.10130

 Excited State   5:      Singlet-A      2.9099 eV  426.07 nm  f=0.3106  <S**2>=0.000
     175 ->177        -0.24809
     176 ->178        -0.21249
     176 ->179         0.50835
     176 ->180        -0.11904
     176 ->181         0.21677
     176 ->183         0.10760

 The electronic state is 1-A.
 Alpha  occ. eigenvalues --   -1.83206  -1.79873  -1.78378  -1.72530  -1.71761
 Alpha  occ. eigenvalues --   -1.69809  -1.65609  -1.60069  -1.58513  -1.55987
 Alpha  occ. eigenvalues --   -1.55343  -1.51646  -1.48141  -1.47438  -1.46760
 Alpha  occ. eigenvalues --   -1.46356  -1.42360  -1.40969  -1.39368  -1.37552
 Alpha  occ. eigenvalues --   -1.35834  -1.33096  -1.32439  -1.30473  -1.28401
 Alpha  occ. eigenvalues --   -1.27661  -1.27187  -1.23080  -1.22419  -1.18450
 Alpha  occ. eigenvalues --   -1.16417  -1.16405  -1.14129  -1.13635  -1.12657
 Alpha  occ. eigenvalues --   -1.12359  -1.10555  -1.09913  -1.05283  -1.03988
 Alpha  occ. eigenvalues --   -1.03185  -1.00971  -1.00206  -0.97804  -0.95153
 Alpha  occ. eigenvalues --   -0.94895  -0.93989  -0.93798  -0.93003  -0.92320
 Alpha  occ. eigenvalues --   -0.91416  -0.89399  -0.88900  -0.88505  -0.86408
 Alpha  occ. eigenvalues --   -0.86172  -0.84080  -0.83083  -0.81983  -0.80563
 Alpha  occ. eigenvalues --   -0.79883  -0.78403  -0.77976  -0.77269  -0.77130
 Alpha  occ. eigenvalues --   -0.76338  -0.75622  -0.74059  -0.73600  -0.73215
 Alpha  occ. eigenvalues --   -0.73008  -0.72675  -0.71704  -0.70753  -0.70372
 Alpha  occ. eigenvalues --   -0.69695  -0.69553  -0.69089  -0.68522  -0.67810
 Alpha  occ. eigenvalues --   -0.67551  -0.67209  -0.66464  -0.66048  -0.65592
 Alpha  occ. eigenvalues --   -0.65235  -0.64945  -0.64225  -0.63737  -0.63519
 Alpha  occ. eigenvalues --   -0.63274  -0.63224  -0.62548  -0.62486  -0.61995
 Alpha  occ. eigenvalues --   -0.61871  -0.61498  -0.60905  -0.60683  -0.59992
 Alpha  occ. eigenvalues --   -0.59778  -0.59381  -0.58809  -0.58761  -0.57875
 Alpha  occ. eigenvalues --   -0.57773  -0.57464  -0.57328  -0.56740  -0.56548
 Alpha  occ. eigenvalues --   -0.56231  -0.56098  -0.55603  -0.55450  -0.54842
 Alpha  occ. eigenvalues --   -0.54611  -0.53820  -0.53693  -0.53364  -0.52641
 Alpha  occ. eigenvalues --   -0.52583  -0.52317  -0.51920  -0.51791  -0.51706
 Alpha  occ. eigenvalues --   -0.51551  -0.51471  -0.51004  -0.50859  -0.50483
 Alpha  occ. eigenvalues --   -0.50243  -0.50116  -0.49619  -0.49457  -0.49202
 Alpha  occ. eigenvalues --   -0.48900  -0.48761  -0.48526  -0.48111  -0.47947
 Alpha  occ. eigenvalues --   -0.47728  -0.47592  -0.47462  -0.47075  -0.46948
 Alpha  occ. eigenvalues --   -0.46689  -0.46153  -0.45962  -0.45511  -0.45350
 Alpha  occ. eigenvalues --   -0.45083  -0.44954  -0.44811  -0.44225  -0.44153
 Alpha  occ. eigenvalues --   -0.44002  -0.43735  -0.43054  -0.43029  -0.42785
 Alpha  occ. eigenvalues --   -0.41803  -0.41388  -0.41113  -0.39353  -0.39091
 Alpha  occ. eigenvalues --   -0.38617  -0.37966  -0.36279  -0.35022  -0.34887
 Alpha  occ. eigenvalues --   -0.34504  -0.33147  -0.32167  -0.32136  -0.27715
 Alpha  occ. eigenvalues --   -0.21857
 Alpha virt. eigenvalues --   -0.08693  -0.02839  -0.00973   0.00053   0.00881
 Alpha virt. eigenvalues --    0.01699   0.02141   0.03003   0.04004   0.05322
 Alpha virt. eigenvalues --    0.05394   0.05916   0.06922   0.07368   0.07839

 Mulliken charges:
               1
     1  Mg   0.432957
     2  C   -0.011877
     3  C   -0.089360
     4  C   -0.098368
     5  C   -0.068371
     6  N   -0.270778
     7  C    0.072245
     8  C   -0.007343
     9  C   -0.000141
    10  C    0.174005
    11  C   -0.051887
    12  C   -0.031183
    13  C    0.007733
    14  C    0.473808
    15  O   -0.523490
    16  O   -0.264496
    17  N   -0.335571
    18  C    0.132225
    19  C    0.060829
    20  C   -0.040993
    21  C    0.145228
    22  C   -0.033412
    23  C    0.320952
    24  O   -0.529129
    25  C   -0.016330
    26  N   -0.290903
    27  C    0.145700
    28  C   -0.003170
    29  C    0.003850
    30  C    0.108204
    31  C   -0.055009
    32  C   -0.040171
    33  C   -0.063038
    34  N   -0.322063
    35  C    0.080301
    36  C   -0.001327
    37  C   -0.039366
    38  C    0.083302
    39  C   -0.042901
    40  C    0.319734
    41  O   -0.518774
    42  C    0.049764
    43  C    0.484583
    44  O   -0.506402
    45  O   -0.278035
    46  C    0.074030
    47  C    0.105477
    48  C   -0.086035
    49  C   -0.009387
    50  C   -0.059004
    51  C   -0.031827
    52  C   -0.041967
    53  C   -0.037575
    54  C   -0.008506
    55  C   -0.056348
    56  C   -0.030724
    57  C   -0.044276
    58  C   -0.048143
    59  C   -0.016559
    60  C   -0.059798
    61  C   -0.037949
    62  C   -0.041566
    63  C   -0.032909
    64  C   -0.010899
    65  C   -0.059459
    66  C   -0.060164
    67  H    0.028321
    68  H    0.029482
    69  H    0.028563
    70  H    0.036108
    71  H    0.036636
    72  H    0.021696
    73  H    0.030971
    74  H    0.032164
    75  H    0.043377
    76  H    0.028509
    77  H    0.046922
    78  H    0.042891
    79  H    0.042751
    80  H    0.017693
    81  H    0.043197
    82  H    0.030296
    83  H    0.041058
    84  H    0.048990
    85  H    0.034725
    86  H    0.036783
    87  H    0.031612
    88  H    0.018957
    89  H    0.025164
    90  H    0.029637
    91  H    0.018304
    92  H    0.024122
    93  H    0.027727
    94  H    0.006649
    95  H    0.044165
    96  H    0.025849
    97  H    0.035321
    98  H    0.053285
    99  H    0.030419
   100  H    0.052746
   101  H    0.043931
   102  H    0.043372
   103  H    0.060759
   104  H    0.016381
   105  H    0.037089
   106  H    0.026861
   107  H    0.020932
   108  H    0.023907
   109  H    0.016323
   110  H    0.033854
   111  H    0.026657
   112  H    0.015920
   113  H    0.021035
   114  H    0.022011
   115  H    0.017954
   116  H    0.012562
   117  H    0.018564
   118  H    0.026318
   119  H    0.016121
   120  H    0.009966
   121  H    0.017753
   122  H    0.030769
   123  H    0.027755
   124  H    0.031451
   125  H    0.024600
   126  H    0.013799
   127  H    0.018445
   128  H    0.022182
   129  H    0.018015
   130  H    0.010506
   131  H    0.029909
   132  H    0.014237
   133  H    0.012194
   134  H    0.011486
   135  H    0.023413
   136  H    0.019075
   137  H    0.020324
   138  H    0.022955
   139  H    0.017970
   140  H    0.009609
 Sum of Mulliken charges =  -0.00000

 Dipole moment (field-independent basis, Debye):
    X=              1.0334    Y=              8.7570    Z=              0.2353  Tot=              8.8209
 N-N= 4.312427333903D+03 E-N= 0.000000000000D+00  KE=-9.298425584188D+03
 Leave Link  601 at Wed May  4 22:29:56 2022, MaxMem=  6710886400 cpu:               0.8 elap:               0.0
 (Enter /sw/apps/gaussian-16.0/g16/l9999.exe)
 1\1\GINC-BP1-COMPUTE192\SP\RZINDO CIS\STO-3G\C55H74Mg1N4O6\OF15641\04-
 May-2022\0\\#p ZINDO=(nstates=5)\\step_451_chromophore_14 ZINDO\\0,1\M
 g,0,46.765,44.098,43.613\C,0,43.279,43.573,43.308\C,0,47.303,40.845,42
 .668\C,0,50.106,44.814,42.764\C,0,46.124,47.573,43.575\N,0,45.431,42.4
 42,43.016\C,0,44.03,42.458,42.987\C,0,43.5,41.023,42.706\C,0,44.854,40
 .196,42.618\C,0,45.93,41.228,42.814\C,0,44.991,39.056,43.678\C,0,42.53
 3,40.893,41.487\C,0,42.83,41.744,40.189\C,0,42.323,41.267,38.89\O,0,41

 Normal termination of Gaussian 16 at Wed May  4 22:29:56 2022.
