 Gaussian 16, Revision A.03,
 Gaussian 16:  ES64L-G16RevA.03 25-Dec-2016

 ------------------------------
 #p blyp/Def2SVP td=(nstates=5)
 ------------------------------

 ---------------------------------------------------
 step_1501_chromophore_22 TDDFT with blyp functional
 ---------------------------------------------------
 Symbolic Z-matrix:
 Charge =  0 Multiplicity = 1

                         Standard orientation:
 ---------------------------------------------------------------------
 Center     Atomic      Atomic             Coordinates (Angstroms)
 Number     Number       Type             X           Y           Z
 ---------------------------------------------------------------------
      1         12           0        6.115164    0.449142    0.085803
      2          6           0        3.696467   -1.936428   -0.398475
      3          6           0        4.281045    2.489072   -2.050553
      4          6           0        8.693441    2.728476    0.268665
      5          6           0        8.300532   -1.948439    1.533027
      6          7           0        4.318620    0.227379   -1.138545
      7          6           0        3.382710   -0.740080   -1.090267
      8          6           0        2.088239   -0.479435   -1.935459
      9          6           0        2.616893    0.680276   -2.805140
     10          6           0        3.853008    1.166025   -1.985808
     11          6           0        3.006265    0.218485   -4.240081
     12          6           0        0.830477   -0.183375   -1.206702
     13          6           0       -0.414217   -0.745009   -1.914532
     14          6           0       -1.542718   -1.406887   -0.957748
     15          8           0       -1.268168   -2.071326    0.048231
     16          8           0       -2.843330   -1.052029   -1.336352
     17          7           0        6.269221    2.426375   -0.621442
     18          6           0        5.390790    3.049984   -1.438062
     19          6           0        5.878010    4.395264   -1.559013
     20          6           0        7.194657    4.436321   -1.067553
     21          6           0        7.437969    3.142507   -0.415864
     22          6           0        5.178444    5.609512   -2.218693
     23          6           0        8.175411    5.609469   -0.997821
     24          8           0        9.286495    5.537143   -0.483703
     25          6           0        7.730825    6.967287   -1.527582
     26          7           0        8.158043    0.433101    0.896066
     27          6           0        8.987199    1.437354    0.840957
     28          6           0       10.308452    1.084435    1.575726
     29          6           0       10.109739   -0.312015    2.151232
     30          6           0        8.728025   -0.647187    1.561710
     31          6           0       11.638536    1.342489    0.735550
     32          6           0       10.152839   -0.574708    3.682560
     33          6           0       10.876855   -1.801076    4.110479
     34          7           0        6.048378   -1.494048    0.612389
     35          6           0        7.013016   -2.344494    1.107743
     36          6           0        6.529587   -3.690668    0.965244
     37          6           0        5.190783   -3.540708    0.591022
     38          6           0        4.929125   -2.212447    0.334450
     39          6           0        7.191629   -4.954108    1.259052
     40          6           0        3.983741   -4.232728    0.263817
     41          8           0        3.860583   -5.476401    0.337852
     42          6           0        2.948744   -3.197473   -0.206474
     43          6           0        1.909909   -3.117739    0.816825
     44          8           0        1.538842   -2.101311    1.331912
     45          8           0        1.442690   -4.411079    1.003506
     46          6           0        0.427443   -4.543018    2.093310
     47          6           0       -3.969037   -1.764919   -0.713992
     48          6           0       -5.200794   -1.310058   -1.460486
     49          6           0       -6.346005   -2.032655   -1.787806
     50          6           0       -6.689001   -3.476873   -1.382975
     51          6           0       -7.393767   -1.471537   -2.737130
     52          6           0       -8.618977   -0.745410   -2.130425
     53          6           0       -9.882003   -0.779851   -2.967956
     54          6           0      -11.231954   -1.265047   -2.269895
     55          6           0      -12.251149   -1.956000   -3.213028
     56          6           0      -11.994757   -0.104531   -1.503565
     57          6           0      -12.416681   -0.534068   -0.081985
     58          6           0      -13.925958   -0.459118    0.239716
     59          6           0      -14.282877    0.908234    0.858157
     60          6           0      -15.587997    1.367881    0.194512
     61          6           0      -14.350006    0.920861    2.391505
     62          6           0      -14.063070    2.369862    2.999843
     63          6           0      -12.693083    2.468607    3.701587
     64          6           0      -11.967268    3.812542    3.404441
     65          6           0      -10.506105    3.619019    3.844652
     66          6           0      -12.663910    4.939519    4.251295
     67          1           0        3.905201    3.047971   -2.909952
     68          1           0        9.466004    3.497521    0.340187
     69          1           0        8.807089   -2.792481    2.006248
     70          1           0        1.807724   -1.341553   -2.539422
     71          1           0        1.934544    1.526109   -2.889296
     72          1           0        3.205108   -0.849775   -4.329077
     73          1           0        3.903371    0.679391   -4.653344
     74          1           0        2.211290    0.456218   -4.946250
     75          1           0        0.667841    0.887307   -1.085955
     76          1           0        0.817407   -0.648297   -0.221083
     77          1           0       -0.214668   -1.372881   -2.783141
     78          1           0       -0.847690    0.166431   -2.326414
     79          1           0        5.094338    6.518631   -1.623487
     80          1           0        4.160786    5.367830   -2.526179
     81          1           0        5.718705    5.877973   -3.127406
     82          1           0        7.336485    6.986001   -2.542840
     83          1           0        8.616308    7.602812   -1.539426
     84          1           0        6.952278    7.382712   -0.888302
     85          1           0       10.512172    1.560233    2.534920
     86          1           0       10.790830   -0.951626    1.589666
     87          1           0       11.447819    1.973071   -0.133598
     88          1           0       11.952385    0.356586    0.393263
     89          1           0       12.335626    1.880523    1.378917
     90          1           0        9.211151   -0.569729    4.231455
     91          1           0       10.757372    0.225693    4.108324
     92          1           0       10.203588   -2.475454    4.639909
     93          1           0       11.715057   -1.583756    4.773614
     94          1           0       11.251707   -2.343483    3.242493
     95          1           0        7.914808   -5.317763    0.529392
     96          1           0        6.311112   -5.596485    1.275833
     97          1           0        7.626755   -5.022276    2.256202
     98          1           0        2.506437   -3.589841   -1.122635
     99          1           0        0.263921   -3.768063    2.843039
    100          1           0        0.722340   -5.460008    2.603639
    101          1           0       -0.518922   -4.691275    1.573221
    102          1           0       -4.066172   -1.419756    0.315449
    103          1           0       -3.957028   -2.836853   -0.914237
    104          1           0       -5.078336   -0.412609   -2.066895
    105          1           0       -7.651078   -3.600980   -0.884158
    106          1           0       -5.982018   -3.875161   -0.655584
    107          1           0       -6.752983   -4.156177   -2.232901
    108          1           0       -7.596374   -2.264340   -3.456101
    109          1           0       -6.847047   -0.698238   -3.276631
    110          1           0       -8.398088    0.298652   -1.907409
    111          1           0       -8.865581   -1.221239   -1.181057
    112          1           0       -9.768192   -1.461988   -3.811063
    113          1           0      -10.034617    0.254881   -3.274922
    114          1           0      -10.957320   -2.017438   -1.530229
    115          1           0      -12.349029   -1.434598   -4.165032
    116          1           0      -13.251769   -1.976251   -2.780823
    117          1           0      -11.877121   -2.976004   -3.306742
    118          1           0      -12.881612    0.072259   -2.111178
    119          1           0      -11.629780    0.898195   -1.281110
    120          1           0      -11.748347   -0.113396    0.669642
    121          1           0      -12.213870   -1.603331   -0.013550
    122          1           0      -14.105259   -1.230198    0.988732
    123          1           0      -14.528288   -0.647194   -0.649200
    124          1           0      -13.534590    1.638414    0.549423
    125          1           0      -16.392381    0.718716    0.541663
    126          1           0      -15.523237    1.373319   -0.893415
    127          1           0      -15.688574    2.399988    0.529812
    128          1           0      -13.616464    0.203840    2.760067
    129          1           0      -15.396927    0.696811    2.593145
    130          1           0      -14.934705    2.542159    3.631891
    131          1           0      -14.195356    3.124823    2.225085
    132          1           0      -12.037211    1.648992    3.404859
    133          1           0      -12.870477    2.393717    4.774818
    134          1           0      -11.932473    4.024646    2.336144
    135          1           0      -10.120354    2.605365    3.956946
    136          1           0      -10.440317    3.792008    4.918472
    137          1           0       -9.770158    4.271251    3.373744
    138          1           0      -12.931920    5.674928    3.492742
    139          1           0      -12.060140    5.474269    4.984760
    140          1           0      -13.656605    4.748571    4.659802
 ---------------------------------------------------------------------

 SCF Done:  E(RB-LYP) =  -3007.35208752     A.U. after   21 cycles

 Excitation energies and oscillator strengths:

 Excited State   1:      Singlet-A      1.6812 eV  737.47 nm  f=0.0062  <S**2>=0.000
     244 -> 247        0.57968
     245 -> 247        0.39827
 This state for optimization and/or second-order correction.
 Total Energy, E(TD-HF/TD-DFT) =  -3007.29030453
 Copying the excited state density for this state as the 1-particle RhoCI density.

 Excited State   2:      Singlet-A      1.8125 eV  684.04 nm  f=0.2993  <S**2>=0.000
     245 -> 248       -0.18289
     246 -> 247        0.68679
     246 <- 247       -0.14585

 Excited State   3:      Singlet-A      2.0065 eV  617.92 nm  f=0.0305  <S**2>=0.000
     243 -> 247        0.54304
     244 -> 247        0.25542
     245 -> 247       -0.34116
     246 -> 248       -0.13063

 Excited State   4:      Singlet-A      2.0545 eV  603.48 nm  f=0.0504  <S**2>=0.000
     243 -> 247        0.45069
     244 -> 247       -0.28614
     245 -> 247        0.41055
     246 -> 248        0.18868

 Excited State   5:      Singlet-A      2.4241 eV  511.47 nm  f=0.0001  <S**2>=0.000
     240 -> 247        0.58638
     241 -> 247        0.39512

 The electronic state is 1-A.
 Alpha  occ. eigenvalues --  -46.26506 -18.82488 -18.80861 -18.77631 -18.76422
 Alpha  occ. eigenvalues --  -18.75671 -18.74504 -14.03332 -14.02817 -14.00920
 Alpha  occ. eigenvalues --  -14.00137 -10.05132 -10.02924  -9.99906  -9.98713
 Alpha  occ. eigenvalues --   -9.98479  -9.96619  -9.96454  -9.96346  -9.96288
 Alpha  occ. eigenvalues --   -9.96199  -9.95772  -9.95427  -9.94453  -9.94185
 Alpha  occ. eigenvalues --   -9.94030  -9.93916  -9.93914  -9.93913  -9.93625
 Alpha  occ. eigenvalues --   -9.93461  -9.93257  -9.93047  -9.92988  -9.92968
 Alpha  occ. eigenvalues --   -9.92798  -9.92700  -9.92623  -9.92598  -9.92560
 Alpha  occ. eigenvalues --   -9.92495  -9.92469  -9.92358  -9.92254  -9.92218
 Alpha  occ. eigenvalues --   -9.92136  -9.92084  -9.92066  -9.91822  -9.91795
 Alpha  occ. eigenvalues --   -9.91523  -9.91430  -9.91370  -9.91367  -9.91191
 Alpha  occ. eigenvalues --   -9.91151  -9.91121  -9.91036  -9.90927  -9.90876
 Alpha  occ. eigenvalues --   -9.90866  -9.90616  -9.90572  -9.90515  -9.90475
 Alpha  occ. eigenvalues --   -9.89639  -2.91177  -1.71612  -1.71085  -1.70858
 Alpha  occ. eigenvalues --   -0.96837  -0.96667  -0.91396  -0.89921  -0.89728
 Alpha  occ. eigenvalues --   -0.88847  -0.87097  -0.86436  -0.85372  -0.85010
 Alpha  occ. eigenvalues --   -0.75851  -0.73567  -0.73270  -0.72838  -0.72768
 Alpha  occ. eigenvalues --   -0.71698  -0.71179  -0.70832  -0.70354  -0.69807
 Alpha  occ. eigenvalues --   -0.69592  -0.68964  -0.68161  -0.67669  -0.66807
 Alpha  occ. eigenvalues --   -0.66355  -0.65476  -0.65071  -0.64416  -0.64129
 Alpha  occ. eigenvalues --   -0.64039  -0.62206  -0.62103  -0.61273  -0.60886
 Alpha  occ. eigenvalues --   -0.60302  -0.60267  -0.59483  -0.59190  -0.58787
 Alpha  occ. eigenvalues --   -0.57925  -0.57250  -0.56269  -0.55211  -0.54076
 Alpha  occ. eigenvalues --   -0.53573  -0.53338  -0.52681  -0.52353  -0.51349
 Alpha  occ. eigenvalues --   -0.51023  -0.50952  -0.50513  -0.50161  -0.49756
 Alpha  occ. eigenvalues --   -0.49681  -0.49531  -0.48307  -0.47568  -0.46806
 Alpha  occ. eigenvalues --   -0.46338  -0.45842  -0.45768  -0.45290  -0.44487
 Alpha  occ. eigenvalues --   -0.43858  -0.43394  -0.42970  -0.42792  -0.42417
 Alpha  occ. eigenvalues --   -0.42137  -0.41821  -0.41563  -0.41269  -0.41026
 Alpha  occ. eigenvalues --   -0.40779  -0.40435  -0.40031  -0.39904  -0.39687
 Alpha  occ. eigenvalues --   -0.39449  -0.39382  -0.39324  -0.39284  -0.39142
 Alpha  occ. eigenvalues --   -0.38982  -0.38390  -0.38216  -0.38140  -0.38005
 Alpha  occ. eigenvalues --   -0.37968  -0.37392  -0.37311  -0.37201  -0.36921
 Alpha  occ. eigenvalues --   -0.36790  -0.36682  -0.36419  -0.36300  -0.36204
 Alpha  occ. eigenvalues --   -0.36006  -0.35941  -0.35678  -0.35568  -0.35420
 Alpha  occ. eigenvalues --   -0.35339  -0.35226  -0.34877  -0.34791  -0.34306
 Alpha  occ. eigenvalues --   -0.34261  -0.34113  -0.33796  -0.33746  -0.33657
 Alpha  occ. eigenvalues --   -0.33484  -0.33101  -0.32887  -0.32749  -0.32731
 Alpha  occ. eigenvalues --   -0.32618  -0.32423  -0.32163  -0.31994  -0.31933
 Alpha  occ. eigenvalues --   -0.31740  -0.31653  -0.31594  -0.31380  -0.31280
 Alpha  occ. eigenvalues --   -0.31149  -0.31019  -0.30799  -0.30605  -0.30471
 Alpha  occ. eigenvalues --   -0.30307  -0.30267  -0.30158  -0.30073  -0.29994
 Alpha  occ. eigenvalues --   -0.29865  -0.29452  -0.29422  -0.29324  -0.28751
 Alpha  occ. eigenvalues --   -0.28214  -0.28143  -0.28002  -0.27979  -0.27750
 Alpha  occ. eigenvalues --   -0.27481  -0.27279  -0.26967  -0.26760  -0.26302
 Alpha  occ. eigenvalues --   -0.25957  -0.25904  -0.25708  -0.25593  -0.24989
 Alpha  occ. eigenvalues --   -0.24779  -0.24678  -0.24102  -0.23399  -0.23108
 Alpha  occ. eigenvalues --   -0.22994  -0.22142  -0.21605  -0.21495  -0.20314
 Alpha  occ. eigenvalues --   -0.20296  -0.19857  -0.18760  -0.17651  -0.16800
 Alpha  occ. eigenvalues --   -0.15728
 Alpha virt. eigenvalues --   -0.11400  -0.06464  -0.05649  -0.04583  -0.03956
 Alpha virt. eigenvalues --   -0.02828  -0.01673  -0.01196  -0.01018   0.00107
 Alpha virt. eigenvalues --    0.01353   0.01564   0.02632   0.02848   0.02903

 Mulliken charges:
               1
     1  Mg   0.699533
     2  C   -0.018938
     3  C   -0.096340
     4  C   -0.039263
     5  C   -0.067697
     6  N   -0.191048
     7  C   -0.025950
     8  C    0.028021
     9  C    0.006320
    10  C    0.026468
    11  C    0.119696
    12  C    0.135079
    13  C    0.059350
    14  C    0.119078
    15  O   -0.190643
    16  O   -0.292390
    17  N   -0.294155
    18  C    0.154055
    19  C   -0.140164
    20  C    0.024361
    21  C    0.077273
    22  C    0.164932
    23  C   -0.056989
    24  O   -0.163633
    25  C    0.127351
    26  N   -0.182117
    27  C    0.053813
    28  C   -0.010754
    29  C    0.028244
    30  C    0.031155
    31  C    0.120284
    32  C    0.128962
    33  C    0.060342
    34  N   -0.303433
    35  C    0.080688
    36  C   -0.191828
    37  C    0.144945
    38  C    0.064699
    39  C    0.156606
    40  C   -0.106691
    41  O   -0.160820
    42  C    0.115339
    43  C    0.123714
    44  O   -0.139914
    45  O   -0.275088
    46  C    0.215540
    47  C    0.352996
    48  C   -0.121526
    49  C   -0.159204
    50  C    0.117564
    51  C    0.124197
    52  C    0.102012
    53  C    0.118561
    54  C   -0.091832
    55  C    0.100392
    56  C    0.110671
    57  C    0.027992
    58  C    0.132434
    59  C   -0.103357
    60  C    0.095098
    61  C    0.118420
    62  C    0.071351
    63  C    0.083673
    64  C   -0.067150
    65  C    0.102400
    66  C    0.098659
    67  H   -0.044210
    68  H   -0.029090
    69  H   -0.060231
    70  H   -0.042571
    71  H   -0.037205
    72  H   -0.006328
    73  H   -0.013534
    74  H   -0.009023
    75  H   -0.025580
    76  H    0.019573
    77  H    0.007295
    78  H   -0.013984
    79  H   -0.001559
    80  H   -0.024060
    81  H    0.000967
    82  H   -0.008597
    83  H   -0.012543
    84  H    0.011483
    85  H   -0.030510
    86  H   -0.030404
    87  H    0.001687
    88  H   -0.011789
    89  H   -0.000759
    90  H   -0.011502
    91  H   -0.030350
    92  H   -0.010924
    93  H   -0.009140
    94  H   -0.013895
    95  H    0.002175
    96  H    0.000577
    97  H   -0.008962
    98  H    0.002009
    99  H    0.024982
   100  H    0.013914
   101  H    0.013852
   102  H    0.014351
   103  H    0.013953
   104  H   -0.025489
   105  H   -0.006604
   106  H   -0.019322
   107  H    0.001754
   108  H   -0.024380
   109  H   -0.038794
   110  H   -0.025523
   111  H   -0.034040
   112  H   -0.038869
   113  H   -0.029379
   114  H   -0.029662
   115  H   -0.007548
   116  H   -0.012582
   117  H   -0.012399
   118  H   -0.045213
   119  H   -0.031960
   120  H   -0.027162
   121  H   -0.048268
   122  H   -0.043953
   123  H   -0.038513
   124  H   -0.043664
   125  H   -0.012167
   126  H   -0.011942
   127  H   -0.028519
   128  H   -0.025292
   129  H   -0.041602
   130  H   -0.037547
   131  H   -0.029281
   132  H   -0.026490
   133  H   -0.025132
   134  H   -0.021511
   135  H   -0.031690
   136  H   -0.041967
   137  H   -0.010743
   138  H   -0.028967
   139  H   -0.005902
   140  H   -0.011091
 Sum of Mulliken charges =  -0.00000

 Dipole moment (field-independent basis, Debye):
    X=             -3.2550    Y=              1.7365    Z=             -1.7495  Tot=              4.0831
 Quadrupole moment (field-independent basis, Debye-Ang):
   XX=           -391.9898   YY=           -423.0405   ZZ=           -387.4672
   XY=             -1.9741   XZ=             10.0706   YZ=             -6.2823

 Normal termination of Gaussian 16 at Thu Apr 28 07:57:59 2022.
