 Gaussian 16, Revision A.03,
 Gaussian 16:  ES64L-G16RevA.03 25-Dec-2016

 -----------------------------------
 #p cam-b3lyp/Def2SVP td=(nstates=5)
 -----------------------------------

 --------------------------------------------------------
 step_1501_chromophore_22 TDDFT with cam-b3lyp functional
 --------------------------------------------------------
 Symbolic Z-matrix:
 Charge =  0 Multiplicity = 1

                         Standard orientation:
 ---------------------------------------------------------------------
 Center     Atomic      Atomic             Coordinates (Angstroms)
 Number     Number       Type             X           Y           Z
 ---------------------------------------------------------------------
      1         12           0        6.115164    0.449142    0.085803
      2          6           0        3.696467   -1.936428   -0.398475
      3          6           0        4.281045    2.489072   -2.050553
      4          6           0        8.693441    2.728476    0.268665
      5          6           0        8.300532   -1.948439    1.533027
      6          7           0        4.318620    0.227379   -1.138545
      7          6           0        3.382710   -0.740080   -1.090267
      8          6           0        2.088239   -0.479435   -1.935459
      9          6           0        2.616893    0.680276   -2.805140
     10          6           0        3.853008    1.166025   -1.985808
     11          6           0        3.006265    0.218485   -4.240081
     12          6           0        0.830477   -0.183375   -1.206702
     13          6           0       -0.414217   -0.745009   -1.914532
     14          6           0       -1.542718   -1.406887   -0.957748
     15          8           0       -1.268168   -2.071326    0.048231
     16          8           0       -2.843330   -1.052029   -1.336352
     17          7           0        6.269221    2.426375   -0.621442
     18          6           0        5.390790    3.049984   -1.438062
     19          6           0        5.878010    4.395264   -1.559013
     20          6           0        7.194657    4.436321   -1.067553
     21          6           0        7.437969    3.142507   -0.415864
     22          6           0        5.178444    5.609512   -2.218693
     23          6           0        8.175411    5.609469   -0.997821
     24          8           0        9.286495    5.537143   -0.483703
     25          6           0        7.730825    6.967287   -1.527582
     26          7           0        8.158043    0.433101    0.896066
     27          6           0        8.987199    1.437354    0.840957
     28          6           0       10.308452    1.084435    1.575726
     29          6           0       10.109739   -0.312015    2.151232
     30          6           0        8.728025   -0.647187    1.561710
     31          6           0       11.638536    1.342489    0.735550
     32          6           0       10.152839   -0.574708    3.682560
     33          6           0       10.876855   -1.801076    4.110479
     34          7           0        6.048378   -1.494048    0.612389
     35          6           0        7.013016   -2.344494    1.107743
     36          6           0        6.529587   -3.690668    0.965244
     37          6           0        5.190783   -3.540708    0.591022
     38          6           0        4.929125   -2.212447    0.334450
     39          6           0        7.191629   -4.954108    1.259052
     40          6           0        3.983741   -4.232728    0.263817
     41          8           0        3.860583   -5.476401    0.337852
     42          6           0        2.948744   -3.197473   -0.206474
     43          6           0        1.909909   -3.117739    0.816825
     44          8           0        1.538842   -2.101311    1.331912
     45          8           0        1.442690   -4.411079    1.003506
     46          6           0        0.427443   -4.543018    2.093310
     47          6           0       -3.969037   -1.764919   -0.713992
     48          6           0       -5.200794   -1.310058   -1.460486
     49          6           0       -6.346005   -2.032655   -1.787806
     50          6           0       -6.689001   -3.476873   -1.382975
     51          6           0       -7.393767   -1.471537   -2.737130
     52          6           0       -8.618977   -0.745410   -2.130425
     53          6           0       -9.882003   -0.779851   -2.967956
     54          6           0      -11.231954   -1.265047   -2.269895
     55          6           0      -12.251149   -1.956000   -3.213028
     56          6           0      -11.994757   -0.104531   -1.503565
     57          6           0      -12.416681   -0.534068   -0.081985
     58          6           0      -13.925958   -0.459118    0.239716
     59          6           0      -14.282877    0.908234    0.858157
     60          6           0      -15.587997    1.367881    0.194512
     61          6           0      -14.350006    0.920861    2.391505
     62          6           0      -14.063070    2.369862    2.999843
     63          6           0      -12.693083    2.468607    3.701587
     64          6           0      -11.967268    3.812542    3.404441
     65          6           0      -10.506105    3.619019    3.844652
     66          6           0      -12.663910    4.939519    4.251295
     67          1           0        3.905201    3.047971   -2.909952
     68          1           0        9.466004    3.497521    0.340187
     69          1           0        8.807089   -2.792481    2.006248
     70          1           0        1.807724   -1.341553   -2.539422
     71          1           0        1.934544    1.526109   -2.889296
     72          1           0        3.205108   -0.849775   -4.329077
     73          1           0        3.903371    0.679391   -4.653344
     74          1           0        2.211290    0.456218   -4.946250
     75          1           0        0.667841    0.887307   -1.085955
     76          1           0        0.817407   -0.648297   -0.221083
     77          1           0       -0.214668   -1.372881   -2.783141
     78          1           0       -0.847690    0.166431   -2.326414
     79          1           0        5.094338    6.518631   -1.623487
     80          1           0        4.160786    5.367830   -2.526179
     81          1           0        5.718705    5.877973   -3.127406
     82          1           0        7.336485    6.986001   -2.542840
     83          1           0        8.616308    7.602812   -1.539426
     84          1           0        6.952278    7.382712   -0.888302
     85          1           0       10.512172    1.560233    2.534920
     86          1           0       10.790830   -0.951626    1.589666
     87          1           0       11.447819    1.973071   -0.133598
     88          1           0       11.952385    0.356586    0.393263
     89          1           0       12.335626    1.880523    1.378917
     90          1           0        9.211151   -0.569729    4.231455
     91          1           0       10.757372    0.225693    4.108324
     92          1           0       10.203588   -2.475454    4.639909
     93          1           0       11.715057   -1.583756    4.773614
     94          1           0       11.251707   -2.343483    3.242493
     95          1           0        7.914808   -5.317763    0.529392
     96          1           0        6.311112   -5.596485    1.275833
     97          1           0        7.626755   -5.022276    2.256202
     98          1           0        2.506437   -3.589841   -1.122635
     99          1           0        0.263921   -3.768063    2.843039
    100          1           0        0.722340   -5.460008    2.603639
    101          1           0       -0.518922   -4.691275    1.573221
    102          1           0       -4.066172   -1.419756    0.315449
    103          1           0       -3.957028   -2.836853   -0.914237
    104          1           0       -5.078336   -0.412609   -2.066895
    105          1           0       -7.651078   -3.600980   -0.884158
    106          1           0       -5.982018   -3.875161   -0.655584
    107          1           0       -6.752983   -4.156177   -2.232901
    108          1           0       -7.596374   -2.264340   -3.456101
    109          1           0       -6.847047   -0.698238   -3.276631
    110          1           0       -8.398088    0.298652   -1.907409
    111          1           0       -8.865581   -1.221239   -1.181057
    112          1           0       -9.768192   -1.461988   -3.811063
    113          1           0      -10.034617    0.254881   -3.274922
    114          1           0      -10.957320   -2.017438   -1.530229
    115          1           0      -12.349029   -1.434598   -4.165032
    116          1           0      -13.251769   -1.976251   -2.780823
    117          1           0      -11.877121   -2.976004   -3.306742
    118          1           0      -12.881612    0.072259   -2.111178
    119          1           0      -11.629780    0.898195   -1.281110
    120          1           0      -11.748347   -0.113396    0.669642
    121          1           0      -12.213870   -1.603331   -0.013550
    122          1           0      -14.105259   -1.230198    0.988732
    123          1           0      -14.528288   -0.647194   -0.649200
    124          1           0      -13.534590    1.638414    0.549423
    125          1           0      -16.392381    0.718716    0.541663
    126          1           0      -15.523237    1.373319   -0.893415
    127          1           0      -15.688574    2.399988    0.529812
    128          1           0      -13.616464    0.203840    2.760067
    129          1           0      -15.396927    0.696811    2.593145
    130          1           0      -14.934705    2.542159    3.631891
    131          1           0      -14.195356    3.124823    2.225085
    132          1           0      -12.037211    1.648992    3.404859
    133          1           0      -12.870477    2.393717    4.774818
    134          1           0      -11.932473    4.024646    2.336144
    135          1           0      -10.120354    2.605365    3.956946
    136          1           0      -10.440317    3.792008    4.918472
    137          1           0       -9.770158    4.271251    3.373744
    138          1           0      -12.931920    5.674928    3.492742
    139          1           0      -12.060140    5.474269    4.984760
    140          1           0      -13.656605    4.748571    4.659802
 ---------------------------------------------------------------------

 SCF Done:  E(RCAM-B3LYP) =  -3007.14375718     A.U. after   17 cycles

 Excitation energies and oscillator strengths:

 Excited State   1:      Singlet-A      1.7188 eV  721.36 nm  f=0.3693  <S**2>=0.000
     245 -> 248        0.17877
     246 -> 247        0.68586
     245 <- 248        0.10766
 This state for optimization and/or second-order correction.
 Total Energy, E(TD-HF/TD-DFT) =  -3007.08059425
 Copying the excited state density for this state as the 1-particle RhoCI density.

 Excited State   2:      Singlet-A      2.1984 eV  563.97 nm  f=0.1403  <S**2>=0.000
     245 -> 247        0.65196
     246 -> 248       -0.25791

 Excited State   3:      Singlet-A      3.2649 eV  379.75 nm  f=0.0028  <S**2>=0.000
     241 -> 247       -0.22517
     243 -> 247        0.20314
     243 -> 249        0.12789
     243 -> 250       -0.12758
     244 -> 247        0.58585
     244 -> 249        0.10871

 Excited State   4:      Singlet-A      3.3783 eV  367.01 nm  f=0.0118  <S**2>=0.000
     241 -> 247        0.51964
     243 -> 247        0.31299
     243 -> 249        0.17354
     243 -> 250       -0.14451
     246 -> 248        0.20644

 Excited State   5:      Singlet-A      3.4349 eV  360.95 nm  f=0.0048  <S**2>=0.000
     240 -> 247       -0.17834
     241 -> 247       -0.29999
     243 -> 247        0.44398
     243 -> 249        0.12944
     244 -> 247       -0.34949

 The electronic state is 1-A.
 Alpha  occ. eigenvalues --  -46.87986 -19.25276 -19.23572 -19.20557 -19.19351
 Alpha  occ. eigenvalues --  -19.19300 -19.17174 -14.42208 -14.41648 -14.39508
 Alpha  occ. eigenvalues --  -14.38259 -10.40501 -10.38166 -10.35537 -10.33398
 Alpha  occ. eigenvalues --  -10.32699 -10.31217 -10.31175 -10.30957 -10.30886
 Alpha  occ. eigenvalues --  -10.30189 -10.30144 -10.29861 -10.28712 -10.28287
 Alpha  occ. eigenvalues --  -10.28156 -10.28084 -10.28082 -10.27906 -10.27781
 Alpha  occ. eigenvalues --  -10.27600 -10.27299 -10.27274 -10.27100 -10.27014
 Alpha  occ. eigenvalues --  -10.26921 -10.26777 -10.26685 -10.26479 -10.26425
 Alpha  occ. eigenvalues --  -10.26357 -10.26343 -10.26301 -10.26083 -10.26045
 Alpha  occ. eigenvalues --  -10.25924 -10.25915 -10.25824 -10.25813 -10.25602
 Alpha  occ. eigenvalues --  -10.25418 -10.25030 -10.25026 -10.24859 -10.24846
 Alpha  occ. eigenvalues --  -10.24841 -10.24814 -10.24562 -10.24535 -10.24505
 Alpha  occ. eigenvalues --  -10.24334 -10.24264 -10.24240 -10.24116 -10.24050
 Alpha  occ. eigenvalues --  -10.23176  -3.16564  -1.91476  -1.91038  -1.90846
 Alpha  occ. eigenvalues --   -1.15156  -1.15053  -1.10192  -1.07691  -1.07486
 Alpha  occ. eigenvalues --   -1.06656  -1.04870  -1.04122  -1.03080  -1.02386
 Alpha  occ. eigenvalues --   -0.92791  -0.90404  -0.90092  -0.89634  -0.89398
 Alpha  occ. eigenvalues --   -0.88357  -0.87937  -0.87397  -0.86920  -0.86619
 Alpha  occ. eigenvalues --   -0.85947  -0.85282  -0.84439  -0.83761  -0.82910
 Alpha  occ. eigenvalues --   -0.82386  -0.81449  -0.81069  -0.80552  -0.79952
 Alpha  occ. eigenvalues --   -0.79854  -0.78026  -0.77723  -0.76798  -0.76233
 Alpha  occ. eigenvalues --   -0.75600  -0.75573  -0.74702  -0.74464  -0.73998
 Alpha  occ. eigenvalues --   -0.72878  -0.72154  -0.71118  -0.69975  -0.68566
 Alpha  occ. eigenvalues --   -0.68137  -0.67861  -0.67071  -0.66880  -0.65625
 Alpha  occ. eigenvalues --   -0.65182  -0.64964  -0.64482  -0.64214  -0.63650
 Alpha  occ. eigenvalues --   -0.63529  -0.63418  -0.62195  -0.61166  -0.60414
 Alpha  occ. eigenvalues --   -0.60139  -0.59322  -0.59178  -0.58722  -0.57956
 Alpha  occ. eigenvalues --   -0.57107  -0.56532  -0.56190  -0.55878  -0.55821
 Alpha  occ. eigenvalues --   -0.55193  -0.54744  -0.54304  -0.54066  -0.53799
 Alpha  occ. eigenvalues --   -0.53733  -0.53303  -0.52992  -0.52649  -0.52570
 Alpha  occ. eigenvalues --   -0.52441  -0.52177  -0.51856  -0.51750  -0.51711
 Alpha  occ. eigenvalues --   -0.51399  -0.51157  -0.50602  -0.50584  -0.50295
 Alpha  occ. eigenvalues --   -0.50256  -0.49836  -0.49571  -0.49476  -0.49244
 Alpha  occ. eigenvalues --   -0.49045  -0.49025  -0.48870  -0.48762  -0.48476
 Alpha  occ. eigenvalues --   -0.48279  -0.47949  -0.47840  -0.47735  -0.47636
 Alpha  occ. eigenvalues --   -0.47410  -0.47384  -0.47129  -0.46952  -0.46260
 Alpha  occ. eigenvalues --   -0.46012  -0.45959  -0.45604  -0.45538  -0.45422
 Alpha  occ. eigenvalues --   -0.45391  -0.44760  -0.44541  -0.44339  -0.44258
 Alpha  occ. eigenvalues --   -0.44216  -0.43964  -0.43770  -0.43640  -0.43521
 Alpha  occ. eigenvalues --   -0.43404  -0.43190  -0.43148  -0.42980  -0.42941
 Alpha  occ. eigenvalues --   -0.42722  -0.42380  -0.42275  -0.42256  -0.42117
 Alpha  occ. eigenvalues --   -0.41845  -0.41715  -0.41682  -0.41440  -0.41117
 Alpha  occ. eigenvalues --   -0.41045  -0.40872  -0.40502  -0.40487  -0.40040
 Alpha  occ. eigenvalues --   -0.39178  -0.39136  -0.38928  -0.38894  -0.38813
 Alpha  occ. eigenvalues --   -0.38335  -0.38286  -0.37731  -0.37521  -0.37219
 Alpha  occ. eigenvalues --   -0.36952  -0.36803  -0.36612  -0.36476  -0.36015
 Alpha  occ. eigenvalues --   -0.35387  -0.35343  -0.35148  -0.34125  -0.33914
 Alpha  occ. eigenvalues --   -0.33462  -0.33444  -0.32861  -0.31324  -0.30760
 Alpha  occ. eigenvalues --   -0.29991  -0.29791  -0.29258  -0.28656  -0.23576
 Alpha  occ. eigenvalues --   -0.21130
 Alpha virt. eigenvalues --   -0.08544  -0.01184   0.00896   0.02417   0.03687
 Alpha virt. eigenvalues --    0.03900   0.04807   0.05688   0.06341   0.06713
 Alpha virt. eigenvalues --    0.08262   0.08771   0.08779   0.09042   0.09270

 Mulliken charges:
               1
     1  Mg   0.833024
     2  C   -0.037677
     3  C   -0.102808
     4  C   -0.057579
     5  C   -0.064895
     6  N   -0.260068
     7  C    0.003084
     8  C   -0.017314
     9  C   -0.052384
    10  C    0.045673
    11  C    0.063197
    12  C    0.078660
    13  C   -0.003608
    14  C    0.198480
    15  O   -0.231370
    16  O   -0.359507
    17  N   -0.385837
    18  C    0.165315
    19  C   -0.143571
    20  C   -0.044547
    21  C    0.108269
    22  C    0.103991
    23  C    0.023227
    24  O   -0.203084
    25  C    0.043030
    26  N   -0.255312
    27  C    0.072611
    28  C   -0.061320
    29  C   -0.028384
    30  C    0.047363
    31  C    0.064233
    32  C    0.067249
    33  C   -0.001627
    34  N   -0.394570
    35  C    0.082082
    36  C   -0.182540
    37  C    0.063385
    38  C    0.102699
    39  C    0.097199
    40  C   -0.017450
    41  O   -0.202516
    42  C    0.028994
    43  C    0.217146
    44  O   -0.179593
    45  O   -0.338364
    46  C    0.177526
    47  C    0.319999
    48  C   -0.139641
    49  C   -0.181118
    50  C    0.058902
    51  C    0.062256
    52  C    0.049786
    53  C    0.064856
    54  C   -0.142562
    55  C    0.043250
    56  C    0.054770
    57  C   -0.024982
    58  C    0.076171
    59  C   -0.154146
    60  C    0.040603
    61  C    0.064006
    62  C    0.020142
    63  C    0.029389
    64  C   -0.126155
    65  C    0.039652
    66  C    0.035394
    67  H   -0.012180
    68  H    0.012341
    69  H   -0.025345
    70  H   -0.006772
    71  H   -0.000877
    72  H    0.019431
    73  H    0.013009
    74  H    0.015906
    75  H    0.004152
    76  H    0.055653
    77  H    0.036687
    78  H    0.020318
    79  H    0.026563
    80  H    0.007363
    81  H    0.028493
    82  H    0.020544
    83  H    0.024957
    84  H    0.039518
    85  H    0.005515
    86  H    0.004678
    87  H    0.025879
    88  H    0.012337
    89  H    0.023335
    90  H    0.019179
    91  H   -0.002074
    92  H    0.013004
    93  H    0.015363
    94  H    0.008676
    95  H    0.027180
    96  H    0.029909
    97  H    0.014323
    98  H    0.044520
    99  H    0.049191
   100  H    0.036295
   101  H    0.035631
   102  H    0.043167
   103  H    0.038751
   104  H    0.007907
   105  H    0.017411
   106  H    0.004711
   107  H    0.026163
   108  H    0.004131
   109  H   -0.008236
   110  H    0.003288
   111  H   -0.007646
   112  H   -0.009738
   113  H   -0.001120
   114  H   -0.000489
   115  H    0.016126
   116  H    0.009923
   117  H    0.011483
   118  H   -0.016722
   119  H   -0.003635
   120  H   -0.000652
   121  H   -0.018553
   122  H   -0.013222
   123  H   -0.009950
   124  H   -0.014869
   125  H    0.010429
   126  H    0.011554
   127  H   -0.004698
   128  H    0.002274
   129  H   -0.012053
   130  H   -0.008121
   131  H   -0.004049
   132  H   -0.000136
   133  H    0.003656
   134  H    0.008271
   135  H   -0.004863
   136  H   -0.016612
   137  H    0.014943
   138  H   -0.004500
   139  H    0.019065
   140  H    0.012825
 Sum of Mulliken charges =  -0.00000

 Dipole moment (field-independent basis, Debye):
    X=             -3.1157    Y=              3.1326    Z=             -2.2949  Tot=              4.9787
 Quadrupole moment (field-independent basis, Debye-Ang):
   XX=           -388.8511   YY=           -418.4009   ZZ=           -385.6451
   XY=              6.9899   XZ=              8.0115   YZ=             -8.4384

 Normal termination of Gaussian 16 at Thu Apr 28 07:04:00 2022.
