 Gaussian 16, Revision A.03,
 Gaussian 16:  ES64L-G16RevA.03 25-Dec-2016

 ---------------------------------
 #p PBE1PBE/Def2SVP td=(nstates=5)
 ---------------------------------

 ------------------------------------------------------
 step_1501_chromophore_22 TDDFT with PBE1PBE functional
 ------------------------------------------------------
 Symbolic Z-matrix:
 Charge =  0 Multiplicity = 1

                         Standard orientation:
 ---------------------------------------------------------------------
 Center     Atomic      Atomic             Coordinates (Angstroms)
 Number     Number       Type             X           Y           Z
 ---------------------------------------------------------------------
      1         12           0        6.115164    0.449142    0.085803
      2          6           0        3.696467   -1.936428   -0.398475
      3          6           0        4.281045    2.489072   -2.050553
      4          6           0        8.693441    2.728476    0.268665
      5          6           0        8.300532   -1.948439    1.533027
      6          7           0        4.318620    0.227379   -1.138545
      7          6           0        3.382710   -0.740080   -1.090267
      8          6           0        2.088239   -0.479435   -1.935459
      9          6           0        2.616893    0.680276   -2.805140
     10          6           0        3.853008    1.166025   -1.985808
     11          6           0        3.006265    0.218485   -4.240081
     12          6           0        0.830477   -0.183375   -1.206702
     13          6           0       -0.414217   -0.745009   -1.914532
     14          6           0       -1.542718   -1.406887   -0.957748
     15          8           0       -1.268168   -2.071326    0.048231
     16          8           0       -2.843330   -1.052029   -1.336352
     17          7           0        6.269221    2.426375   -0.621442
     18          6           0        5.390790    3.049984   -1.438062
     19          6           0        5.878010    4.395264   -1.559013
     20          6           0        7.194657    4.436321   -1.067553
     21          6           0        7.437969    3.142507   -0.415864
     22          6           0        5.178444    5.609512   -2.218693
     23          6           0        8.175411    5.609469   -0.997821
     24          8           0        9.286495    5.537143   -0.483703
     25          6           0        7.730825    6.967287   -1.527582
     26          7           0        8.158043    0.433101    0.896066
     27          6           0        8.987199    1.437354    0.840957
     28          6           0       10.308452    1.084435    1.575726
     29          6           0       10.109739   -0.312015    2.151232
     30          6           0        8.728025   -0.647187    1.561710
     31          6           0       11.638536    1.342489    0.735550
     32          6           0       10.152839   -0.574708    3.682560
     33          6           0       10.876855   -1.801076    4.110479
     34          7           0        6.048378   -1.494048    0.612389
     35          6           0        7.013016   -2.344494    1.107743
     36          6           0        6.529587   -3.690668    0.965244
     37          6           0        5.190783   -3.540708    0.591022
     38          6           0        4.929125   -2.212447    0.334450
     39          6           0        7.191629   -4.954108    1.259052
     40          6           0        3.983741   -4.232728    0.263817
     41          8           0        3.860583   -5.476401    0.337852
     42          6           0        2.948744   -3.197473   -0.206474
     43          6           0        1.909909   -3.117739    0.816825
     44          8           0        1.538842   -2.101311    1.331912
     45          8           0        1.442690   -4.411079    1.003506
     46          6           0        0.427443   -4.543018    2.093310
     47          6           0       -3.969037   -1.764919   -0.713992
     48          6           0       -5.200794   -1.310058   -1.460486
     49          6           0       -6.346005   -2.032655   -1.787806
     50          6           0       -6.689001   -3.476873   -1.382975
     51          6           0       -7.393767   -1.471537   -2.737130
     52          6           0       -8.618977   -0.745410   -2.130425
     53          6           0       -9.882003   -0.779851   -2.967956
     54          6           0      -11.231954   -1.265047   -2.269895
     55          6           0      -12.251149   -1.956000   -3.213028
     56          6           0      -11.994757   -0.104531   -1.503565
     57          6           0      -12.416681   -0.534068   -0.081985
     58          6           0      -13.925958   -0.459118    0.239716
     59          6           0      -14.282877    0.908234    0.858157
     60          6           0      -15.587997    1.367881    0.194512
     61          6           0      -14.350006    0.920861    2.391505
     62          6           0      -14.063070    2.369862    2.999843
     63          6           0      -12.693083    2.468607    3.701587
     64          6           0      -11.967268    3.812542    3.404441
     65          6           0      -10.506105    3.619019    3.844652
     66          6           0      -12.663910    4.939519    4.251295
     67          1           0        3.905201    3.047971   -2.909952
     68          1           0        9.466004    3.497521    0.340187
     69          1           0        8.807089   -2.792481    2.006248
     70          1           0        1.807724   -1.341553   -2.539422
     71          1           0        1.934544    1.526109   -2.889296
     72          1           0        3.205108   -0.849775   -4.329077
     73          1           0        3.903371    0.679391   -4.653344
     74          1           0        2.211290    0.456218   -4.946250
     75          1           0        0.667841    0.887307   -1.085955
     76          1           0        0.817407   -0.648297   -0.221083
     77          1           0       -0.214668   -1.372881   -2.783141
     78          1           0       -0.847690    0.166431   -2.326414
     79          1           0        5.094338    6.518631   -1.623487
     80          1           0        4.160786    5.367830   -2.526179
     81          1           0        5.718705    5.877973   -3.127406
     82          1           0        7.336485    6.986001   -2.542840
     83          1           0        8.616308    7.602812   -1.539426
     84          1           0        6.952278    7.382712   -0.888302
     85          1           0       10.512172    1.560233    2.534920
     86          1           0       10.790830   -0.951626    1.589666
     87          1           0       11.447819    1.973071   -0.133598
     88          1           0       11.952385    0.356586    0.393263
     89          1           0       12.335626    1.880523    1.378917
     90          1           0        9.211151   -0.569729    4.231455
     91          1           0       10.757372    0.225693    4.108324
     92          1           0       10.203588   -2.475454    4.639909
     93          1           0       11.715057   -1.583756    4.773614
     94          1           0       11.251707   -2.343483    3.242493
     95          1           0        7.914808   -5.317763    0.529392
     96          1           0        6.311112   -5.596485    1.275833
     97          1           0        7.626755   -5.022276    2.256202
     98          1           0        2.506437   -3.589841   -1.122635
     99          1           0        0.263921   -3.768063    2.843039
    100          1           0        0.722340   -5.460008    2.603639
    101          1           0       -0.518922   -4.691275    1.573221
    102          1           0       -4.066172   -1.419756    0.315449
    103          1           0       -3.957028   -2.836853   -0.914237
    104          1           0       -5.078336   -0.412609   -2.066895
    105          1           0       -7.651078   -3.600980   -0.884158
    106          1           0       -5.982018   -3.875161   -0.655584
    107          1           0       -6.752983   -4.156177   -2.232901
    108          1           0       -7.596374   -2.264340   -3.456101
    109          1           0       -6.847047   -0.698238   -3.276631
    110          1           0       -8.398088    0.298652   -1.907409
    111          1           0       -8.865581   -1.221239   -1.181057
    112          1           0       -9.768192   -1.461988   -3.811063
    113          1           0      -10.034617    0.254881   -3.274922
    114          1           0      -10.957320   -2.017438   -1.530229
    115          1           0      -12.349029   -1.434598   -4.165032
    116          1           0      -13.251769   -1.976251   -2.780823
    117          1           0      -11.877121   -2.976004   -3.306742
    118          1           0      -12.881612    0.072259   -2.111178
    119          1           0      -11.629780    0.898195   -1.281110
    120          1           0      -11.748347   -0.113396    0.669642
    121          1           0      -12.213870   -1.603331   -0.013550
    122          1           0      -14.105259   -1.230198    0.988732
    123          1           0      -14.528288   -0.647194   -0.649200
    124          1           0      -13.534590    1.638414    0.549423
    125          1           0      -16.392381    0.718716    0.541663
    126          1           0      -15.523237    1.373319   -0.893415
    127          1           0      -15.688574    2.399988    0.529812
    128          1           0      -13.616464    0.203840    2.760067
    129          1           0      -15.396927    0.696811    2.593145
    130          1           0      -14.934705    2.542159    3.631891
    131          1           0      -14.195356    3.124823    2.225085
    132          1           0      -12.037211    1.648992    3.404859
    133          1           0      -12.870477    2.393717    4.774818
    134          1           0      -11.932473    4.024646    2.336144
    135          1           0      -10.120354    2.605365    3.956946
    136          1           0      -10.440317    3.792008    4.918472
    137          1           0       -9.770158    4.271251    3.373744
    138          1           0      -12.931920    5.674928    3.492742
    139          1           0      -12.060140    5.474269    4.984760
    140          1           0      -13.656605    4.748571    4.659802
 ---------------------------------------------------------------------

 SCF Done:  E(RPBE1PBE) =  -3005.33222226     A.U. after   15 cycles

 Excitation energies and oscillator strengths:

 Excited State   1:      Singlet-A      1.8580 eV  667.29 nm  f=0.3584  <S**2>=0.000
     245 -> 248        0.17472
     246 -> 247        0.69154
     246 <- 247       -0.10367
 This state for optimization and/or second-order correction.
 Total Energy, E(TD-HF/TD-DFT) =  -3005.26394060
 Copying the excited state density for this state as the 1-particle RhoCI density.

 Excited State   2:      Singlet-A      2.2046 eV  562.40 nm  f=0.1282  <S**2>=0.000
     245 -> 247        0.65911
     246 -> 248       -0.23626

 Excited State   3:      Singlet-A      2.7563 eV  449.82 nm  f=0.0032  <S**2>=0.000
     244 -> 247        0.67613
     244 -> 249       -0.13312

 Excited State   4:      Singlet-A      2.9760 eV  416.62 nm  f=0.0042  <S**2>=0.000
     241 -> 247       -0.16089
     243 -> 247        0.67242

 Excited State   5:      Singlet-A      3.0989 eV  400.10 nm  f=0.0086  <S**2>=0.000
     240 -> 247        0.19389
     241 -> 247        0.64620
     243 -> 247        0.14694

 The electronic state is 1-A.
 Alpha  occ. eigenvalues --  -46.91392 -19.26032 -19.24334 -19.20864 -19.19642
 Alpha  occ. eigenvalues --  -19.19267 -19.17709 -14.41698 -14.41134 -14.39064
 Alpha  occ. eigenvalues --  -14.38097 -10.37629 -10.35209 -10.32426 -10.30800
 Alpha  occ. eigenvalues --  -10.30113 -10.28810 -10.28681 -10.28651 -10.28468
 Alpha  occ. eigenvalues --  -10.27813 -10.27499 -10.27443 -10.26213 -10.26036
 Alpha  occ. eigenvalues --  -10.26034 -10.25793 -10.25781 -10.25737 -10.25635
 Alpha  occ. eigenvalues --  -10.25514 -10.25005 -10.24798 -10.24735 -10.24680
 Alpha  occ. eigenvalues --  -10.24485 -10.24310 -10.24197 -10.24163 -10.24086
 Alpha  occ. eigenvalues --  -10.24071 -10.23983 -10.23810 -10.23767 -10.23753
 Alpha  occ. eigenvalues --  -10.23607 -10.23394 -10.23275 -10.23255 -10.23025
 Alpha  occ. eigenvalues --  -10.22941 -10.22586 -10.22435 -10.22405 -10.22398
 Alpha  occ. eigenvalues --  -10.22383 -10.22338 -10.22232 -10.22114 -10.22001
 Alpha  occ. eigenvalues --  -10.21913 -10.21819 -10.21801 -10.21508 -10.21454
 Alpha  occ. eigenvalues --  -10.21192  -3.13549  -1.86402  -1.85942  -1.85754
 Alpha  occ. eigenvalues --   -1.09995  -1.09868  -1.04675  -1.02598  -1.02393
 Alpha  occ. eigenvalues --   -1.01623  -0.99479  -0.98747  -0.97645  -0.97227
 Alpha  occ. eigenvalues --   -0.87325  -0.84665  -0.84207  -0.83739  -0.83732
 Alpha  occ. eigenvalues --   -0.82455  -0.82195  -0.81512  -0.81213  -0.80719
 Alpha  occ. eigenvalues --   -0.80480  -0.79502  -0.78625  -0.78074  -0.77179
 Alpha  occ. eigenvalues --   -0.76627  -0.75716  -0.75226  -0.74702  -0.74251
 Alpha  occ. eigenvalues --   -0.74046  -0.72176  -0.72037  -0.71094  -0.70399
 Alpha  occ. eigenvalues --   -0.69939  -0.69678  -0.69070  -0.68590  -0.68172
 Alpha  occ. eigenvalues --   -0.67288  -0.66637  -0.65527  -0.64335  -0.62940
 Alpha  occ. eigenvalues --   -0.62538  -0.62191  -0.61430  -0.61149  -0.60031
 Alpha  occ. eigenvalues --   -0.59462  -0.59368  -0.59047  -0.58798  -0.57982
 Alpha  occ. eigenvalues --   -0.57799  -0.57665  -0.56331  -0.55780  -0.54912
 Alpha  occ. eigenvalues --   -0.54563  -0.53913  -0.53694  -0.53387  -0.52445
 Alpha  occ. eigenvalues --   -0.51822  -0.50900  -0.50695  -0.50515  -0.50284
 Alpha  occ. eigenvalues --   -0.49792  -0.49230  -0.48654  -0.48642  -0.48366
 Alpha  occ. eigenvalues --   -0.48236  -0.47914  -0.47548  -0.47288  -0.47139
 Alpha  occ. eigenvalues --   -0.46699  -0.46557  -0.46445  -0.46333  -0.46226
 Alpha  occ. eigenvalues --   -0.45895  -0.45680  -0.45246  -0.45157  -0.44936
 Alpha  occ. eigenvalues --   -0.44754  -0.44504  -0.44152  -0.44047  -0.43812
 Alpha  occ. eigenvalues --   -0.43605  -0.43411  -0.43340  -0.43275  -0.43079
 Alpha  occ. eigenvalues --   -0.42910  -0.42584  -0.42456  -0.42442  -0.42271
 Alpha  occ. eigenvalues --   -0.42105  -0.42076  -0.41773  -0.41536  -0.40900
 Alpha  occ. eigenvalues --   -0.40731  -0.40665  -0.40376  -0.40353  -0.40151
 Alpha  occ. eigenvalues --   -0.40003  -0.39579  -0.39338  -0.39161  -0.38954
 Alpha  occ. eigenvalues --   -0.38890  -0.38774  -0.38587  -0.38396  -0.38288
 Alpha  occ. eigenvalues --   -0.38107  -0.38061  -0.37880  -0.37673  -0.37642
 Alpha  occ. eigenvalues --   -0.37577  -0.37201  -0.37126  -0.36885  -0.36865
 Alpha  occ. eigenvalues --   -0.36712  -0.36622  -0.36489  -0.36255  -0.35946
 Alpha  occ. eigenvalues --   -0.35871  -0.35720  -0.35456  -0.35231  -0.34937
 Alpha  occ. eigenvalues --   -0.34124  -0.33965  -0.33805  -0.33700  -0.33644
 Alpha  occ. eigenvalues --   -0.33261  -0.33124  -0.32540  -0.32361  -0.32201
 Alpha  occ. eigenvalues --   -0.31858  -0.31767  -0.31499  -0.31422  -0.31092
 Alpha  occ. eigenvalues --   -0.30387  -0.30222  -0.30048  -0.29176  -0.28931
 Alpha  occ. eigenvalues --   -0.28574  -0.28418  -0.28309  -0.26402  -0.25855
 Alpha  occ. eigenvalues --   -0.25382  -0.25137  -0.24725  -0.24206  -0.20520
 Alpha  occ. eigenvalues --   -0.18703
 Alpha virt. eigenvalues --   -0.11003  -0.04739  -0.03323  -0.01996  -0.00736
 Alpha virt. eigenvalues --    0.00235   0.00934   0.01508   0.02126   0.02800
 Alpha virt. eigenvalues --    0.04301   0.04570   0.05605   0.05702   0.05859

 Mulliken charges:
               1
     1  Mg   0.982640
     2  C   -0.052120
     3  C   -0.081340
     4  C   -0.041665
     5  C   -0.047211
     6  N   -0.364806
     7  C    0.061483
     8  C   -0.080081
     9  C   -0.135781
    10  C    0.081888
    11  C    0.011040
    12  C    0.029262
    13  C   -0.076092
    14  C    0.259535
    15  O   -0.261259
    16  O   -0.390622
    17  N   -0.502266
    18  C    0.179669
    19  C   -0.169379
    20  C   -0.100299
    21  C    0.143838
    22  C    0.042670
    23  C    0.071598
    24  O   -0.242583
    25  C   -0.032762
    26  N   -0.362486
    27  C    0.100419
    28  C   -0.129333
    29  C   -0.104253
    30  C    0.082370
    31  C    0.004739
    32  C    0.003906
    33  C   -0.070842
    34  N   -0.524202
    35  C    0.106121
    36  C   -0.190448
    37  C    0.006640
    38  C    0.173431
    39  C    0.040481
    40  C    0.068341
    41  O   -0.244055
    42  C   -0.089537
    43  C    0.317374
    44  O   -0.217225
    45  O   -0.370233
    46  C    0.122155
    47  C    0.277777
    48  C   -0.151827
    49  C   -0.220405
    50  C   -0.000737
    51  C   -0.005831
    52  C   -0.012072
    53  C    0.010761
    54  C   -0.226789
    55  C   -0.021661
    56  C    0.005587
    57  C   -0.089667
    58  C    0.018466
    59  C   -0.235612
    60  C   -0.023802
    61  C    0.006763
    62  C   -0.036598
    63  C   -0.028148
    64  C   -0.224390
    65  C   -0.016781
    66  C   -0.021222
    67  H    0.018001
    68  H    0.043332
    69  H    0.007669
    70  H    0.031520
    71  H    0.034428
    72  H    0.045314
    73  H    0.040949
    74  H    0.043491
    75  H    0.037462
    76  H    0.094305
    77  H    0.065835
    78  H    0.053315
    79  H    0.053135
    80  H    0.034243
    81  H    0.056143
    82  H    0.046671
    83  H    0.051976
    84  H    0.066483
    85  H    0.043750
    86  H    0.042759
    87  H    0.053769
    88  H    0.039188
    89  H    0.049842
    90  H    0.050605
    91  H    0.032515
    92  H    0.040311
    93  H    0.043382
    94  H    0.035316
    95  H    0.056635
    96  H    0.059776
    97  H    0.043026
    98  H    0.081305
    99  H    0.070021
   100  H    0.058102
   101  H    0.058313
   102  H    0.070398
   103  H    0.065148
   104  H    0.037339
   105  H    0.044694
   106  H    0.031893
   107  H    0.053207
   108  H    0.035160
   109  H    0.025654
   110  H    0.035180
   111  H    0.026568
   112  H    0.022909
   113  H    0.032140
   114  H    0.036096
   115  H    0.043808
   116  H    0.038932
   117  H    0.039758
   118  H    0.017268
   119  H    0.027111
   120  H    0.031835
   121  H    0.015274
   122  H    0.019861
   123  H    0.021895
   124  H    0.025834
   125  H    0.038008
   126  H    0.039984
   127  H    0.024944
   128  H    0.034078
   129  H    0.021460
   130  H    0.024008
   131  H    0.027055
   132  H    0.031757
   133  H    0.036882
   134  H    0.044298
   135  H    0.021887
   136  H    0.011338
   137  H    0.042747
   138  H    0.023665
   139  H    0.045262
   140  H    0.039247
 Sum of Mulliken charges =  -0.00000

 Dipole moment (field-independent basis, Debye):
    X=             -3.1704    Y=              2.4383    Z=             -2.0643  Tot=              4.5009
 Quadrupole moment (field-independent basis, Debye-Ang):
   XX=           -384.0249   YY=           -416.0171   ZZ=           -382.6196
   XY=              2.0867   XZ=             10.6765   YZ=             -8.5693

 Normal termination of Gaussian 16 at Thu Apr 28 07:21:47 2022.
