 Gaussian 16, Revision A.03,
 Gaussian 16:  ES64L-G16RevA.03 25-Dec-2016

 --------------------------------
 #p wB97XD/Def2SVP td=(nstates=5)
 --------------------------------

 -----------------------------------------------------
 step_1501_chromophore_22 TDDFT with wB97XD functional
 -----------------------------------------------------
 Symbolic Z-matrix:
 Charge =  0 Multiplicity = 1

                         Standard orientation:
 ---------------------------------------------------------------------
 Center     Atomic      Atomic             Coordinates (Angstroms)
 Number     Number       Type             X           Y           Z
 ---------------------------------------------------------------------
      1         12           0        6.115164    0.449142    0.085803
      2          6           0        3.696467   -1.936428   -0.398475
      3          6           0        4.281045    2.489072   -2.050553
      4          6           0        8.693441    2.728476    0.268665
      5          6           0        8.300532   -1.948439    1.533027
      6          7           0        4.318620    0.227379   -1.138545
      7          6           0        3.382710   -0.740080   -1.090267
      8          6           0        2.088239   -0.479435   -1.935459
      9          6           0        2.616893    0.680276   -2.805140
     10          6           0        3.853008    1.166025   -1.985808
     11          6           0        3.006265    0.218485   -4.240081
     12          6           0        0.830477   -0.183375   -1.206702
     13          6           0       -0.414217   -0.745009   -1.914532
     14          6           0       -1.542718   -1.406887   -0.957748
     15          8           0       -1.268168   -2.071326    0.048231
     16          8           0       -2.843330   -1.052029   -1.336352
     17          7           0        6.269221    2.426375   -0.621442
     18          6           0        5.390790    3.049984   -1.438062
     19          6           0        5.878010    4.395264   -1.559013
     20          6           0        7.194657    4.436321   -1.067553
     21          6           0        7.437969    3.142507   -0.415864
     22          6           0        5.178444    5.609512   -2.218693
     23          6           0        8.175411    5.609469   -0.997821
     24          8           0        9.286495    5.537143   -0.483703
     25          6           0        7.730825    6.967287   -1.527582
     26          7           0        8.158043    0.433101    0.896066
     27          6           0        8.987199    1.437354    0.840957
     28          6           0       10.308452    1.084435    1.575726
     29          6           0       10.109739   -0.312015    2.151232
     30          6           0        8.728025   -0.647187    1.561710
     31          6           0       11.638536    1.342489    0.735550
     32          6           0       10.152839   -0.574708    3.682560
     33          6           0       10.876855   -1.801076    4.110479
     34          7           0        6.048378   -1.494048    0.612389
     35          6           0        7.013016   -2.344494    1.107743
     36          6           0        6.529587   -3.690668    0.965244
     37          6           0        5.190783   -3.540708    0.591022
     38          6           0        4.929125   -2.212447    0.334450
     39          6           0        7.191629   -4.954108    1.259052
     40          6           0        3.983741   -4.232728    0.263817
     41          8           0        3.860583   -5.476401    0.337852
     42          6           0        2.948744   -3.197473   -0.206474
     43          6           0        1.909909   -3.117739    0.816825
     44          8           0        1.538842   -2.101311    1.331912
     45          8           0        1.442690   -4.411079    1.003506
     46          6           0        0.427443   -4.543018    2.093310
     47          6           0       -3.969037   -1.764919   -0.713992
     48          6           0       -5.200794   -1.310058   -1.460486
     49          6           0       -6.346005   -2.032655   -1.787806
     50          6           0       -6.689001   -3.476873   -1.382975
     51          6           0       -7.393767   -1.471537   -2.737130
     52          6           0       -8.618977   -0.745410   -2.130425
     53          6           0       -9.882003   -0.779851   -2.967956
     54          6           0      -11.231954   -1.265047   -2.269895
     55          6           0      -12.251149   -1.956000   -3.213028
     56          6           0      -11.994757   -0.104531   -1.503565
     57          6           0      -12.416681   -0.534068   -0.081985
     58          6           0      -13.925958   -0.459118    0.239716
     59          6           0      -14.282877    0.908234    0.858157
     60          6           0      -15.587997    1.367881    0.194512
     61          6           0      -14.350006    0.920861    2.391505
     62          6           0      -14.063070    2.369862    2.999843
     63          6           0      -12.693083    2.468607    3.701587
     64          6           0      -11.967268    3.812542    3.404441
     65          6           0      -10.506105    3.619019    3.844652
     66          6           0      -12.663910    4.939519    4.251295
     67          1           0        3.905201    3.047971   -2.909952
     68          1           0        9.466004    3.497521    0.340187
     69          1           0        8.807089   -2.792481    2.006248
     70          1           0        1.807724   -1.341553   -2.539422
     71          1           0        1.934544    1.526109   -2.889296
     72          1           0        3.205108   -0.849775   -4.329077
     73          1           0        3.903371    0.679391   -4.653344
     74          1           0        2.211290    0.456218   -4.946250
     75          1           0        0.667841    0.887307   -1.085955
     76          1           0        0.817407   -0.648297   -0.221083
     77          1           0       -0.214668   -1.372881   -2.783141
     78          1           0       -0.847690    0.166431   -2.326414
     79          1           0        5.094338    6.518631   -1.623487
     80          1           0        4.160786    5.367830   -2.526179
     81          1           0        5.718705    5.877973   -3.127406
     82          1           0        7.336485    6.986001   -2.542840
     83          1           0        8.616308    7.602812   -1.539426
     84          1           0        6.952278    7.382712   -0.888302
     85          1           0       10.512172    1.560233    2.534920
     86          1           0       10.790830   -0.951626    1.589666
     87          1           0       11.447819    1.973071   -0.133598
     88          1           0       11.952385    0.356586    0.393263
     89          1           0       12.335626    1.880523    1.378917
     90          1           0        9.211151   -0.569729    4.231455
     91          1           0       10.757372    0.225693    4.108324
     92          1           0       10.203588   -2.475454    4.639909
     93          1           0       11.715057   -1.583756    4.773614
     94          1           0       11.251707   -2.343483    3.242493
     95          1           0        7.914808   -5.317763    0.529392
     96          1           0        6.311112   -5.596485    1.275833
     97          1           0        7.626755   -5.022276    2.256202
     98          1           0        2.506437   -3.589841   -1.122635
     99          1           0        0.263921   -3.768063    2.843039
    100          1           0        0.722340   -5.460008    2.603639
    101          1           0       -0.518922   -4.691275    1.573221
    102          1           0       -4.066172   -1.419756    0.315449
    103          1           0       -3.957028   -2.836853   -0.914237
    104          1           0       -5.078336   -0.412609   -2.066895
    105          1           0       -7.651078   -3.600980   -0.884158
    106          1           0       -5.982018   -3.875161   -0.655584
    107          1           0       -6.752983   -4.156177   -2.232901
    108          1           0       -7.596374   -2.264340   -3.456101
    109          1           0       -6.847047   -0.698238   -3.276631
    110          1           0       -8.398088    0.298652   -1.907409
    111          1           0       -8.865581   -1.221239   -1.181057
    112          1           0       -9.768192   -1.461988   -3.811063
    113          1           0      -10.034617    0.254881   -3.274922
    114          1           0      -10.957320   -2.017438   -1.530229
    115          1           0      -12.349029   -1.434598   -4.165032
    116          1           0      -13.251769   -1.976251   -2.780823
    117          1           0      -11.877121   -2.976004   -3.306742
    118          1           0      -12.881612    0.072259   -2.111178
    119          1           0      -11.629780    0.898195   -1.281110
    120          1           0      -11.748347   -0.113396    0.669642
    121          1           0      -12.213870   -1.603331   -0.013550
    122          1           0      -14.105259   -1.230198    0.988732
    123          1           0      -14.528288   -0.647194   -0.649200
    124          1           0      -13.534590    1.638414    0.549423
    125          1           0      -16.392381    0.718716    0.541663
    126          1           0      -15.523237    1.373319   -0.893415
    127          1           0      -15.688574    2.399988    0.529812
    128          1           0      -13.616464    0.203840    2.760067
    129          1           0      -15.396927    0.696811    2.593145
    130          1           0      -14.934705    2.542159    3.631891
    131          1           0      -14.195356    3.124823    2.225085
    132          1           0      -12.037211    1.648992    3.404859
    133          1           0      -12.870477    2.393717    4.774818
    134          1           0      -11.932473    4.024646    2.336144
    135          1           0      -10.120354    2.605365    3.956946
    136          1           0      -10.440317    3.792008    4.918472
    137          1           0       -9.770158    4.271251    3.373744
    138          1           0      -12.931920    5.674928    3.492742
    139          1           0      -12.060140    5.474269    4.984760
    140          1           0      -13.656605    4.748571    4.659802
 ---------------------------------------------------------------------

 SCF Done:  E(RwB97XD) =  -3007.83686661     A.U. after   19 cycles

 Excitation energies and oscillator strengths:

 Excited State   1:      Singlet-A      1.6746 eV  740.38 nm  f=0.3686  <S**2>=0.000
     245 -> 248        0.18276
     246 -> 247        0.68405
     245 <- 248        0.11590
 This state for optimization and/or second-order correction.
 Total Energy, E(TD-HF/TD-DFT) =  -3007.77532646
 Copying the excited state density for this state as the 1-particle RhoCI density.

 Excited State   2:      Singlet-A      2.1469 eV  577.50 nm  f=0.1369  <S**2>=0.000
     245 -> 247        0.64946
     246 -> 248       -0.26063

 Excited State   3:      Singlet-A      3.3018 eV  375.51 nm  f=0.0042  <S**2>=0.000
     241 -> 247       -0.37131
     243 -> 250       -0.11132
     244 -> 247        0.54268
     244 -> 249        0.12349

 Excited State   4:      Singlet-A      3.3985 eV  364.82 nm  f=0.0123  <S**2>=0.000
     240 -> 247        0.10260
     241 -> 247        0.47803
     243 -> 247        0.23643
     243 -> 249        0.16094
     243 -> 250       -0.15037
     244 -> 247        0.22671
     244 -> 249        0.12576
     244 -> 250       -0.10380
     246 -> 248        0.23075

 Excited State   5:      Singlet-A      3.4795 eV  356.33 nm  f=0.0036  <S**2>=0.000
     240 -> 247       -0.14838
     241 -> 247       -0.17931
     243 -> 247        0.51717
     243 -> 249        0.17756
     243 -> 250       -0.12459
     244 -> 247       -0.29777
     244 -> 250       -0.10164

 The electronic state is 1-A.
 Alpha  occ. eigenvalues --  -46.94322 -19.30535 -19.28762 -19.25468 -19.24380
 Alpha  occ. eigenvalues --  -19.24226 -19.22170 -14.46803 -14.46237 -14.44144
 Alpha  occ. eigenvalues --  -14.42810 -10.44336 -10.41936 -10.39567 -10.37356
 Alpha  occ. eigenvalues --  -10.36579 -10.35396 -10.35241 -10.35035 -10.34884
 Alpha  occ. eigenvalues --  -10.34304 -10.33844 -10.33830 -10.32953 -10.32354
 Alpha  occ. eigenvalues --  -10.32117 -10.32078 -10.32001 -10.31960 -10.31724
 Alpha  occ. eigenvalues --  -10.31697 -10.31287 -10.31261 -10.31249 -10.31096
 Alpha  occ. eigenvalues --  -10.31058 -10.30806 -10.30747 -10.30430 -10.30430
 Alpha  occ. eigenvalues --  -10.30257 -10.30227 -10.30183 -10.30056 -10.30051
 Alpha  occ. eigenvalues --  -10.29849 -10.29821 -10.29764 -10.29688 -10.29556
 Alpha  occ. eigenvalues --  -10.29326 -10.28955 -10.28863 -10.28771 -10.28767
 Alpha  occ. eigenvalues --  -10.28743 -10.28648 -10.28510 -10.28460 -10.28327
 Alpha  occ. eigenvalues --  -10.28171 -10.28161 -10.28154 -10.27949 -10.27867
 Alpha  occ. eigenvalues --  -10.27114  -3.20330  -1.93935  -1.93472  -1.93282
 Alpha  occ. eigenvalues --   -1.17324  -1.17160  -1.12457  -1.09837  -1.09677
 Alpha  occ. eigenvalues --   -1.08818  -1.06883  -1.06128  -1.05183  -1.04387
 Alpha  occ. eigenvalues --   -0.94739  -0.92256  -0.91873  -0.91401  -0.91246
 Alpha  occ. eigenvalues --   -0.90123  -0.89916  -0.89174  -0.88882  -0.88567
 Alpha  occ. eigenvalues --   -0.87837  -0.87153  -0.86288  -0.85612  -0.84818
 Alpha  occ. eigenvalues --   -0.84259  -0.83365  -0.82957  -0.82488  -0.81868
 Alpha  occ. eigenvalues --   -0.81707  -0.80009  -0.79612  -0.78717  -0.78068
 Alpha  occ. eigenvalues --   -0.77501  -0.77371  -0.76630  -0.76276  -0.75831
 Alpha  occ. eigenvalues --   -0.74817  -0.74123  -0.73081  -0.71923  -0.70450
 Alpha  occ. eigenvalues --   -0.70071  -0.69771  -0.69054  -0.68803  -0.67583
 Alpha  occ. eigenvalues --   -0.67016  -0.66895  -0.66462  -0.66209  -0.65464
 Alpha  occ. eigenvalues --   -0.65422  -0.65316  -0.64001  -0.63133  -0.62355
 Alpha  occ. eigenvalues --   -0.62158  -0.61297  -0.61139  -0.60702  -0.59851
 Alpha  occ. eigenvalues --   -0.59081  -0.58366  -0.58128  -0.57848  -0.57799
 Alpha  occ. eigenvalues --   -0.57105  -0.56647  -0.56135  -0.55980  -0.55742
 Alpha  occ. eigenvalues --   -0.55638  -0.55239  -0.54881  -0.54598  -0.54486
 Alpha  occ. eigenvalues --   -0.54410  -0.54062  -0.53740  -0.53617  -0.53585
 Alpha  occ. eigenvalues --   -0.53311  -0.53069  -0.52521  -0.52493  -0.52192
 Alpha  occ. eigenvalues --   -0.52115  -0.51770  -0.51506  -0.51360  -0.51151
 Alpha  occ. eigenvalues --   -0.51023  -0.50924  -0.50840  -0.50623  -0.50390
 Alpha  occ. eigenvalues --   -0.50170  -0.49848  -0.49719  -0.49673  -0.49573
 Alpha  occ. eigenvalues --   -0.49332  -0.49284  -0.49013  -0.48912  -0.48172
 Alpha  occ. eigenvalues --   -0.47886  -0.47883  -0.47523  -0.47446  -0.47351
 Alpha  occ. eigenvalues --   -0.47222  -0.46699  -0.46454  -0.46215  -0.46137
 Alpha  occ. eigenvalues --   -0.46064  -0.45877  -0.45648  -0.45597  -0.45426
 Alpha  occ. eigenvalues --   -0.45262  -0.45116  -0.45088  -0.44866  -0.44792
 Alpha  occ. eigenvalues --   -0.44623  -0.44336  -0.44250  -0.44180  -0.43981
 Alpha  occ. eigenvalues --   -0.43789  -0.43640  -0.43574  -0.43342  -0.42966
 Alpha  occ. eigenvalues --   -0.42934  -0.42757  -0.42378  -0.42331  -0.41950
 Alpha  occ. eigenvalues --   -0.41100  -0.40984  -0.40801  -0.40754  -0.40667
 Alpha  occ. eigenvalues --   -0.40202  -0.40157  -0.39564  -0.39370  -0.39212
 Alpha  occ. eigenvalues --   -0.38800  -0.38757  -0.38472  -0.38451  -0.38074
 Alpha  occ. eigenvalues --   -0.37352  -0.37187  -0.36977  -0.36041  -0.35856
 Alpha  occ. eigenvalues --   -0.35391  -0.35281  -0.35061  -0.33323  -0.32984
 Alpha  occ. eigenvalues --   -0.32216  -0.31831  -0.31210  -0.30721  -0.25506
 Alpha  occ. eigenvalues --   -0.22958
 Alpha virt. eigenvalues --   -0.06884   0.00742   0.02944   0.04537   0.06117
 Alpha virt. eigenvalues --    0.06811   0.07057   0.08147   0.09011   0.09073
 Alpha virt. eigenvalues --    0.10853   0.11494   0.12366   0.12435   0.12607

 Mulliken charges:
               1
     1  Mg   0.973103
     2  C   -0.045812
     3  C   -0.106985
     4  C   -0.064683
     5  C   -0.065013
     6  N   -0.329754
     7  C    0.030565
     8  C   -0.053294
     9  C   -0.107103
    10  C    0.068335
    11  C    0.017688
    12  C    0.041471
    13  C   -0.060622
    14  C    0.251113
    15  O   -0.259111
    16  O   -0.389905
    17  N   -0.471319
    18  C    0.181395
    19  C   -0.161409
    20  C   -0.088933
    21  C    0.136166
    22  C    0.058577
    23  C    0.068299
    24  O   -0.234790
    25  C   -0.019013
    26  N   -0.327357
    27  C    0.093478
    28  C   -0.109182
    29  C   -0.073481
    30  C    0.068931
    31  C    0.017781
    32  C    0.016686
    33  C   -0.056084
    34  N   -0.486982
    35  C    0.094068
    36  C   -0.192151
    37  C    0.016684
    38  C    0.142412
    39  C    0.051147
    40  C    0.050363
    41  O   -0.236612
    42  C   -0.048162
    43  C    0.288552
    44  O   -0.209767
    45  O   -0.369362
    46  C    0.136584
    47  C    0.290754
    48  C   -0.159308
    49  C   -0.209592
    50  C    0.011658
    51  C    0.015652
    52  C    0.004250
    53  C    0.023826
    54  C   -0.194194
    55  C   -0.007738
    56  C    0.015455
    57  C   -0.069721
    58  C    0.034742
    59  C   -0.205013
    60  C   -0.007262
    61  C    0.022991
    62  C   -0.022491
    63  C   -0.009958
    64  C   -0.192483
    65  C   -0.006337
    66  C   -0.013190
    67  H    0.012485
    68  H    0.039856
    69  H    0.000451
    70  H    0.015366
    71  H    0.025776
    72  H    0.040707
    73  H    0.035062
    74  H    0.038568
    75  H    0.029475
    76  H    0.080225
    77  H    0.060412
    78  H    0.046941
    79  H    0.048329
    80  H    0.031427
    81  H    0.050224
    82  H    0.041221
    83  H    0.051725
    84  H    0.061110
    85  H    0.031874
    86  H    0.027582
    87  H    0.046962
    88  H    0.033627
    89  H    0.045324
    90  H    0.044383
    91  H    0.022332
    92  H    0.034871
    93  H    0.038279
    94  H    0.028073
    95  H    0.051104
    96  H    0.052633
    97  H    0.036544
    98  H    0.075683
    99  H    0.066295
   100  H    0.054483
   101  H    0.055038
   102  H    0.066918
   103  H    0.058544
   104  H    0.033411
   105  H    0.039041
   106  H    0.025927
   107  H    0.047980
   108  H    0.027255
   109  H    0.016989
   110  H    0.029171
   111  H    0.013899
   112  H    0.013614
   113  H    0.023994
   114  H    0.021046
   115  H    0.037942
   116  H    0.031293
   117  H    0.034274
   118  H    0.004514
   119  H    0.020473
   120  H    0.023343
   121  H    0.004453
   122  H    0.011937
   123  H    0.011537
   124  H    0.008395
   125  H    0.030790
   126  H    0.033399
   127  H    0.017355
   128  H    0.024166
   129  H    0.012074
   130  H    0.017205
   131  H    0.014825
   132  H    0.019972
   133  H    0.028179
   134  H    0.034574
   135  H    0.015987
   136  H    0.002934
   137  H    0.038620
   138  H    0.017200
   139  H    0.040555
   140  H    0.033210
 Sum of Mulliken charges =  -0.00000

 Dipole moment (field-independent basis, Debye):
    X=             -3.1115    Y=              3.3306    Z=             -2.3628  Tot=              5.1339
 Quadrupole moment (field-independent basis, Debye-Ang):
   XX=           -383.5956   YY=           -413.7335   ZZ=           -382.1395
   XY=              8.1974   XZ=              8.5144   YZ=             -9.1345

 Normal termination of Gaussian 16 at Thu Apr 28 07:46:51 2022.
