 Gaussian 16, Revision A.03,
 Gaussian 16:  ES64L-G16RevA.03 25-Dec-2016

 --------------------
 #p ZINDO=(nstates=5)
 --------------------

 ------------------------------
 step_1501_chromophore_22 ZINDO
 ------------------------------
 Symbolic Z-matrix:
 Charge =  0 Multiplicity = 1

                         Standard orientation:
 ---------------------------------------------------------------------
 Center     Atomic      Atomic             Coordinates (Angstroms)
 Number     Number       Type             X           Y           Z
 ---------------------------------------------------------------------
      1         12           0        6.115164    0.449142    0.085803
      2          6           0        3.696467   -1.936428   -0.398475
      3          6           0        4.281045    2.489072   -2.050553
      4          6           0        8.693441    2.728476    0.268665
      5          6           0        8.300532   -1.948439    1.533027
      6          7           0        4.318620    0.227379   -1.138545
      7          6           0        3.382710   -0.740080   -1.090267
      8          6           0        2.088239   -0.479435   -1.935459
      9          6           0        2.616893    0.680276   -2.805140
     10          6           0        3.853008    1.166025   -1.985808
     11          6           0        3.006265    0.218485   -4.240081
     12          6           0        0.830477   -0.183375   -1.206702
     13          6           0       -0.414217   -0.745009   -1.914532
     14          6           0       -1.542718   -1.406887   -0.957748
     15          8           0       -1.268168   -2.071326    0.048231
     16          8           0       -2.843330   -1.052029   -1.336352
     17          7           0        6.269221    2.426375   -0.621442
     18          6           0        5.390790    3.049984   -1.438062
     19          6           0        5.878010    4.395264   -1.559013
     20          6           0        7.194657    4.436321   -1.067553
     21          6           0        7.437969    3.142507   -0.415864
     22          6           0        5.178444    5.609512   -2.218693
     23          6           0        8.175411    5.609469   -0.997821
     24          8           0        9.286495    5.537143   -0.483703
     25          6           0        7.730825    6.967287   -1.527582
     26          7           0        8.158043    0.433101    0.896066
     27          6           0        8.987199    1.437354    0.840957
     28          6           0       10.308452    1.084435    1.575726
     29          6           0       10.109739   -0.312015    2.151232
     30          6           0        8.728025   -0.647187    1.561710
     31          6           0       11.638536    1.342489    0.735550
     32          6           0       10.152839   -0.574708    3.682560
     33          6           0       10.876855   -1.801076    4.110479
     34          7           0        6.048378   -1.494048    0.612389
     35          6           0        7.013016   -2.344494    1.107743
     36          6           0        6.529587   -3.690668    0.965244
     37          6           0        5.190783   -3.540708    0.591022
     38          6           0        4.929125   -2.212447    0.334450
     39          6           0        7.191629   -4.954108    1.259052
     40          6           0        3.983741   -4.232728    0.263817
     41          8           0        3.860583   -5.476401    0.337852
     42          6           0        2.948744   -3.197473   -0.206474
     43          6           0        1.909909   -3.117739    0.816825
     44          8           0        1.538842   -2.101311    1.331912
     45          8           0        1.442690   -4.411079    1.003506
     46          6           0        0.427443   -4.543018    2.093310
     47          6           0       -3.969037   -1.764919   -0.713992
     48          6           0       -5.200794   -1.310058   -1.460486
     49          6           0       -6.346005   -2.032655   -1.787806
     50          6           0       -6.689001   -3.476873   -1.382975
     51          6           0       -7.393767   -1.471537   -2.737130
     52          6           0       -8.618977   -0.745410   -2.130425
     53          6           0       -9.882003   -0.779851   -2.967956
     54          6           0      -11.231954   -1.265047   -2.269895
     55          6           0      -12.251149   -1.956000   -3.213028
     56          6           0      -11.994757   -0.104531   -1.503565
     57          6           0      -12.416681   -0.534068   -0.081985
     58          6           0      -13.925958   -0.459118    0.239716
     59          6           0      -14.282877    0.908234    0.858157
     60          6           0      -15.587997    1.367881    0.194512
     61          6           0      -14.350006    0.920861    2.391505
     62          6           0      -14.063070    2.369862    2.999843
     63          6           0      -12.693083    2.468607    3.701587
     64          6           0      -11.967268    3.812542    3.404441
     65          6           0      -10.506105    3.619019    3.844652
     66          6           0      -12.663910    4.939519    4.251295
     67          1           0        3.905201    3.047971   -2.909952
     68          1           0        9.466004    3.497521    0.340187
     69          1           0        8.807089   -2.792481    2.006248
     70          1           0        1.807724   -1.341553   -2.539422
     71          1           0        1.934544    1.526109   -2.889296
     72          1           0        3.205108   -0.849775   -4.329077
     73          1           0        3.903371    0.679391   -4.653344
     74          1           0        2.211290    0.456218   -4.946250
     75          1           0        0.667841    0.887307   -1.085955
     76          1           0        0.817407   -0.648297   -0.221083
     77          1           0       -0.214668   -1.372881   -2.783141
     78          1           0       -0.847690    0.166431   -2.326414
     79          1           0        5.094338    6.518631   -1.623487
     80          1           0        4.160786    5.367830   -2.526179
     81          1           0        5.718705    5.877973   -3.127406
     82          1           0        7.336485    6.986001   -2.542840
     83          1           0        8.616308    7.602812   -1.539426
     84          1           0        6.952278    7.382712   -0.888302
     85          1           0       10.512172    1.560233    2.534920
     86          1           0       10.790830   -0.951626    1.589666
     87          1           0       11.447819    1.973071   -0.133598
     88          1           0       11.952385    0.356586    0.393263
     89          1           0       12.335626    1.880523    1.378917
     90          1           0        9.211151   -0.569729    4.231455
     91          1           0       10.757372    0.225693    4.108324
     92          1           0       10.203588   -2.475454    4.639909
     93          1           0       11.715057   -1.583756    4.773614
     94          1           0       11.251707   -2.343483    3.242493
     95          1           0        7.914808   -5.317763    0.529392
     96          1           0        6.311112   -5.596485    1.275833
     97          1           0        7.626755   -5.022276    2.256202
     98          1           0        2.506437   -3.589841   -1.122635
     99          1           0        0.263921   -3.768063    2.843039
    100          1           0        0.722340   -5.460008    2.603639
    101          1           0       -0.518922   -4.691275    1.573221
    102          1           0       -4.066172   -1.419756    0.315449
    103          1           0       -3.957028   -2.836853   -0.914237
    104          1           0       -5.078336   -0.412609   -2.066895
    105          1           0       -7.651078   -3.600980   -0.884158
    106          1           0       -5.982018   -3.875161   -0.655584
    107          1           0       -6.752983   -4.156177   -2.232901
    108          1           0       -7.596374   -2.264340   -3.456101
    109          1           0       -6.847047   -0.698238   -3.276631
    110          1           0       -8.398088    0.298652   -1.907409
    111          1           0       -8.865581   -1.221239   -1.181057
    112          1           0       -9.768192   -1.461988   -3.811063
    113          1           0      -10.034617    0.254881   -3.274922
    114          1           0      -10.957320   -2.017438   -1.530229
    115          1           0      -12.349029   -1.434598   -4.165032
    116          1           0      -13.251769   -1.976251   -2.780823
    117          1           0      -11.877121   -2.976004   -3.306742
    118          1           0      -12.881612    0.072259   -2.111178
    119          1           0      -11.629780    0.898195   -1.281110
    120          1           0      -11.748347   -0.113396    0.669642
    121          1           0      -12.213870   -1.603331   -0.013550
    122          1           0      -14.105259   -1.230198    0.988732
    123          1           0      -14.528288   -0.647194   -0.649200
    124          1           0      -13.534590    1.638414    0.549423
    125          1           0      -16.392381    0.718716    0.541663
    126          1           0      -15.523237    1.373319   -0.893415
    127          1           0      -15.688574    2.399988    0.529812
    128          1           0      -13.616464    0.203840    2.760067
    129          1           0      -15.396927    0.696811    2.593145
    130          1           0      -14.934705    2.542159    3.631891
    131          1           0      -14.195356    3.124823    2.225085
    132          1           0      -12.037211    1.648992    3.404859
    133          1           0      -12.870477    2.393717    4.774818
    134          1           0      -11.932473    4.024646    2.336144
    135          1           0      -10.120354    2.605365    3.956946
    136          1           0      -10.440317    3.792008    4.918472
    137          1           0       -9.770158    4.271251    3.373744
    138          1           0      -12.931920    5.674928    3.492742
    139          1           0      -12.060140    5.474269    4.984760
    140          1           0      -13.656605    4.748571    4.659802
 ---------------------------------------------------------------------

 SCF Done:  E(RZINDO/S) =  -474.286353732     A.U. after   19 cycles

 Excitation energies and oscillator strengths:

 Excited State   1:      Singlet-A      1.3210 eV  938.60 nm  f=0.5358  <S**2>=0.000
     175 ->178         0.17436
     176 ->177         0.66928
 This state for optimization and/or second-order correction.
 Total Energy, E(CIS/TDA) =  -474.237809612
 Copying the excited state density for this state as the 1-particle RhoCI density.

 Excited State   2:      Singlet-A      1.9089 eV  649.51 nm  f=0.0912  <S**2>=0.000
     175 ->177         0.57901
     176 ->178        -0.37093

 Excited State   3:      Singlet-A      2.9521 eV  419.98 nm  f=0.0107  <S**2>=0.000
     168 ->179        -0.14924
     170 ->180         0.10604
     171 ->177        -0.26367
     171 ->178         0.11198
     171 ->179        -0.24191
     171 ->180        -0.39163
     171 ->186         0.15243

 Excited State   4:      Singlet-A      2.9621 eV  418.56 nm  f=0.0002  <S**2>=0.000
     167 ->177         0.16436
     167 ->179        -0.25512
     167 ->180         0.12321
     168 ->177         0.27069
     168 ->179        -0.34459
     168 ->180         0.19538
     168 ->186         0.12477
     171 ->179         0.10651
     171 ->180         0.14120

 Excited State   5:      Singlet-A      3.0507 eV  406.41 nm  f=0.8641  <S**2>=0.000
     170 ->177         0.23811
     175 ->177         0.31236
     176 ->178         0.51543
     176 ->179        -0.11567
     176 ->180        -0.14642

 The electronic state is 1-A.
 Alpha  occ. eigenvalues --   -1.85459  -1.82046  -1.80448  -1.73115  -1.71231
 Alpha  occ. eigenvalues --   -1.68431  -1.65239  -1.59467  -1.59232  -1.56033
 Alpha  occ. eigenvalues --   -1.55007  -1.52384  -1.50259  -1.49448  -1.48426
 Alpha  occ. eigenvalues --   -1.44555  -1.42497  -1.39351  -1.38044  -1.37892
 Alpha  occ. eigenvalues --   -1.35919  -1.33370  -1.33088  -1.31828  -1.29645
 Alpha  occ. eigenvalues --   -1.26982  -1.24280  -1.21349  -1.20617  -1.17353
 Alpha  occ. eigenvalues --   -1.16774  -1.16237  -1.15402  -1.14410  -1.12370
 Alpha  occ. eigenvalues --   -1.11977  -1.11013  -1.10062  -1.04233  -1.03325
 Alpha  occ. eigenvalues --   -1.01590  -1.00202  -0.98316  -0.97233  -0.96622
 Alpha  occ. eigenvalues --   -0.95620  -0.94200  -0.93070  -0.92303  -0.91870
 Alpha  occ. eigenvalues --   -0.91341  -0.90140  -0.89249  -0.88315  -0.87192
 Alpha  occ. eigenvalues --   -0.86040  -0.84436  -0.83620  -0.82538  -0.80205
 Alpha  occ. eigenvalues --   -0.79474  -0.78345  -0.77416  -0.76898  -0.76059
 Alpha  occ. eigenvalues --   -0.75509  -0.74213  -0.74003  -0.73793  -0.73030
 Alpha  occ. eigenvalues --   -0.72356  -0.72130  -0.71764  -0.71475  -0.71161
 Alpha  occ. eigenvalues --   -0.70534  -0.69771  -0.69004  -0.68234  -0.67950
 Alpha  occ. eigenvalues --   -0.67466  -0.66948  -0.66648  -0.66341  -0.65758
 Alpha  occ. eigenvalues --   -0.65279  -0.65069  -0.63906  -0.63616  -0.63258
 Alpha  occ. eigenvalues --   -0.62783  -0.62318  -0.62155  -0.62051  -0.61791
 Alpha  occ. eigenvalues --   -0.60902  -0.60706  -0.60137  -0.59908  -0.59637
 Alpha  occ. eigenvalues --   -0.59458  -0.58747  -0.58513  -0.58238  -0.57775
 Alpha  occ. eigenvalues --   -0.57358  -0.57304  -0.56578  -0.56081  -0.56008
 Alpha  occ. eigenvalues --   -0.55364  -0.55287  -0.54711  -0.54358  -0.54278
 Alpha  occ. eigenvalues --   -0.53352  -0.53194  -0.52973  -0.52732  -0.52565
 Alpha  occ. eigenvalues --   -0.52322  -0.52158  -0.51975  -0.51869  -0.51355
 Alpha  occ. eigenvalues --   -0.50889  -0.50747  -0.50221  -0.50061  -0.49957
 Alpha  occ. eigenvalues --   -0.49773  -0.49530  -0.49403  -0.49191  -0.48748
 Alpha  occ. eigenvalues --   -0.48607  -0.48290  -0.47676  -0.47537  -0.47236
 Alpha  occ. eigenvalues --   -0.47173  -0.47011  -0.46684  -0.46529  -0.46159
 Alpha  occ. eigenvalues --   -0.45995  -0.45749  -0.45620  -0.45340  -0.45333
 Alpha  occ. eigenvalues --   -0.44746  -0.44682  -0.43984  -0.43930  -0.43524
 Alpha  occ. eigenvalues --   -0.43432  -0.43208  -0.42776  -0.41965  -0.41639
 Alpha  occ. eigenvalues --   -0.40926  -0.40687  -0.40521  -0.38763  -0.38416
 Alpha  occ. eigenvalues --   -0.37513  -0.36598  -0.35740  -0.34644  -0.33771
 Alpha  occ. eigenvalues --   -0.33217  -0.31941  -0.31697  -0.31171  -0.26212
 Alpha  occ. eigenvalues --   -0.21980
 Alpha virt. eigenvalues --   -0.08318  -0.01534  -0.00234   0.01451   0.01880
 Alpha virt. eigenvalues --    0.02861   0.03119   0.03785   0.03807   0.05041
 Alpha virt. eigenvalues --    0.06508   0.06826   0.07121   0.07540   0.08243

 Mulliken charges:
               1
     1  Mg   0.422429
     2  C   -0.025445
     3  C   -0.092134
     4  C   -0.091849
     5  C   -0.057666
     6  N   -0.267176
     7  C    0.086777
     8  C    0.012451
     9  C    0.006265
    10  C    0.159042
    11  C   -0.050160
    12  C   -0.018799
    13  C   -0.000807
    14  C    0.449957
    15  O   -0.496157
    16  O   -0.276504
    17  N   -0.329677
    18  C    0.158497
    19  C    0.026615
    20  C   -0.036916
    21  C    0.140757
    22  C   -0.048182
    23  C    0.329069
    24  O   -0.509948
    25  C   -0.034083
    26  N   -0.256571
    27  C    0.180926
    28  C   -0.009117
    29  C   -0.004153
    30  C    0.086085
    31  C   -0.056834
    32  C   -0.020362
    33  C   -0.053146
    34  N   -0.318262
    35  C    0.064838
    36  C    0.011157
    37  C   -0.050919
    38  C    0.085508
    39  C   -0.043975
    40  C    0.326129
    41  O   -0.554601
    42  C    0.070367
    43  C    0.498193
    44  O   -0.506281
    45  O   -0.259322
    46  C    0.070024
    47  C    0.111744
    48  C   -0.098051
    49  C   -0.015422
    50  C   -0.044691
    51  C   -0.021691
    52  C   -0.021988
    53  C   -0.036035
    54  C   -0.013760
    55  C   -0.054342
    56  C   -0.045618
    57  C   -0.043811
    58  C   -0.033852
    59  C   -0.016331
    60  C   -0.059195
    61  C   -0.040968
    62  C   -0.046172
    63  C   -0.026745
    64  C   -0.001847
    65  C   -0.070040
    66  C   -0.062068
    67  H    0.022677
    68  H    0.059397
    69  H    0.034266
    70  H    0.028070
    71  H    0.027530
    72  H    0.023517
    73  H    0.019481
    74  H    0.016127
    75  H    0.021454
    76  H    0.052217
    77  H    0.046741
    78  H    0.022865
    79  H    0.035840
    80  H    0.016165
    81  H    0.030205
    82  H    0.033513
    83  H    0.033225
    84  H    0.041353
    85  H    0.035162
    86  H    0.028521
    87  H    0.025860
    88  H    0.027144
    89  H    0.027134
    90  H    0.032165
    91  H    0.009613
    92  H    0.016436
    93  H    0.018220
    94  H    0.016623
    95  H    0.033190
    96  H    0.031654
    97  H    0.023674
    98  H    0.058182
    99  H    0.055881
   100  H    0.031760
   101  H    0.036211
   102  H    0.061815
   103  H    0.059692
   104  H    0.032687
   105  H    0.024159
   106  H    0.015265
   107  H    0.030532
   108  H    0.029743
   109  H    0.010809
   110  H    0.023276
   111  H    0.016871
   112  H    0.019109
   113  H    0.019554
   114  H    0.021704
   115  H    0.022599
   116  H    0.020105
   117  H    0.016318
   118  H    0.012725
   119  H    0.026458
   120  H    0.022578
   121  H    0.000422
   122  H    0.013797
   123  H    0.025328
   124  H    0.013977
   125  H    0.023059
   126  H    0.017968
   127  H    0.011290
   128  H    0.027273
   129  H    0.022398
   130  H    0.014430
   131  H    0.020615
   132  H    0.019790
   133  H    0.021447
   134  H    0.030474
   135  H    0.021224
   136  H    0.006895
   137  H    0.019881
   138  H    0.003351
   139  H    0.028284
   140  H    0.024866
 Sum of Mulliken charges =  -0.00000

 Dipole moment (field-independent basis, Debye):
    X=             -3.1310    Y=              6.6685    Z=             -6.0464  Tot=              9.5305
 N-N= 4.180174005596D+03 E-N= 0.000000000000D+00  KE=-9.035632987988D+03
 Leave Link  601 at Thu Apr 28 07:58:07 2022, MaxMem=  6710886400 cpu:               0.7 elap:               0.0
 (Enter /sw/apps/gaussian-16.0/g16/l9999.exe)
 1\1\GINC-BP1-COMPUTE155\SP\RZINDO CIS\STO-3G\C55H74Mg1N4O6\OF15641\28-
 Apr-2022\0\\#p ZINDO=(nstates=5)\\step_1501_chromophore_22 ZINDO\\0,1\
 Mg,0,8.781,47.858,25.22\C,0,6.994,48.021,28.145\C,0,11.273,49.654,26.8
 49\C,0,10.446,48.019,22.207\C,0,5.901,46.803,23.428\N,0,9.011,48.803,2
 7.177\C,0,8.264,48.634,28.285\C,0,8.838,49.27,29.598\C,0,9.902,50.186,
 28.958\C,0,10.07,49.552,27.542\C,0,9.443,51.672,28.887\C,0,9.357,48.35
 5,30.644\C,0,9.111,48.879,32.069\C,0,8.656,47.777,33.167\O,0,7.897,46.

 Normal termination of Gaussian 16 at Thu Apr 28 07:58:07 2022.
