 Gaussian 16, Revision A.03,
 Gaussian 16:  ES64L-G16RevA.03 25-Dec-2016

 ------------------------------
 #p blyp/Def2SVP td=(nstates=5)
 ------------------------------

 --------------------------------------------------
 step_651_chromophore_18 TDDFT with blyp functional
 --------------------------------------------------
 Symbolic Z-matrix:
 Charge =  0 Multiplicity = 1

                         Standard orientation:
 ---------------------------------------------------------------------
 Center     Atomic      Atomic             Coordinates (Angstroms)
 Number     Number       Type             X           Y           Z
 ---------------------------------------------------------------------
      1         12           0        5.310145    1.226726    0.165145
      2          6           0        4.576095   -2.252783    0.313043
      3          6           0        1.900744    1.841873   -0.094118
      4          6           0        5.997002    4.439708   -0.171485
      5          6           0        8.766992    0.428940    0.162627
      6          7           0        3.485609   -0.098616    0.237717
      7          6           0        3.472633   -1.424461    0.297081
      8          6           0        2.014801   -1.921212    0.370332
      9          6           0        1.160792   -0.622990    0.148358
     10          6           0        2.238889    0.494389    0.081670
     11          6           0        0.195679   -0.733370   -1.121755
     12          6           0        1.684975   -2.698623    1.709433
     13          6           0        0.889858   -4.058365    1.616719
     14          6           0        0.153363   -4.369419    0.302268
     15          8           0        0.564574   -5.137824   -0.605032
     16          8           0       -1.064813   -3.729155    0.179893
     17          7           0        4.109132    2.854607   -0.021355
     18          6           0        2.764922    2.981232   -0.100333
     19          6           0        2.381511    4.331344   -0.166750
     20          6           0        3.531018    5.099013   -0.276127
     21          6           0        4.604482    4.133231   -0.129544
     22          6           0        0.870196    4.717905   -0.182813
     23          6           0        3.689970    6.514380   -0.670308
     24          8           0        4.711854    7.229101   -0.703064
     25          6           0        2.341423    7.317763   -0.945847
     26          7           0        7.107501    2.277449   -0.033582
     27          6           0        7.118946    3.596256   -0.094005
     28          6           0        8.565572    4.128534   -0.271913
     29          6           0        9.360201    2.899825    0.156572
     30          6           0        8.346852    1.815357    0.055396
     31          6           0        8.728720    4.663803   -1.736071
     32          6           0       10.035580    3.033932    1.473807
     33          6           0        9.268093    3.309763    2.773310
     34          7           0        6.481394   -0.511845    0.108681
     35          6           0        7.847406   -0.670052    0.212079
     36          6           0        8.185855   -2.019505    0.339143
     37          6           0        6.890949   -2.678602    0.400063
     38          6           0        5.880408   -1.738658    0.239730
     39          6           0        9.460536   -2.739290    0.458762
     40          6           0        6.344762   -3.987545    0.501892
     41          8           0        6.984654   -5.075755    0.527564
     42          6           0        4.712016   -3.816386    0.413153
     43          6           0        4.241827   -4.379024   -0.837504
     44          8           0        3.949556   -3.816735   -1.914072
     45          8           0        4.117135   -5.767673   -0.643945
     46          6           0        3.562617   -6.513491   -1.742258
     47          6           0       -1.814627   -3.838365   -1.061049
     48          6           0       -2.953943   -2.847566   -1.122834
     49          6           0       -4.150464   -2.994288   -1.693171
     50          6           0       -4.592607   -4.043445   -2.740826
     51          6           0       -5.283222   -2.157611   -1.181372
     52          6           0       -6.017590   -2.688030    0.096866
     53          6           0       -6.624740   -1.549109    0.921661
     54          6           0       -8.151261   -1.813383    1.289541
     55          6           0       -8.315892   -2.166753    2.689614
     56          6           0       -9.085880   -0.563997    0.835537
     57          6           0      -10.467335   -1.249741    0.488795
     58          6           0      -11.710434   -0.675616    1.192061
     59          6           0      -12.298717    0.585538    0.531844
     60          6           0      -11.858235    1.781497    1.330660
     61          6           0      -13.871099    0.427837    0.496869
     62          6           0      -14.549978    1.147154   -0.693728
     63          6           0      -15.752839    1.994260   -0.336738
     64          6           0      -15.403217    3.467848   -0.341880
     65          6           0      -16.502717    4.193653    0.444923
     66          6           0      -15.208297    4.134885   -1.810792
     67          1           0        0.825162    2.023652   -0.147352
     68          1           0        6.198969    5.510112   -0.259943
     69          1           0        9.816705    0.180156   -0.006720
     70          1           0        1.875136   -2.607680   -0.463949
     71          1           0        0.535926   -0.641737    1.040696
     72          1           0        0.237391   -1.664886   -1.686342
     73          1           0        0.390550   -0.002690   -1.906124
     74          1           0       -0.808131   -0.526228   -0.748753
     75          1           0        1.212848   -2.095750    2.485815
     76          1           0        2.661610   -2.914114    2.142954
     77          1           0        0.138080   -4.130471    2.402361
     78          1           0        1.595437   -4.854333    1.857252
     79          1           0        0.477093    5.090855   -1.129099
     80          1           0        0.696082    5.452655    0.602340
     81          1           0        0.212542    3.880611    0.048742
     82          1           0        1.740524    7.278198   -0.037659
     83          1           0        1.809656    7.019204   -1.849293
     84          1           0        2.733202    8.295787   -1.224670
     85          1           0        8.850698    5.040788    0.251905
     86          1           0       10.144729    2.582960   -0.529663
     87          1           0        8.943571    5.731429   -1.681225
     88          1           0        7.825653    4.477484   -2.318611
     89          1           0        9.606361    4.259105   -2.238716
     90          1           0       10.645751    3.936318    1.429765
     91          1           0       10.775266    2.240148    1.580649
     92          1           0        9.377223    2.474570    3.464961
     93          1           0        8.180603    3.386422    2.764495
     94          1           0        9.761062    4.187844    3.189577
     95          1           0        9.361410   -3.783220    0.756896
     96          1           0       10.107346   -2.216492    1.163595
     97          1           0        9.973448   -2.739386   -0.502353
     98          1           0        4.165413   -4.184891    1.280580
     99          1           0        3.405039   -7.567358   -1.512576
    100          1           0        4.297839   -6.553034   -2.545721
    101          1           0        2.634737   -6.063992   -2.097988
    102          1           0       -2.042739   -4.842596   -1.418760
    103          1           0       -1.142815   -3.406164   -1.803038
    104          1           0       -2.826993   -2.018161   -0.426825
    105          1           0       -3.843339   -4.835325   -2.762437
    106          1           0       -4.813616   -3.660206   -3.737226
    107          1           0       -5.499911   -4.488721   -2.332225
    108          1           0       -6.037439   -2.226687   -1.965154
    109          1           0       -4.994409   -1.107451   -1.143890
    110          1           0       -5.393554   -3.204049    0.826114
    111          1           0       -6.764475   -3.378334   -0.295326
    112          1           0       -6.641371   -0.648229    0.310236
    113          1           0       -6.107761   -1.333328    1.857420
    114          1           0       -8.290910   -2.700617    0.672301
    115          1           0       -7.959876   -3.196497    2.670408
    116          1           0       -9.331370   -2.184991    3.086261
    117          1           0       -7.688945   -1.629268    3.400175
    118          1           0       -8.789810   -0.010508   -0.054579
    119          1           0       -9.213060    0.216808    1.585731
    120          1           0      -10.508416   -2.318448    0.697661
    121          1           0      -10.529565   -1.233326   -0.599770
    122          1           0      -11.288007   -0.443660    2.170332
    123          1           0      -12.394147   -1.505128    1.370906
    124          1           0      -12.056531    0.641346   -0.529008
    125          1           0      -12.776718    2.351979    1.467823
    126          1           0      -11.074581    2.293144    0.772291
    127          1           0      -11.611666    1.624710    2.380978
    128          1           0      -14.187543    0.696974    1.504745
    129          1           0      -14.132609   -0.622764    0.376577
    130          1           0      -14.961840    0.330972   -1.288307
    131          1           0      -13.812744    1.685401   -1.289933
    132          1           0      -16.153411    1.760084    0.649524
    133          1           0      -16.505952    1.813663   -1.104311
    134          1           0      -14.489196    3.550218    0.246117
    135          1           0      -17.108828    3.507978    1.037046
    136          1           0      -17.128424    4.788328   -0.220132
    137          1           0      -15.948287    4.859790    1.106096
    138          1           0      -15.211328    3.344299   -2.561612
    139          1           0      -14.245518    4.645598   -1.839475
    140          1           0      -16.043672    4.784124   -2.068786
 ---------------------------------------------------------------------

 SCF Done:  E(RB-LYP) =  -3007.36152644     A.U. after   21 cycles

 Excitation energies and oscillator strengths:

 Excited State   1:      Singlet-A      1.8103 eV  684.90 nm  f=0.2208  <S**2>=0.000
     244 -> 247        0.31630
     245 -> 247       -0.14971
     245 -> 248       -0.15605
     246 -> 247        0.59019
     246 <- 247       -0.12524
 This state for optimization and/or second-order correction.
 Total Energy, E(TD-HF/TD-DFT) =  -3007.29500077
 Copying the excited state density for this state as the 1-particle RhoCI density.

 Excited State   2:      Singlet-A      1.8536 eV  668.89 nm  f=0.1079  <S**2>=0.000
     243 -> 247        0.18483
     244 -> 247        0.54320
     245 -> 247       -0.18930
     246 -> 247       -0.35078

 Excited State   3:      Singlet-A      1.8582 eV  667.22 nm  f=0.0007  <S**2>=0.000
     243 -> 247        0.66723
     244 -> 247       -0.22906

 Excited State   4:      Singlet-A      2.0018 eV  619.37 nm  f=0.0969  <S**2>=0.000
     243 -> 247        0.11112
     244 -> 247        0.22148
     245 -> 247        0.61293
     246 -> 248        0.18722
     246 -> 249       -0.11317

 Excited State   5:      Singlet-A      2.1480 eV  577.21 nm  f=0.0000  <S**2>=0.000
     242 -> 247        0.70005

 The electronic state is 1-A.
 Alpha  occ. eigenvalues --  -46.26923 -18.82899 -18.80279 -18.77212 -18.76297
 Alpha  occ. eigenvalues --  -18.76129 -18.75833 -14.03617 -14.03410 -14.01590
 Alpha  occ. eigenvalues --  -14.00660 -10.05207 -10.03347 -10.00282  -9.99897
 Alpha  occ. eigenvalues --   -9.98289  -9.97077  -9.96703  -9.96591  -9.96517
 Alpha  occ. eigenvalues --   -9.96085  -9.95576  -9.95469  -9.95365  -9.95003
 Alpha  occ. eigenvalues --   -9.94739  -9.94445  -9.94359  -9.94114  -9.94032
 Alpha  occ. eigenvalues --   -9.93782  -9.93647  -9.93621  -9.93498  -9.93447
 Alpha  occ. eigenvalues --   -9.93352  -9.93329  -9.93043  -9.93010  -9.92901
 Alpha  occ. eigenvalues --   -9.92883  -9.92588  -9.92353  -9.92295  -9.92150
 Alpha  occ. eigenvalues --   -9.92096  -9.92074  -9.92070  -9.92017  -9.91948
 Alpha  occ. eigenvalues --   -9.91859  -9.91682  -9.91528  -9.91485  -9.91412
 Alpha  occ. eigenvalues --   -9.91385  -9.91133  -9.90843  -9.90791  -9.90775
 Alpha  occ. eigenvalues --   -9.90727  -9.90706  -9.90694  -9.90419  -9.90347
 Alpha  occ. eigenvalues --   -9.90239  -2.91628  -1.72067  -1.71508  -1.71333
 Alpha  occ. eigenvalues --   -0.97627  -0.95430  -0.90569  -0.89184  -0.88833
 Alpha  occ. eigenvalues --   -0.88682  -0.87963  -0.86852  -0.86110  -0.85171
 Alpha  occ. eigenvalues --   -0.75317  -0.73985  -0.73482  -0.73157  -0.72442
 Alpha  occ. eigenvalues --   -0.72119  -0.71740  -0.71146  -0.71067  -0.70645
 Alpha  occ. eigenvalues --   -0.70037  -0.69068  -0.68005  -0.67617  -0.67289
 Alpha  occ. eigenvalues --   -0.66588  -0.65919  -0.65215  -0.64801  -0.64495
 Alpha  occ. eigenvalues --   -0.63654  -0.62773  -0.62362  -0.62282  -0.60841
 Alpha  occ. eigenvalues --   -0.60301  -0.59939  -0.59793  -0.59752  -0.59003
 Alpha  occ. eigenvalues --   -0.58473  -0.57975  -0.56912  -0.56103  -0.55728
 Alpha  occ. eigenvalues --   -0.54403  -0.53639  -0.53318  -0.52449  -0.51762
 Alpha  occ. eigenvalues --   -0.51547  -0.50880  -0.50688  -0.50412  -0.50212
 Alpha  occ. eigenvalues --   -0.49844  -0.49531  -0.48499  -0.47476  -0.47151
 Alpha  occ. eigenvalues --   -0.46787  -0.46455  -0.45715  -0.45136  -0.44776
 Alpha  occ. eigenvalues --   -0.44186  -0.43186  -0.42941  -0.42707  -0.42521
 Alpha  occ. eigenvalues --   -0.42170  -0.41719  -0.41464  -0.41106  -0.41009
 Alpha  occ. eigenvalues --   -0.40712  -0.40650  -0.40534  -0.40157  -0.40072
 Alpha  occ. eigenvalues --   -0.39780  -0.39700  -0.39305  -0.39167  -0.39012
 Alpha  occ. eigenvalues --   -0.38992  -0.38750  -0.38510  -0.38304  -0.38047
 Alpha  occ. eigenvalues --   -0.37836  -0.37685  -0.37622  -0.37458  -0.37215
 Alpha  occ. eigenvalues --   -0.37196  -0.37016  -0.36895  -0.36678  -0.36350
 Alpha  occ. eigenvalues --   -0.36258  -0.36131  -0.35865  -0.35722  -0.35485
 Alpha  occ. eigenvalues --   -0.35209  -0.35075  -0.34974  -0.34822  -0.34642
 Alpha  occ. eigenvalues --   -0.34564  -0.34519  -0.34428  -0.34191  -0.33900
 Alpha  occ. eigenvalues --   -0.33716  -0.33565  -0.33279  -0.33192  -0.33116
 Alpha  occ. eigenvalues --   -0.33050  -0.32693  -0.32410  -0.32330  -0.32271
 Alpha  occ. eigenvalues --   -0.32225  -0.32176  -0.31862  -0.31702  -0.31592
 Alpha  occ. eigenvalues --   -0.31416  -0.31258  -0.30968  -0.30667  -0.30612
 Alpha  occ. eigenvalues --   -0.30377  -0.30286  -0.30191  -0.30057  -0.29880
 Alpha  occ. eigenvalues --   -0.29733  -0.29511  -0.29342  -0.29289  -0.28993
 Alpha  occ. eigenvalues --   -0.28715  -0.28262  -0.28207  -0.27953  -0.27895
 Alpha  occ. eigenvalues --   -0.27652  -0.27414  -0.26956  -0.26678  -0.26594
 Alpha  occ. eigenvalues --   -0.26430  -0.25949  -0.25701  -0.25663  -0.25349
 Alpha  occ. eigenvalues --   -0.24968  -0.24361  -0.24232  -0.23249  -0.23198
 Alpha  occ. eigenvalues --   -0.22592  -0.22343  -0.21801  -0.21598  -0.21271
 Alpha  occ. eigenvalues --   -0.19975  -0.19946  -0.18805  -0.18733  -0.17485
 Alpha  occ. eigenvalues --   -0.16377
 Alpha virt. eigenvalues --   -0.12053  -0.07333  -0.06497  -0.05053  -0.04355
 Alpha virt. eigenvalues --   -0.02828  -0.02716  -0.01844  -0.01206   0.00095
 Alpha virt. eigenvalues --    0.01153   0.01707   0.02290   0.02590   0.02786

 Mulliken charges:
               1
     1  Mg   0.702277
     2  C   -0.054546
     3  C   -0.056801
     4  C   -0.049412
     5  C   -0.107050
     6  N   -0.184018
     7  C   -0.086595
     8  C   -0.027312
     9  C    0.018390
    10  C    0.044866
    11  C    0.094103
    12  C    0.102112
    13  C    0.158648
    14  C    0.092339
    15  O   -0.221929
    16  O   -0.280353
    17  N   -0.287061
    18  C    0.130610
    19  C   -0.124668
    20  C    0.080831
    21  C    0.075399
    22  C    0.164256
    23  C   -0.083232
    24  O   -0.176654
    25  C    0.097212
    26  N   -0.169609
    27  C    0.041658
    28  C   -0.004927
    29  C    0.102934
    30  C    0.014479
    31  C    0.113889
    32  C    0.082385
    33  C    0.062863
    34  N   -0.273362
    35  C    0.117886
    36  C   -0.144647
    37  C    0.094184
    38  C    0.127068
    39  C    0.186442
    40  C   -0.047970
    41  O   -0.165209
    42  C    0.069581
    43  C    0.164122
    44  O   -0.208371
    45  O   -0.280960
    46  C    0.235834
    47  C    0.323865
    48  C   -0.084649
    49  C   -0.163476
    50  C    0.149184
    51  C    0.111990
    52  C    0.087626
    53  C    0.100791
    54  C   -0.093851
    55  C    0.137254
    56  C    0.102399
    57  C    0.025920
    58  C    0.119474
    59  C   -0.082194
    60  C    0.153241
    61  C    0.072582
    62  C    0.102312
    63  C    0.102025
    64  C   -0.133123
    65  C    0.119931
    66  C    0.099970
    67  H   -0.067358
    68  H   -0.047760
    69  H   -0.043621
    70  H    0.011451
    71  H   -0.024397
    72  H    0.009082
    73  H   -0.015973
    74  H   -0.001858
    75  H   -0.022044
    76  H   -0.024731
    77  H   -0.006473
    78  H    0.001039
    79  H    0.007111
    80  H    0.000448
    81  H   -0.022108
    82  H    0.012482
    83  H    0.001478
    84  H   -0.012505
    85  H   -0.030014
    86  H   -0.049326
    87  H   -0.006074
    88  H    0.009427
    89  H   -0.016058
    90  H   -0.032838
    91  H   -0.028016
    92  H   -0.013140
    93  H    0.003196
    94  H   -0.005701
    95  H    0.009180
    96  H   -0.011579
    97  H   -0.002694
    98  H    0.010696
    99  H   -0.000745
   100  H   -0.009267
   101  H    0.021666
   102  H    0.006057
   103  H   -0.014950
   104  H   -0.034338
   105  H   -0.022038
   106  H    0.017975
   107  H   -0.010990
   108  H   -0.048570
   109  H   -0.014103
   110  H   -0.020965
   111  H   -0.021692
   112  H   -0.041172
   113  H   -0.035110
   114  H   -0.033687
   115  H   -0.030339
   116  H   -0.015182
   117  H   -0.017008
   118  H   -0.034674
   119  H   -0.027153
   120  H   -0.031206
   121  H   -0.041409
   122  H   -0.043822
   123  H   -0.043144
   124  H   -0.038000
   125  H   -0.032180
   126  H   -0.004957
   127  H   -0.020732
   128  H   -0.039608
   129  H   -0.037729
   130  H   -0.042476
   131  H   -0.025353
   132  H   -0.031015
   133  H   -0.041982
   134  H   -0.030631
   135  H   -0.019155
   136  H   -0.018498
   137  H   -0.021592
   138  H   -0.016501
   139  H   -0.004851
   140  H   -0.011146
 Sum of Mulliken charges =  -0.00000

 Dipole moment (field-independent basis, Debye):
    X=             -3.6683    Y=              2.0001    Z=              1.9132  Tot=              4.5954
 Quadrupole moment (field-independent basis, Debye-Ang):
   XX=           -382.6303   YY=           -447.8698   ZZ=           -401.2954
   XY=             29.7764   XZ=             13.4221   YZ=              0.4573

 Normal termination of Gaussian 16 at Thu May  5 06:47:44 2022.
