 Gaussian 16, Revision A.03,
 Gaussian 16:  ES64L-G16RevA.03 25-Dec-2016

 -----------------------------------
 #p cam-b3lyp/Def2SVP td=(nstates=5)
 -----------------------------------

 -------------------------------------------------------
 step_651_chromophore_18 TDDFT with cam-b3lyp functional
 -------------------------------------------------------
 Symbolic Z-matrix:
 Charge =  0 Multiplicity = 1

                         Standard orientation:
 ---------------------------------------------------------------------
 Center     Atomic      Atomic             Coordinates (Angstroms)
 Number     Number       Type             X           Y           Z
 ---------------------------------------------------------------------
      1         12           0        5.310145    1.226726    0.165145
      2          6           0        4.576095   -2.252783    0.313043
      3          6           0        1.900744    1.841873   -0.094118
      4          6           0        5.997002    4.439708   -0.171485
      5          6           0        8.766992    0.428940    0.162627
      6          7           0        3.485609   -0.098616    0.237717
      7          6           0        3.472633   -1.424461    0.297081
      8          6           0        2.014801   -1.921212    0.370332
      9          6           0        1.160792   -0.622990    0.148358
     10          6           0        2.238889    0.494389    0.081670
     11          6           0        0.195679   -0.733370   -1.121755
     12          6           0        1.684975   -2.698623    1.709433
     13          6           0        0.889858   -4.058365    1.616719
     14          6           0        0.153363   -4.369419    0.302268
     15          8           0        0.564574   -5.137824   -0.605032
     16          8           0       -1.064813   -3.729155    0.179893
     17          7           0        4.109132    2.854607   -0.021355
     18          6           0        2.764922    2.981232   -0.100333
     19          6           0        2.381511    4.331344   -0.166750
     20          6           0        3.531018    5.099013   -0.276127
     21          6           0        4.604482    4.133231   -0.129544
     22          6           0        0.870196    4.717905   -0.182813
     23          6           0        3.689970    6.514380   -0.670308
     24          8           0        4.711854    7.229101   -0.703064
     25          6           0        2.341423    7.317763   -0.945847
     26          7           0        7.107501    2.277449   -0.033582
     27          6           0        7.118946    3.596256   -0.094005
     28          6           0        8.565572    4.128534   -0.271913
     29          6           0        9.360201    2.899825    0.156572
     30          6           0        8.346852    1.815357    0.055396
     31          6           0        8.728720    4.663803   -1.736071
     32          6           0       10.035580    3.033932    1.473807
     33          6           0        9.268093    3.309763    2.773310
     34          7           0        6.481394   -0.511845    0.108681
     35          6           0        7.847406   -0.670052    0.212079
     36          6           0        8.185855   -2.019505    0.339143
     37          6           0        6.890949   -2.678602    0.400063
     38          6           0        5.880408   -1.738658    0.239730
     39          6           0        9.460536   -2.739290    0.458762
     40          6           0        6.344762   -3.987545    0.501892
     41          8           0        6.984654   -5.075755    0.527564
     42          6           0        4.712016   -3.816386    0.413153
     43          6           0        4.241827   -4.379024   -0.837504
     44          8           0        3.949556   -3.816735   -1.914072
     45          8           0        4.117135   -5.767673   -0.643945
     46          6           0        3.562617   -6.513491   -1.742258
     47          6           0       -1.814627   -3.838365   -1.061049
     48          6           0       -2.953943   -2.847566   -1.122834
     49          6           0       -4.150464   -2.994288   -1.693171
     50          6           0       -4.592607   -4.043445   -2.740826
     51          6           0       -5.283222   -2.157611   -1.181372
     52          6           0       -6.017590   -2.688030    0.096866
     53          6           0       -6.624740   -1.549109    0.921661
     54          6           0       -8.151261   -1.813383    1.289541
     55          6           0       -8.315892   -2.166753    2.689614
     56          6           0       -9.085880   -0.563997    0.835537
     57          6           0      -10.467335   -1.249741    0.488795
     58          6           0      -11.710434   -0.675616    1.192061
     59          6           0      -12.298717    0.585538    0.531844
     60          6           0      -11.858235    1.781497    1.330660
     61          6           0      -13.871099    0.427837    0.496869
     62          6           0      -14.549978    1.147154   -0.693728
     63          6           0      -15.752839    1.994260   -0.336738
     64          6           0      -15.403217    3.467848   -0.341880
     65          6           0      -16.502717    4.193653    0.444923
     66          6           0      -15.208297    4.134885   -1.810792
     67          1           0        0.825162    2.023652   -0.147352
     68          1           0        6.198969    5.510112   -0.259943
     69          1           0        9.816705    0.180156   -0.006720
     70          1           0        1.875136   -2.607680   -0.463949
     71          1           0        0.535926   -0.641737    1.040696
     72          1           0        0.237391   -1.664886   -1.686342
     73          1           0        0.390550   -0.002690   -1.906124
     74          1           0       -0.808131   -0.526228   -0.748753
     75          1           0        1.212848   -2.095750    2.485815
     76          1           0        2.661610   -2.914114    2.142954
     77          1           0        0.138080   -4.130471    2.402361
     78          1           0        1.595437   -4.854333    1.857252
     79          1           0        0.477093    5.090855   -1.129099
     80          1           0        0.696082    5.452655    0.602340
     81          1           0        0.212542    3.880611    0.048742
     82          1           0        1.740524    7.278198   -0.037659
     83          1           0        1.809656    7.019204   -1.849293
     84          1           0        2.733202    8.295787   -1.224670
     85          1           0        8.850698    5.040788    0.251905
     86          1           0       10.144729    2.582960   -0.529663
     87          1           0        8.943571    5.731429   -1.681225
     88          1           0        7.825653    4.477484   -2.318611
     89          1           0        9.606361    4.259105   -2.238716
     90          1           0       10.645751    3.936318    1.429765
     91          1           0       10.775266    2.240148    1.580649
     92          1           0        9.377223    2.474570    3.464961
     93          1           0        8.180603    3.386422    2.764495
     94          1           0        9.761062    4.187844    3.189577
     95          1           0        9.361410   -3.783220    0.756896
     96          1           0       10.107346   -2.216492    1.163595
     97          1           0        9.973448   -2.739386   -0.502353
     98          1           0        4.165413   -4.184891    1.280580
     99          1           0        3.405039   -7.567358   -1.512576
    100          1           0        4.297839   -6.553034   -2.545721
    101          1           0        2.634737   -6.063992   -2.097988
    102          1           0       -2.042739   -4.842596   -1.418760
    103          1           0       -1.142815   -3.406164   -1.803038
    104          1           0       -2.826993   -2.018161   -0.426825
    105          1           0       -3.843339   -4.835325   -2.762437
    106          1           0       -4.813616   -3.660206   -3.737226
    107          1           0       -5.499911   -4.488721   -2.332225
    108          1           0       -6.037439   -2.226687   -1.965154
    109          1           0       -4.994409   -1.107451   -1.143890
    110          1           0       -5.393554   -3.204049    0.826114
    111          1           0       -6.764475   -3.378334   -0.295326
    112          1           0       -6.641371   -0.648229    0.310236
    113          1           0       -6.107761   -1.333328    1.857420
    114          1           0       -8.290910   -2.700617    0.672301
    115          1           0       -7.959876   -3.196497    2.670408
    116          1           0       -9.331370   -2.184991    3.086261
    117          1           0       -7.688945   -1.629268    3.400175
    118          1           0       -8.789810   -0.010508   -0.054579
    119          1           0       -9.213060    0.216808    1.585731
    120          1           0      -10.508416   -2.318448    0.697661
    121          1           0      -10.529565   -1.233326   -0.599770
    122          1           0      -11.288007   -0.443660    2.170332
    123          1           0      -12.394147   -1.505128    1.370906
    124          1           0      -12.056531    0.641346   -0.529008
    125          1           0      -12.776718    2.351979    1.467823
    126          1           0      -11.074581    2.293144    0.772291
    127          1           0      -11.611666    1.624710    2.380978
    128          1           0      -14.187543    0.696974    1.504745
    129          1           0      -14.132609   -0.622764    0.376577
    130          1           0      -14.961840    0.330972   -1.288307
    131          1           0      -13.812744    1.685401   -1.289933
    132          1           0      -16.153411    1.760084    0.649524
    133          1           0      -16.505952    1.813663   -1.104311
    134          1           0      -14.489196    3.550218    0.246117
    135          1           0      -17.108828    3.507978    1.037046
    136          1           0      -17.128424    4.788328   -0.220132
    137          1           0      -15.948287    4.859790    1.106096
    138          1           0      -15.211328    3.344299   -2.561612
    139          1           0      -14.245518    4.645598   -1.839475
    140          1           0      -16.043672    4.784124   -2.068786
 ---------------------------------------------------------------------

 SCF Done:  E(RCAM-B3LYP) =  -3007.15096138     A.U. after   19 cycles

 Excitation energies and oscillator strengths:

 Excited State   1:      Singlet-A      1.7182 eV  721.59 nm  f=0.4054  <S**2>=0.000
     245 -> 248       -0.18170
     246 -> 247        0.68418
     245 <- 248       -0.10620
 This state for optimization and/or second-order correction.
 Total Energy, E(TD-HF/TD-DFT) =  -3007.08781834
 Copying the excited state density for this state as the 1-particle RhoCI density.

 Excited State   2:      Singlet-A      2.1910 eV  565.87 nm  f=0.1626  <S**2>=0.000
     245 -> 247        0.65479
     246 -> 248        0.24960

 Excited State   3:      Singlet-A      3.0929 eV  400.86 nm  f=0.0099  <S**2>=0.000
     244 -> 247        0.68865

 Excited State   4:      Singlet-A      3.2758 eV  378.49 nm  f=0.0004  <S**2>=0.000
     241 -> 247       -0.15208
     241 -> 249        0.10093
     242 -> 247        0.57258
     242 -> 249       -0.28109
     242 -> 250        0.16202

 Excited State   5:      Singlet-A      3.4802 eV  356.25 nm  f=0.0025  <S**2>=0.000
     240 -> 247        0.52904
     240 -> 248        0.21165
     240 -> 249        0.27090
     240 -> 250        0.24694
     241 -> 247        0.10842

 The electronic state is 1-A.
 Alpha  occ. eigenvalues --  -46.88416 -19.25780 -19.23205 -19.20246 -19.19543
 Alpha  occ. eigenvalues --  -19.19343 -19.18933 -14.42497 -14.42194 -14.40069
 Alpha  occ. eigenvalues --  -14.38984 -10.40661 -10.39061 -10.35605 -10.35444
 Alpha  occ. eigenvalues --  -10.32313 -10.31518 -10.31146 -10.31039 -10.30965
 Alpha  occ. eigenvalues --  -10.30431 -10.29752 -10.29735 -10.29592 -10.29218
 Alpha  occ. eigenvalues --  -10.28855 -10.28835 -10.28518 -10.28409 -10.28125
 Alpha  occ. eigenvalues --  -10.28003 -10.27878 -10.27762 -10.27761 -10.27507
 Alpha  occ. eigenvalues --  -10.27443 -10.27396 -10.27144 -10.27128 -10.26826
 Alpha  occ. eigenvalues --  -10.26594 -10.26508 -10.26223 -10.26031 -10.26009
 Alpha  occ. eigenvalues --  -10.25873 -10.25819 -10.25789 -10.25673 -10.25673
 Alpha  occ. eigenvalues --  -10.25607 -10.25425 -10.25404 -10.25282 -10.25189
 Alpha  occ. eigenvalues --  -10.25036 -10.24831 -10.24821 -10.24424 -10.24388
 Alpha  occ. eigenvalues --  -10.24385 -10.24346 -10.24344 -10.24048 -10.24005
 Alpha  occ. eigenvalues --  -10.23830  -3.17030  -1.91944  -1.91485  -1.91334
 Alpha  occ. eigenvalues --   -1.16016  -1.13976  -1.08922  -1.07434  -1.06682
 Alpha  occ. eigenvalues --   -1.06483  -1.05919  -1.04478  -1.03766  -1.02701
 Alpha  occ. eigenvalues --   -0.92492  -0.90879  -0.90184  -0.89993  -0.89200
 Alpha  occ. eigenvalues --   -0.88859  -0.88408  -0.87766  -0.87757  -0.87180
 Alpha  occ. eigenvalues --   -0.86581  -0.85375  -0.84261  -0.83822  -0.83475
 Alpha  occ. eigenvalues --   -0.82663  -0.81958  -0.81072  -0.80648  -0.80296
 Alpha  occ. eigenvalues --   -0.79683  -0.78589  -0.77998  -0.77793  -0.76199
 Alpha  occ. eigenvalues --   -0.75589  -0.75279  -0.75137  -0.75040  -0.74237
 Alpha  occ. eigenvalues --   -0.73554  -0.73037  -0.71798  -0.70955  -0.70381
 Alpha  occ. eigenvalues --   -0.69179  -0.68205  -0.67815  -0.66823  -0.65877
 Alpha  occ. eigenvalues --   -0.65585  -0.64955  -0.64870  -0.64399  -0.64006
 Alpha  occ. eigenvalues --   -0.63872  -0.63519  -0.62404  -0.61179  -0.60787
 Alpha  occ. eigenvalues --   -0.60352  -0.59977  -0.59281  -0.58509  -0.58128
 Alpha  occ. eigenvalues --   -0.57744  -0.56431  -0.56172  -0.55785  -0.55550
 Alpha  occ. eigenvalues --   -0.55304  -0.54803  -0.54634  -0.53914  -0.53733
 Alpha  occ. eigenvalues --   -0.53467  -0.53373  -0.53178  -0.53019  -0.52679
 Alpha  occ. eigenvalues --   -0.52620  -0.52579  -0.52176  -0.52064  -0.51783
 Alpha  occ. eigenvalues --   -0.51404  -0.51269  -0.51051  -0.50979  -0.50545
 Alpha  occ. eigenvalues --   -0.50173  -0.50019  -0.49899  -0.49707  -0.49595
 Alpha  occ. eigenvalues --   -0.49430  -0.49294  -0.49236  -0.48770  -0.48639
 Alpha  occ. eigenvalues --   -0.48527  -0.48244  -0.48029  -0.47903  -0.47819
 Alpha  occ. eigenvalues --   -0.47687  -0.47288  -0.46847  -0.46829  -0.46658
 Alpha  occ. eigenvalues --   -0.46649  -0.46329  -0.46152  -0.45881  -0.45816
 Alpha  occ. eigenvalues --   -0.45689  -0.45237  -0.45056  -0.44862  -0.44791
 Alpha  occ. eigenvalues --   -0.44714  -0.44375  -0.44113  -0.43939  -0.43872
 Alpha  occ. eigenvalues --   -0.43728  -0.43653  -0.43552  -0.43386  -0.43258
 Alpha  occ. eigenvalues --   -0.42921  -0.42825  -0.42636  -0.42196  -0.41965
 Alpha  occ. eigenvalues --   -0.41864  -0.41751  -0.41501  -0.41434  -0.41303
 Alpha  occ. eigenvalues --   -0.40942  -0.40725  -0.40549  -0.40356  -0.40107
 Alpha  occ. eigenvalues --   -0.39982  -0.39782  -0.39517  -0.39143  -0.38801
 Alpha  occ. eigenvalues --   -0.38627  -0.38228  -0.37972  -0.37744  -0.37324
 Alpha  occ. eigenvalues --   -0.37163  -0.36782  -0.36596  -0.36371  -0.36308
 Alpha  occ. eigenvalues --   -0.35565  -0.34990  -0.34794  -0.34281  -0.34154
 Alpha  occ. eigenvalues --   -0.33839  -0.33483  -0.32559  -0.31878  -0.30959
 Alpha  occ. eigenvalues --   -0.30852  -0.30587  -0.29573  -0.29125  -0.24125
 Alpha  occ. eigenvalues --   -0.21768
 Alpha virt. eigenvalues --   -0.09339  -0.01948  -0.00193   0.01829   0.03051
 Alpha virt. eigenvalues --    0.03440   0.04623   0.04784   0.05620   0.06402
 Alpha virt. eigenvalues --    0.08279   0.08554   0.08776   0.08941   0.09097

 Mulliken charges:
               1
     1  Mg   0.837076
     2  C   -0.079212
     3  C   -0.068510
     4  C   -0.062495
     5  C   -0.101216
     6  N   -0.260366
     7  C   -0.034047
     8  C   -0.077740
     9  C   -0.029848
    10  C    0.061612
    11  C    0.039747
    12  C    0.048262
    13  C    0.092510
    14  C    0.166910
    15  O   -0.262760
    16  O   -0.343664
    17  N   -0.376100
    18  C    0.134658
    19  C   -0.133157
    20  C    0.008657
    21  C    0.099115
    22  C    0.111390
    23  C   -0.006302
    24  O   -0.218793
    25  C    0.022074
    26  N   -0.243606
    27  C    0.048236
    28  C   -0.057025
    29  C    0.035755
    30  C    0.030909
    31  C    0.059249
    32  C    0.032137
    33  C   -0.001358
    34  N   -0.364937
    35  C    0.121505
    36  C   -0.135163
    37  C    0.011946
    38  C    0.164844
    39  C    0.127389
    40  C    0.044916
    41  O   -0.205369
    42  C   -0.004468
    43  C    0.256722
    44  O   -0.242479
    45  O   -0.343420
    46  C    0.193809
    47  C    0.286882
    48  C   -0.101605
    49  C   -0.183192
    50  C    0.090850
    51  C    0.046630
    52  C    0.035396
    53  C    0.049253
    54  C   -0.150501
    55  C    0.078667
    56  C    0.049790
    57  C   -0.023845
    58  C    0.066699
    59  C   -0.139088
    60  C    0.089225
    61  C    0.024059
    62  C    0.042017
    63  C    0.046124
    64  C   -0.187909
    65  C    0.060628
    66  C    0.041294
    67  H   -0.032417
    68  H   -0.004413
    69  H   -0.007827
    70  H    0.041415
    71  H    0.010195
    72  H    0.029277
    73  H    0.011493
    74  H    0.018299
    75  H    0.010427
    76  H    0.005533
    77  H    0.028318
    78  H    0.032862
    79  H    0.032585
    80  H    0.025828
    81  H    0.006310
    82  H    0.037198
    83  H    0.029753
    84  H    0.023121
    85  H    0.006288
    86  H   -0.010937
    87  H    0.017387
    88  H    0.034528
    89  H    0.008592
    90  H   -0.003151
    91  H    0.000939
    92  H    0.011483
    93  H    0.025595
    94  H    0.017757
    95  H    0.040398
    96  H    0.013808
    97  H    0.024488
    98  H    0.051089
    99  H    0.023466
   100  H    0.014246
   101  H    0.044709
   102  H    0.034805
   103  H    0.013397
   104  H   -0.001570
   105  H    0.001665
   106  H    0.042365
   107  H    0.011837
   108  H   -0.017300
   109  H    0.015149
   110  H    0.007913
   111  H    0.004140
   112  H   -0.011225
   113  H   -0.006203
   114  H   -0.002786
   115  H   -0.005601
   116  H    0.008767
   117  H    0.007188
   118  H   -0.005822
   119  H   -0.000600
   120  H   -0.003414
   121  H   -0.013074
   122  H   -0.018291
   123  H   -0.012481
   124  H   -0.006566
   125  H   -0.009291
   126  H    0.018999
   127  H    0.005637
   128  H   -0.011943
   129  H   -0.007363
   130  H   -0.010659
   131  H    0.001398
   132  H   -0.002416
   133  H   -0.012113
   134  H   -0.002251
   135  H    0.005409
   136  H    0.004855
   137  H    0.003122
   138  H    0.006095
   139  H    0.018586
   140  H    0.012231
 Sum of Mulliken charges =  -0.00000

 Dipole moment (field-independent basis, Debye):
    X=             -3.9797    Y=              2.2989    Z=              1.9985  Tot=              5.0117
 Quadrupole moment (field-independent basis, Debye-Ang):
   XX=           -381.4068   YY=           -445.2714   ZZ=           -401.0071
   XY=             30.5799   XZ=             13.7704   YZ=             -0.5088

 Normal termination of Gaussian 16 at Thu May  5 04:56:37 2022.
