 Gaussian 16, Revision A.03,
 Gaussian 16:  ES64L-G16RevA.03 25-Dec-2016

 ---------------------------------
 #p PBE1PBE/Def2SVP td=(nstates=5)
 ---------------------------------

 -----------------------------------------------------
 step_651_chromophore_18 TDDFT with PBE1PBE functional
 -----------------------------------------------------
 Symbolic Z-matrix:
 Charge =  0 Multiplicity = 1

                         Standard orientation:
 ---------------------------------------------------------------------
 Center     Atomic      Atomic             Coordinates (Angstroms)
 Number     Number       Type             X           Y           Z
 ---------------------------------------------------------------------
      1         12           0        5.310145    1.226726    0.165145
      2          6           0        4.576095   -2.252783    0.313043
      3          6           0        1.900744    1.841873   -0.094118
      4          6           0        5.997002    4.439708   -0.171485
      5          6           0        8.766992    0.428940    0.162627
      6          7           0        3.485609   -0.098616    0.237717
      7          6           0        3.472633   -1.424461    0.297081
      8          6           0        2.014801   -1.921212    0.370332
      9          6           0        1.160792   -0.622990    0.148358
     10          6           0        2.238889    0.494389    0.081670
     11          6           0        0.195679   -0.733370   -1.121755
     12          6           0        1.684975   -2.698623    1.709433
     13          6           0        0.889858   -4.058365    1.616719
     14          6           0        0.153363   -4.369419    0.302268
     15          8           0        0.564574   -5.137824   -0.605032
     16          8           0       -1.064813   -3.729155    0.179893
     17          7           0        4.109132    2.854607   -0.021355
     18          6           0        2.764922    2.981232   -0.100333
     19          6           0        2.381511    4.331344   -0.166750
     20          6           0        3.531018    5.099013   -0.276127
     21          6           0        4.604482    4.133231   -0.129544
     22          6           0        0.870196    4.717905   -0.182813
     23          6           0        3.689970    6.514380   -0.670308
     24          8           0        4.711854    7.229101   -0.703064
     25          6           0        2.341423    7.317763   -0.945847
     26          7           0        7.107501    2.277449   -0.033582
     27          6           0        7.118946    3.596256   -0.094005
     28          6           0        8.565572    4.128534   -0.271913
     29          6           0        9.360201    2.899825    0.156572
     30          6           0        8.346852    1.815357    0.055396
     31          6           0        8.728720    4.663803   -1.736071
     32          6           0       10.035580    3.033932    1.473807
     33          6           0        9.268093    3.309763    2.773310
     34          7           0        6.481394   -0.511845    0.108681
     35          6           0        7.847406   -0.670052    0.212079
     36          6           0        8.185855   -2.019505    0.339143
     37          6           0        6.890949   -2.678602    0.400063
     38          6           0        5.880408   -1.738658    0.239730
     39          6           0        9.460536   -2.739290    0.458762
     40          6           0        6.344762   -3.987545    0.501892
     41          8           0        6.984654   -5.075755    0.527564
     42          6           0        4.712016   -3.816386    0.413153
     43          6           0        4.241827   -4.379024   -0.837504
     44          8           0        3.949556   -3.816735   -1.914072
     45          8           0        4.117135   -5.767673   -0.643945
     46          6           0        3.562617   -6.513491   -1.742258
     47          6           0       -1.814627   -3.838365   -1.061049
     48          6           0       -2.953943   -2.847566   -1.122834
     49          6           0       -4.150464   -2.994288   -1.693171
     50          6           0       -4.592607   -4.043445   -2.740826
     51          6           0       -5.283222   -2.157611   -1.181372
     52          6           0       -6.017590   -2.688030    0.096866
     53          6           0       -6.624740   -1.549109    0.921661
     54          6           0       -8.151261   -1.813383    1.289541
     55          6           0       -8.315892   -2.166753    2.689614
     56          6           0       -9.085880   -0.563997    0.835537
     57          6           0      -10.467335   -1.249741    0.488795
     58          6           0      -11.710434   -0.675616    1.192061
     59          6           0      -12.298717    0.585538    0.531844
     60          6           0      -11.858235    1.781497    1.330660
     61          6           0      -13.871099    0.427837    0.496869
     62          6           0      -14.549978    1.147154   -0.693728
     63          6           0      -15.752839    1.994260   -0.336738
     64          6           0      -15.403217    3.467848   -0.341880
     65          6           0      -16.502717    4.193653    0.444923
     66          6           0      -15.208297    4.134885   -1.810792
     67          1           0        0.825162    2.023652   -0.147352
     68          1           0        6.198969    5.510112   -0.259943
     69          1           0        9.816705    0.180156   -0.006720
     70          1           0        1.875136   -2.607680   -0.463949
     71          1           0        0.535926   -0.641737    1.040696
     72          1           0        0.237391   -1.664886   -1.686342
     73          1           0        0.390550   -0.002690   -1.906124
     74          1           0       -0.808131   -0.526228   -0.748753
     75          1           0        1.212848   -2.095750    2.485815
     76          1           0        2.661610   -2.914114    2.142954
     77          1           0        0.138080   -4.130471    2.402361
     78          1           0        1.595437   -4.854333    1.857252
     79          1           0        0.477093    5.090855   -1.129099
     80          1           0        0.696082    5.452655    0.602340
     81          1           0        0.212542    3.880611    0.048742
     82          1           0        1.740524    7.278198   -0.037659
     83          1           0        1.809656    7.019204   -1.849293
     84          1           0        2.733202    8.295787   -1.224670
     85          1           0        8.850698    5.040788    0.251905
     86          1           0       10.144729    2.582960   -0.529663
     87          1           0        8.943571    5.731429   -1.681225
     88          1           0        7.825653    4.477484   -2.318611
     89          1           0        9.606361    4.259105   -2.238716
     90          1           0       10.645751    3.936318    1.429765
     91          1           0       10.775266    2.240148    1.580649
     92          1           0        9.377223    2.474570    3.464961
     93          1           0        8.180603    3.386422    2.764495
     94          1           0        9.761062    4.187844    3.189577
     95          1           0        9.361410   -3.783220    0.756896
     96          1           0       10.107346   -2.216492    1.163595
     97          1           0        9.973448   -2.739386   -0.502353
     98          1           0        4.165413   -4.184891    1.280580
     99          1           0        3.405039   -7.567358   -1.512576
    100          1           0        4.297839   -6.553034   -2.545721
    101          1           0        2.634737   -6.063992   -2.097988
    102          1           0       -2.042739   -4.842596   -1.418760
    103          1           0       -1.142815   -3.406164   -1.803038
    104          1           0       -2.826993   -2.018161   -0.426825
    105          1           0       -3.843339   -4.835325   -2.762437
    106          1           0       -4.813616   -3.660206   -3.737226
    107          1           0       -5.499911   -4.488721   -2.332225
    108          1           0       -6.037439   -2.226687   -1.965154
    109          1           0       -4.994409   -1.107451   -1.143890
    110          1           0       -5.393554   -3.204049    0.826114
    111          1           0       -6.764475   -3.378334   -0.295326
    112          1           0       -6.641371   -0.648229    0.310236
    113          1           0       -6.107761   -1.333328    1.857420
    114          1           0       -8.290910   -2.700617    0.672301
    115          1           0       -7.959876   -3.196497    2.670408
    116          1           0       -9.331370   -2.184991    3.086261
    117          1           0       -7.688945   -1.629268    3.400175
    118          1           0       -8.789810   -0.010508   -0.054579
    119          1           0       -9.213060    0.216808    1.585731
    120          1           0      -10.508416   -2.318448    0.697661
    121          1           0      -10.529565   -1.233326   -0.599770
    122          1           0      -11.288007   -0.443660    2.170332
    123          1           0      -12.394147   -1.505128    1.370906
    124          1           0      -12.056531    0.641346   -0.529008
    125          1           0      -12.776718    2.351979    1.467823
    126          1           0      -11.074581    2.293144    0.772291
    127          1           0      -11.611666    1.624710    2.380978
    128          1           0      -14.187543    0.696974    1.504745
    129          1           0      -14.132609   -0.622764    0.376577
    130          1           0      -14.961840    0.330972   -1.288307
    131          1           0      -13.812744    1.685401   -1.289933
    132          1           0      -16.153411    1.760084    0.649524
    133          1           0      -16.505952    1.813663   -1.104311
    134          1           0      -14.489196    3.550218    0.246117
    135          1           0      -17.108828    3.507978    1.037046
    136          1           0      -17.128424    4.788328   -0.220132
    137          1           0      -15.948287    4.859790    1.106096
    138          1           0      -15.211328    3.344299   -2.561612
    139          1           0      -14.245518    4.645598   -1.839475
    140          1           0      -16.043672    4.784124   -2.068786
 ---------------------------------------------------------------------

 SCF Done:  E(RPBE1PBE) =  -3005.33970799     A.U. after   15 cycles

 Excitation energies and oscillator strengths:

 Excited State   1:      Singlet-A      1.8739 eV  661.63 nm  f=0.3882  <S**2>=0.000
     245 -> 248       -0.17107
     246 -> 247        0.69094
     246 <- 247       -0.10619
 This state for optimization and/or second-order correction.
 Total Energy, E(TD-HF/TD-DFT) =  -3005.27084288
 Copying the excited state density for this state as the 1-particle RhoCI density.

 Excited State   2:      Singlet-A      2.2004 eV  563.47 nm  f=0.1503  <S**2>=0.000
     245 -> 247        0.66289
     246 -> 248        0.21993

 Excited State   3:      Singlet-A      2.7783 eV  446.26 nm  f=0.0047  <S**2>=0.000
     242 -> 247        0.35647
     242 -> 249       -0.11108
     244 -> 247        0.58854

 Excited State   4:      Singlet-A      2.8434 eV  436.04 nm  f=0.0078  <S**2>=0.000
     242 -> 247        0.57524
     242 -> 249       -0.11567
     244 -> 247       -0.37226

 Excited State   5:      Singlet-A      2.9510 eV  420.14 nm  f=0.0000  <S**2>=0.000
     241 -> 247        0.66974
     241 -> 248        0.13669
     241 -> 249        0.13165
     241 -> 250        0.11003

 The electronic state is 1-A.
 Alpha  occ. eigenvalues --  -46.91818 -19.26442 -19.23812 -19.20506 -19.19703
 Alpha  occ. eigenvalues --  -19.19600 -19.19199 -14.41936 -14.41743 -14.39726
 Alpha  occ. eigenvalues --  -14.38691 -10.37709 -10.35978 -10.32767 -10.32577
 Alpha  occ. eigenvalues --  -10.29721 -10.29293 -10.28847 -10.28729 -10.28697
 Alpha  occ. eigenvalues --  -10.28177 -10.27485 -10.27398 -10.27174 -10.26477
 Alpha  occ. eigenvalues --  -10.26407 -10.26303 -10.26235 -10.26040 -10.25945
 Alpha  occ. eigenvalues --  -10.25856 -10.25565 -10.25464 -10.25371 -10.25342
 Alpha  occ. eigenvalues --  -10.25126 -10.24869 -10.24859 -10.24799 -10.24616
 Alpha  occ. eigenvalues --  -10.24150 -10.23985 -10.23850 -10.23604 -10.23551
 Alpha  occ. eigenvalues --  -10.23523 -10.23403 -10.23364 -10.23199 -10.23103
 Alpha  occ. eigenvalues --  -10.23061 -10.22907 -10.22885 -10.22881 -10.22807
 Alpha  occ. eigenvalues --  -10.22569 -10.22450 -10.22423 -10.22014 -10.21961
 Alpha  occ. eigenvalues --  -10.21884 -10.21744 -10.21731 -10.21587 -10.21583
 Alpha  occ. eigenvalues --  -10.21224  -3.14011  -1.86868  -1.86385  -1.86239
 Alpha  occ. eigenvalues --   -1.10810  -1.08653  -1.03654  -1.02146  -1.01504
 Alpha  occ. eigenvalues --   -1.01118  -1.00658  -0.99187  -0.98407  -0.97371
 Alpha  occ. eigenvalues --   -0.86814  -0.85020  -0.84493  -0.84087  -0.83349
 Alpha  occ. eigenvalues --   -0.83001  -0.82749  -0.82114  -0.81887  -0.81518
 Alpha  occ. eigenvalues --   -0.80892  -0.79605  -0.78485  -0.78082  -0.77717
 Alpha  occ. eigenvalues --   -0.76852  -0.76241  -0.75282  -0.75001  -0.74471
 Alpha  occ. eigenvalues --   -0.73894  -0.72824  -0.72230  -0.72073  -0.70383
 Alpha  occ. eigenvalues --   -0.69952  -0.69369  -0.69322  -0.69241  -0.68433
 Alpha  occ. eigenvalues --   -0.67877  -0.67457  -0.66234  -0.65277  -0.64724
 Alpha  occ. eigenvalues --   -0.63615  -0.62450  -0.62306  -0.61088  -0.60358
 Alpha  occ. eigenvalues --   -0.60068  -0.59473  -0.59091  -0.58919  -0.58495
 Alpha  occ. eigenvalues --   -0.58041  -0.57642  -0.56579  -0.55706  -0.55354
 Alpha  occ. eigenvalues --   -0.54752  -0.54566  -0.53816  -0.53111  -0.52791
 Alpha  occ. eigenvalues --   -0.52104  -0.51016  -0.50675  -0.50229  -0.50017
 Alpha  occ. eigenvalues --   -0.49781  -0.49323  -0.49252  -0.48422  -0.48158
 Alpha  occ. eigenvalues --   -0.48015  -0.47798  -0.47654  -0.47586  -0.47199
 Alpha  occ. eigenvalues --   -0.47145  -0.47047  -0.46622  -0.46596  -0.46351
 Alpha  occ. eigenvalues --   -0.45949  -0.45830  -0.45577  -0.45437  -0.45145
 Alpha  occ. eigenvalues --   -0.44717  -0.44561  -0.44463  -0.44275  -0.44220
 Alpha  occ. eigenvalues --   -0.44018  -0.43913  -0.43814  -0.43330  -0.43251
 Alpha  occ. eigenvalues --   -0.43140  -0.42876  -0.42649  -0.42538  -0.42435
 Alpha  occ. eigenvalues --   -0.42344  -0.41970  -0.41540  -0.41504  -0.41380
 Alpha  occ. eigenvalues --   -0.41329  -0.41030  -0.40861  -0.40543  -0.40448
 Alpha  occ. eigenvalues --   -0.40434  -0.39931  -0.39858  -0.39610  -0.39456
 Alpha  occ. eigenvalues --   -0.39414  -0.39063  -0.38938  -0.38775  -0.38538
 Alpha  occ. eigenvalues --   -0.38440  -0.38404  -0.38331  -0.38121  -0.38017
 Alpha  occ. eigenvalues --   -0.37680  -0.37565  -0.37357  -0.36968  -0.36740
 Alpha  occ. eigenvalues --   -0.36701  -0.36624  -0.36347  -0.36257  -0.36069
 Alpha  occ. eigenvalues --   -0.35687  -0.35578  -0.35397  -0.35225  -0.34937
 Alpha  occ. eigenvalues --   -0.34805  -0.34553  -0.34412  -0.33902  -0.33636
 Alpha  occ. eigenvalues --   -0.33562  -0.33088  -0.32932  -0.32560  -0.32152
 Alpha  occ. eigenvalues --   -0.32120  -0.31873  -0.31449  -0.31352  -0.31241
 Alpha  occ. eigenvalues --   -0.30473  -0.29840  -0.29677  -0.29483  -0.29127
 Alpha  occ. eigenvalues --   -0.28881  -0.28461  -0.27588  -0.27559  -0.26501
 Alpha  occ. eigenvalues --   -0.25744  -0.25530  -0.24861  -0.24776  -0.21135
 Alpha  occ. eigenvalues --   -0.19365
 Alpha virt. eigenvalues --   -0.11729  -0.05542  -0.04347  -0.02544  -0.01201
 Alpha virt. eigenvalues --    0.00095   0.00143   0.00540   0.01614   0.02759
 Alpha virt. eigenvalues --    0.04031   0.04817   0.05198   0.05590   0.05710

 Mulliken charges:
               1
     1  Mg   0.988432
     2  C   -0.084447
     3  C   -0.061075
     4  C   -0.047555
     5  C   -0.075457
     6  N   -0.372864
     7  C    0.042601
     8  C   -0.141925
     9  C   -0.106561
    10  C    0.096657
    11  C   -0.018039
    12  C   -0.004307
    13  C    0.023473
    14  C    0.223077
    15  O   -0.294108
    16  O   -0.374049
    17  N   -0.498297
    18  C    0.158587
    19  C   -0.158144
    20  C   -0.040127
    21  C    0.132625
    22  C    0.054468
    23  C    0.042661
    24  O   -0.255181
    25  C   -0.053132
    26  N   -0.359573
    27  C    0.073254
    28  C   -0.128020
    29  C   -0.049521
    30  C    0.074714
    31  C    0.006294
    32  C   -0.026838
    33  C   -0.070444
    34  N   -0.492814
    35  C    0.137854
    36  C   -0.152366
    37  C   -0.036336
    38  C    0.219296
    39  C    0.071907
    40  C    0.128463
    41  O   -0.247383
    42  C   -0.114293
    43  C    0.346668
    44  O   -0.275038
    45  O   -0.374932
    46  C    0.138709
    47  C    0.246021
    48  C   -0.115638
    49  C   -0.217754
    50  C    0.023033
    51  C   -0.026001
    52  C   -0.024668
    53  C    0.000044
    54  C   -0.245462
    55  C    0.022906
    56  C   -0.001305
    57  C   -0.082999
    58  C    0.009599
    59  C   -0.224509
    60  C    0.028391
    61  C   -0.025820
    62  C   -0.024832
    63  C   -0.011125
    64  C   -0.282403
    65  C    0.001357
    66  C   -0.019356
    67  H    0.000591
    68  H    0.026982
    69  H    0.021117
    70  H    0.083406
    71  H    0.047483
    72  H    0.056353
    73  H    0.039188
    74  H    0.045858
    75  H    0.040762
    76  H    0.040141
    77  H    0.059641
    78  H    0.064334
    79  H    0.059726
    80  H    0.054015
    81  H    0.033817
    82  H    0.063789
    83  H    0.056419
    84  H    0.051205
    85  H    0.041862
    86  H    0.026840
    87  H    0.044232
    88  H    0.062464
    89  H    0.036588
    90  H    0.031168
    91  H    0.032907
    92  H    0.039600
    93  H    0.054185
    94  H    0.044330
    95  H    0.066952
    96  H    0.041258
    97  H    0.052669
    98  H    0.086385
    99  H    0.045857
   100  H    0.037434
   101  H    0.067619
   102  H    0.060511
   103  H    0.043657
   104  H    0.028024
   105  H    0.030250
   106  H    0.069409
   107  H    0.040926
   108  H    0.018200
   109  H    0.045645
   110  H    0.040411
   111  H    0.034350
   112  H    0.022714
   113  H    0.025819
   114  H    0.036412
   115  H    0.024058
   116  H    0.036635
   117  H    0.034154
   118  H    0.025168
   119  H    0.031194
   120  H    0.028408
   121  H    0.020660
   122  H    0.015921
   123  H    0.018640
   124  H    0.030475
   125  H    0.020599
   126  H    0.046261
   127  H    0.031773
   128  H    0.019985
   129  H    0.025564
   130  H    0.023555
   131  H    0.032934
   132  H    0.029357
   133  H    0.021542
   134  H    0.040614
   135  H    0.032054
   136  H    0.032168
   137  H    0.030940
   138  H    0.033113
   139  H    0.045676
   140  H    0.038649
 Sum of Mulliken charges =  -0.00000

 Dipole moment (field-independent basis, Debye):
    X=             -3.9341    Y=              2.3547    Z=              1.9931  Tot=              4.9994
 Quadrupole moment (field-independent basis, Debye-Ang):
   XX=           -375.0774   YY=           -442.4373   ZZ=           -398.5214
   XY=             31.9051   XZ=             13.8678   YZ=             -0.4065

 Normal termination of Gaussian 16 at Thu May  5 05:25:30 2022.
