 Gaussian 16, Revision A.03,
 Gaussian 16:  ES64L-G16RevA.03 25-Dec-2016

 --------------------------------
 #p wB97XD/Def2SVP td=(nstates=5)
 --------------------------------

 ----------------------------------------------------
 step_651_chromophore_18 TDDFT with wB97XD functional
 ----------------------------------------------------
 Symbolic Z-matrix:
 Charge =  0 Multiplicity = 1

                         Standard orientation:
 ---------------------------------------------------------------------
 Center     Atomic      Atomic             Coordinates (Angstroms)
 Number     Number       Type             X           Y           Z
 ---------------------------------------------------------------------
      1         12           0        5.310145    1.226726    0.165145
      2          6           0        4.576095   -2.252783    0.313043
      3          6           0        1.900744    1.841873   -0.094118
      4          6           0        5.997002    4.439708   -0.171485
      5          6           0        8.766992    0.428940    0.162627
      6          7           0        3.485609   -0.098616    0.237717
      7          6           0        3.472633   -1.424461    0.297081
      8          6           0        2.014801   -1.921212    0.370332
      9          6           0        1.160792   -0.622990    0.148358
     10          6           0        2.238889    0.494389    0.081670
     11          6           0        0.195679   -0.733370   -1.121755
     12          6           0        1.684975   -2.698623    1.709433
     13          6           0        0.889858   -4.058365    1.616719
     14          6           0        0.153363   -4.369419    0.302268
     15          8           0        0.564574   -5.137824   -0.605032
     16          8           0       -1.064813   -3.729155    0.179893
     17          7           0        4.109132    2.854607   -0.021355
     18          6           0        2.764922    2.981232   -0.100333
     19          6           0        2.381511    4.331344   -0.166750
     20          6           0        3.531018    5.099013   -0.276127
     21          6           0        4.604482    4.133231   -0.129544
     22          6           0        0.870196    4.717905   -0.182813
     23          6           0        3.689970    6.514380   -0.670308
     24          8           0        4.711854    7.229101   -0.703064
     25          6           0        2.341423    7.317763   -0.945847
     26          7           0        7.107501    2.277449   -0.033582
     27          6           0        7.118946    3.596256   -0.094005
     28          6           0        8.565572    4.128534   -0.271913
     29          6           0        9.360201    2.899825    0.156572
     30          6           0        8.346852    1.815357    0.055396
     31          6           0        8.728720    4.663803   -1.736071
     32          6           0       10.035580    3.033932    1.473807
     33          6           0        9.268093    3.309763    2.773310
     34          7           0        6.481394   -0.511845    0.108681
     35          6           0        7.847406   -0.670052    0.212079
     36          6           0        8.185855   -2.019505    0.339143
     37          6           0        6.890949   -2.678602    0.400063
     38          6           0        5.880408   -1.738658    0.239730
     39          6           0        9.460536   -2.739290    0.458762
     40          6           0        6.344762   -3.987545    0.501892
     41          8           0        6.984654   -5.075755    0.527564
     42          6           0        4.712016   -3.816386    0.413153
     43          6           0        4.241827   -4.379024   -0.837504
     44          8           0        3.949556   -3.816735   -1.914072
     45          8           0        4.117135   -5.767673   -0.643945
     46          6           0        3.562617   -6.513491   -1.742258
     47          6           0       -1.814627   -3.838365   -1.061049
     48          6           0       -2.953943   -2.847566   -1.122834
     49          6           0       -4.150464   -2.994288   -1.693171
     50          6           0       -4.592607   -4.043445   -2.740826
     51          6           0       -5.283222   -2.157611   -1.181372
     52          6           0       -6.017590   -2.688030    0.096866
     53          6           0       -6.624740   -1.549109    0.921661
     54          6           0       -8.151261   -1.813383    1.289541
     55          6           0       -8.315892   -2.166753    2.689614
     56          6           0       -9.085880   -0.563997    0.835537
     57          6           0      -10.467335   -1.249741    0.488795
     58          6           0      -11.710434   -0.675616    1.192061
     59          6           0      -12.298717    0.585538    0.531844
     60          6           0      -11.858235    1.781497    1.330660
     61          6           0      -13.871099    0.427837    0.496869
     62          6           0      -14.549978    1.147154   -0.693728
     63          6           0      -15.752839    1.994260   -0.336738
     64          6           0      -15.403217    3.467848   -0.341880
     65          6           0      -16.502717    4.193653    0.444923
     66          6           0      -15.208297    4.134885   -1.810792
     67          1           0        0.825162    2.023652   -0.147352
     68          1           0        6.198969    5.510112   -0.259943
     69          1           0        9.816705    0.180156   -0.006720
     70          1           0        1.875136   -2.607680   -0.463949
     71          1           0        0.535926   -0.641737    1.040696
     72          1           0        0.237391   -1.664886   -1.686342
     73          1           0        0.390550   -0.002690   -1.906124
     74          1           0       -0.808131   -0.526228   -0.748753
     75          1           0        1.212848   -2.095750    2.485815
     76          1           0        2.661610   -2.914114    2.142954
     77          1           0        0.138080   -4.130471    2.402361
     78          1           0        1.595437   -4.854333    1.857252
     79          1           0        0.477093    5.090855   -1.129099
     80          1           0        0.696082    5.452655    0.602340
     81          1           0        0.212542    3.880611    0.048742
     82          1           0        1.740524    7.278198   -0.037659
     83          1           0        1.809656    7.019204   -1.849293
     84          1           0        2.733202    8.295787   -1.224670
     85          1           0        8.850698    5.040788    0.251905
     86          1           0       10.144729    2.582960   -0.529663
     87          1           0        8.943571    5.731429   -1.681225
     88          1           0        7.825653    4.477484   -2.318611
     89          1           0        9.606361    4.259105   -2.238716
     90          1           0       10.645751    3.936318    1.429765
     91          1           0       10.775266    2.240148    1.580649
     92          1           0        9.377223    2.474570    3.464961
     93          1           0        8.180603    3.386422    2.764495
     94          1           0        9.761062    4.187844    3.189577
     95          1           0        9.361410   -3.783220    0.756896
     96          1           0       10.107346   -2.216492    1.163595
     97          1           0        9.973448   -2.739386   -0.502353
     98          1           0        4.165413   -4.184891    1.280580
     99          1           0        3.405039   -7.567358   -1.512576
    100          1           0        4.297839   -6.553034   -2.545721
    101          1           0        2.634737   -6.063992   -2.097988
    102          1           0       -2.042739   -4.842596   -1.418760
    103          1           0       -1.142815   -3.406164   -1.803038
    104          1           0       -2.826993   -2.018161   -0.426825
    105          1           0       -3.843339   -4.835325   -2.762437
    106          1           0       -4.813616   -3.660206   -3.737226
    107          1           0       -5.499911   -4.488721   -2.332225
    108          1           0       -6.037439   -2.226687   -1.965154
    109          1           0       -4.994409   -1.107451   -1.143890
    110          1           0       -5.393554   -3.204049    0.826114
    111          1           0       -6.764475   -3.378334   -0.295326
    112          1           0       -6.641371   -0.648229    0.310236
    113          1           0       -6.107761   -1.333328    1.857420
    114          1           0       -8.290910   -2.700617    0.672301
    115          1           0       -7.959876   -3.196497    2.670408
    116          1           0       -9.331370   -2.184991    3.086261
    117          1           0       -7.688945   -1.629268    3.400175
    118          1           0       -8.789810   -0.010508   -0.054579
    119          1           0       -9.213060    0.216808    1.585731
    120          1           0      -10.508416   -2.318448    0.697661
    121          1           0      -10.529565   -1.233326   -0.599770
    122          1           0      -11.288007   -0.443660    2.170332
    123          1           0      -12.394147   -1.505128    1.370906
    124          1           0      -12.056531    0.641346   -0.529008
    125          1           0      -12.776718    2.351979    1.467823
    126          1           0      -11.074581    2.293144    0.772291
    127          1           0      -11.611666    1.624710    2.380978
    128          1           0      -14.187543    0.696974    1.504745
    129          1           0      -14.132609   -0.622764    0.376577
    130          1           0      -14.961840    0.330972   -1.288307
    131          1           0      -13.812744    1.685401   -1.289933
    132          1           0      -16.153411    1.760084    0.649524
    133          1           0      -16.505952    1.813663   -1.104311
    134          1           0      -14.489196    3.550218    0.246117
    135          1           0      -17.108828    3.507978    1.037046
    136          1           0      -17.128424    4.788328   -0.220132
    137          1           0      -15.948287    4.859790    1.106096
    138          1           0      -15.211328    3.344299   -2.561612
    139          1           0      -14.245518    4.645598   -1.839475
    140          1           0      -16.043672    4.784124   -2.068786
 ---------------------------------------------------------------------

 SCF Done:  E(RwB97XD) =  -3007.84943071     A.U. after   19 cycles

 Excitation energies and oscillator strengths:

 Excited State   1:      Singlet-A      1.6567 eV  748.37 nm  f=0.4037  <S**2>=0.000
     245 -> 248       -0.18776
     246 -> 247        0.68212
     245 <- 248       -0.11611
 This state for optimization and/or second-order correction.
 Total Energy, E(TD-HF/TD-DFT) =  -3007.78854732
 Copying the excited state density for this state as the 1-particle RhoCI density.

 Excited State   2:      Singlet-A      2.1339 eV  581.02 nm  f=0.1571  <S**2>=0.000
     245 -> 247        0.65214
     246 -> 248        0.25394

 Excited State   3:      Singlet-A      3.1081 eV  398.91 nm  f=0.0090  <S**2>=0.000
     244 -> 247        0.68242

 Excited State   4:      Singlet-A      3.3022 eV  375.46 nm  f=0.0006  <S**2>=0.000
     242 -> 247        0.57667
     242 -> 249       -0.30999
     242 -> 250        0.17632

 Excited State   5:      Singlet-A      3.5032 eV  353.92 nm  f=0.0029  <S**2>=0.000
     241 -> 247        0.51582
     241 -> 248        0.21748
     241 -> 249        0.30086
     241 -> 250        0.26337

 The electronic state is 1-A.
 Alpha  occ. eigenvalues --  -46.94766 -19.30998 -19.28430 -19.25168 -19.24474
 Alpha  occ. eigenvalues --  -19.24370 -19.24035 -14.47070 -14.46777 -14.44676
 Alpha  occ. eigenvalues --  -14.43614 -10.44489 -10.42893 -10.39587 -10.39509
 Alpha  occ. eigenvalues --  -10.36213 -10.35555 -10.35152 -10.35053 -10.34969
 Alpha  occ. eigenvalues --  -10.34455 -10.33784 -10.33749 -10.33649 -10.32935
 Alpha  occ. eigenvalues --  -10.32887 -10.32740 -10.32634 -10.32404 -10.32173
 Alpha  occ. eigenvalues --  -10.32129 -10.32049 -10.31851 -10.31827 -10.31543
 Alpha  occ. eigenvalues --  -10.31483 -10.31342 -10.31181 -10.31141 -10.30840
 Alpha  occ. eigenvalues --  -10.30576 -10.30434 -10.30151 -10.29957 -10.29916
 Alpha  occ. eigenvalues --  -10.29868 -10.29762 -10.29735 -10.29584 -10.29521
 Alpha  occ. eigenvalues --  -10.29481 -10.29376 -10.29234 -10.29208 -10.29161
 Alpha  occ. eigenvalues --  -10.28902 -10.28866 -10.28761 -10.28363 -10.28310
 Alpha  occ. eigenvalues --  -10.28259 -10.28195 -10.28172 -10.27953 -10.27935
 Alpha  occ. eigenvalues --  -10.27641  -3.20800  -1.94409  -1.93930  -1.93776
 Alpha  occ. eigenvalues --   -1.18184  -1.16123  -1.11125  -1.09693  -1.08854
 Alpha  occ. eigenvalues --   -1.08483  -1.08098  -1.06512  -1.05794  -1.04759
 Alpha  occ. eigenvalues --   -0.94481  -0.92689  -0.92042  -0.91751  -0.91014
 Alpha  occ. eigenvalues --   -0.90661  -0.90338  -0.89721  -0.89538  -0.89106
 Alpha  occ. eigenvalues --   -0.88561  -0.87248  -0.86134  -0.85724  -0.85353
 Alpha  occ. eigenvalues --   -0.84503  -0.83877  -0.82934  -0.82620  -0.82126
 Alpha  occ. eigenvalues --   -0.81617  -0.80520  -0.79892  -0.79680  -0.78053
 Alpha  occ. eigenvalues --   -0.77532  -0.77072  -0.76969  -0.76938  -0.76083
 Alpha  occ. eigenvalues --   -0.75476  -0.75026  -0.73764  -0.72883  -0.72277
 Alpha  occ. eigenvalues --   -0.71185  -0.70078  -0.69824  -0.68704  -0.67825
 Alpha  occ. eigenvalues --   -0.67537  -0.66925  -0.66735  -0.66383  -0.65961
 Alpha  occ. eigenvalues --   -0.65700  -0.65320  -0.64228  -0.63173  -0.62768
 Alpha  occ. eigenvalues --   -0.62262  -0.61970  -0.61265  -0.60502  -0.60127
 Alpha  occ. eigenvalues --   -0.59676  -0.58407  -0.58098  -0.57692  -0.57469
 Alpha  occ. eigenvalues --   -0.57238  -0.56725  -0.56630  -0.55806  -0.55601
 Alpha  occ. eigenvalues --   -0.55403  -0.55235  -0.55057  -0.54936  -0.54578
 Alpha  occ. eigenvalues --   -0.54509  -0.54489  -0.54094  -0.53971  -0.53687
 Alpha  occ. eigenvalues --   -0.53284  -0.53158  -0.52962  -0.52939  -0.52468
 Alpha  occ. eigenvalues --   -0.52079  -0.51930  -0.51798  -0.51594  -0.51555
 Alpha  occ. eigenvalues --   -0.51345  -0.51200  -0.51121  -0.50645  -0.50539
 Alpha  occ. eigenvalues --   -0.50428  -0.50147  -0.49959  -0.49811  -0.49747
 Alpha  occ. eigenvalues --   -0.49613  -0.49207  -0.48751  -0.48716  -0.48614
 Alpha  occ. eigenvalues --   -0.48585  -0.48262  -0.48029  -0.47740  -0.47708
 Alpha  occ. eigenvalues --   -0.47618  -0.47126  -0.46969  -0.46784  -0.46657
 Alpha  occ. eigenvalues --   -0.46604  -0.46249  -0.46044  -0.45862  -0.45731
 Alpha  occ. eigenvalues --   -0.45590  -0.45560  -0.45469  -0.45308  -0.45172
 Alpha  occ. eigenvalues --   -0.44811  -0.44694  -0.44637  -0.44152  -0.43859
 Alpha  occ. eigenvalues --   -0.43830  -0.43686  -0.43426  -0.43342  -0.43168
 Alpha  occ. eigenvalues --   -0.42791  -0.42596  -0.42436  -0.42261  -0.42038
 Alpha  occ. eigenvalues --   -0.41854  -0.41642  -0.41406  -0.40975  -0.40649
 Alpha  occ. eigenvalues --   -0.40523  -0.40074  -0.39883  -0.39585  -0.39226
 Alpha  occ. eigenvalues --   -0.39159  -0.38905  -0.38453  -0.38225  -0.38207
 Alpha  occ. eigenvalues --   -0.37427  -0.36823  -0.36780  -0.36289  -0.36031
 Alpha  occ. eigenvalues --   -0.35883  -0.35599  -0.34404  -0.34068  -0.33053
 Alpha  occ. eigenvalues --   -0.32879  -0.32598  -0.31590  -0.31332  -0.26036
 Alpha  occ. eigenvalues --   -0.23570
 Alpha virt. eigenvalues --   -0.07718  -0.00019   0.01842   0.03926   0.05626
 Alpha virt. eigenvalues --    0.06181   0.06800   0.07005   0.08298   0.08991
 Alpha virt. eigenvalues --    0.10738   0.11671   0.11962   0.12355   0.12460

 Mulliken charges:
               1
     1  Mg   0.977915
     2  C   -0.088403
     3  C   -0.077965
     4  C   -0.065320
     5  C   -0.100076
     6  N   -0.335093
     7  C    0.014442
     8  C   -0.115924
     9  C   -0.079051
    10  C    0.083185
    11  C   -0.003801
    12  C    0.007036
    13  C    0.036779
    14  C    0.211900
    15  O   -0.290427
    16  O   -0.371103
    17  N   -0.463879
    18  C    0.151078
    19  C   -0.151207
    20  C   -0.034909
    21  C    0.122799
    22  C    0.066740
    23  C    0.037546
    24  O   -0.249928
    25  C   -0.037070
    26  N   -0.320216
    27  C    0.061557
    28  C   -0.107410
    29  C   -0.019158
    30  C    0.055609
    31  C    0.014957
    32  C   -0.014150
    33  C   -0.056706
    34  N   -0.455220
    35  C    0.133107
    36  C   -0.146589
    37  C   -0.032405
    38  C    0.200567
    39  C    0.081547
    40  C    0.111271
    41  O   -0.237642
    42  C   -0.075889
    43  C    0.323558
    44  O   -0.268903
    45  O   -0.374003
    46  C    0.153864
    47  C    0.257819
    48  C   -0.120836
    49  C   -0.208628
    50  C    0.040043
    51  C   -0.002673
    52  C   -0.009696
    53  C    0.012760
    54  C   -0.203667
    55  C    0.029981
    56  C    0.008832
    57  C   -0.067350
    58  C    0.031282
    59  C   -0.197072
    60  C    0.040318
    61  C   -0.011671
    62  C   -0.006734
    63  C    0.004885
    64  C   -0.248655
    65  C    0.013705
    66  C   -0.007714
    67  H   -0.007396
    68  H    0.022467
    69  H    0.018652
    70  H    0.062437
    71  H    0.036711
    72  H    0.047106
    73  H    0.034019
    74  H    0.038342
    75  H    0.035684
    76  H    0.028545
    77  H    0.055415
    78  H    0.059595
    79  H    0.054548
    80  H    0.047964
    81  H    0.029561
    82  H    0.057050
    83  H    0.051479
    84  H    0.048905
    85  H    0.033312
    86  H    0.017395
    87  H    0.039069
    88  H    0.055579
    89  H    0.030783
    90  H    0.022018
    91  H    0.026063
    92  H    0.033798
    93  H    0.046058
    94  H    0.039879
    95  H    0.064114
    96  H    0.036185
    97  H    0.048227
    98  H    0.079238
    99  H    0.042652
   100  H    0.032881
   101  H    0.062981
   102  H    0.056761
   103  H    0.034891
   104  H    0.023207
   105  H    0.023412
   106  H    0.065111
   107  H    0.033408
   108  H    0.008669
   109  H    0.038382
   110  H    0.032566
   111  H    0.025266
   112  H    0.010772
   113  H    0.018223
   114  H    0.018590
   115  H    0.016857
   116  H    0.030980
   117  H    0.028339
   118  H    0.018183
   119  H    0.021175
   120  H    0.018727
   121  H    0.011965
   122  H    0.000582
   123  H    0.011421
   124  H    0.017776
   125  H    0.009852
   126  H    0.042007
   127  H    0.026890
   128  H    0.009830
   129  H    0.016969
   130  H    0.016734
   131  H    0.021670
   132  H    0.019374
   133  H    0.013094
   134  H    0.022336
   135  H    0.026051
   136  H    0.025359
   137  H    0.025576
   138  H    0.026192
   139  H    0.040758
   140  H    0.032790
 Sum of Mulliken charges =  -0.00000

 Dipole moment (field-independent basis, Debye):
    X=             -3.9807    Y=              2.3099    Z=              2.0131  Tot=              5.0233
 Quadrupole moment (field-independent basis, Debye-Ang):
   XX=           -375.2835   YY=           -441.1555   ZZ=           -398.1383
   XY=             30.6023   XZ=             14.0339   YZ=             -0.6768

 Normal termination of Gaussian 16 at Thu May  5 06:23:46 2022.
