 Gaussian 16, Revision A.03,
 Gaussian 16:  ES64L-G16RevA.03 25-Dec-2016

 --------------------
 #p ZINDO=(nstates=5)
 --------------------

 -----------------------------
 step_651_chromophore_18 ZINDO
 -----------------------------
 Symbolic Z-matrix:
 Charge =  0 Multiplicity = 1

                         Standard orientation:
 ---------------------------------------------------------------------
 Center     Atomic      Atomic             Coordinates (Angstroms)
 Number     Number       Type             X           Y           Z
 ---------------------------------------------------------------------
      1         12           0        5.310145    1.226726    0.165145
      2          6           0        4.576095   -2.252783    0.313043
      3          6           0        1.900744    1.841873   -0.094118
      4          6           0        5.997002    4.439708   -0.171485
      5          6           0        8.766992    0.428940    0.162627
      6          7           0        3.485609   -0.098616    0.237717
      7          6           0        3.472633   -1.424461    0.297081
      8          6           0        2.014801   -1.921212    0.370332
      9          6           0        1.160792   -0.622990    0.148358
     10          6           0        2.238889    0.494389    0.081670
     11          6           0        0.195679   -0.733370   -1.121755
     12          6           0        1.684975   -2.698623    1.709433
     13          6           0        0.889858   -4.058365    1.616719
     14          6           0        0.153363   -4.369419    0.302268
     15          8           0        0.564574   -5.137824   -0.605032
     16          8           0       -1.064813   -3.729155    0.179893
     17          7           0        4.109132    2.854607   -0.021355
     18          6           0        2.764922    2.981232   -0.100333
     19          6           0        2.381511    4.331344   -0.166750
     20          6           0        3.531018    5.099013   -0.276127
     21          6           0        4.604482    4.133231   -0.129544
     22          6           0        0.870196    4.717905   -0.182813
     23          6           0        3.689970    6.514380   -0.670308
     24          8           0        4.711854    7.229101   -0.703064
     25          6           0        2.341423    7.317763   -0.945847
     26          7           0        7.107501    2.277449   -0.033582
     27          6           0        7.118946    3.596256   -0.094005
     28          6           0        8.565572    4.128534   -0.271913
     29          6           0        9.360201    2.899825    0.156572
     30          6           0        8.346852    1.815357    0.055396
     31          6           0        8.728720    4.663803   -1.736071
     32          6           0       10.035580    3.033932    1.473807
     33          6           0        9.268093    3.309763    2.773310
     34          7           0        6.481394   -0.511845    0.108681
     35          6           0        7.847406   -0.670052    0.212079
     36          6           0        8.185855   -2.019505    0.339143
     37          6           0        6.890949   -2.678602    0.400063
     38          6           0        5.880408   -1.738658    0.239730
     39          6           0        9.460536   -2.739290    0.458762
     40          6           0        6.344762   -3.987545    0.501892
     41          8           0        6.984654   -5.075755    0.527564
     42          6           0        4.712016   -3.816386    0.413153
     43          6           0        4.241827   -4.379024   -0.837504
     44          8           0        3.949556   -3.816735   -1.914072
     45          8           0        4.117135   -5.767673   -0.643945
     46          6           0        3.562617   -6.513491   -1.742258
     47          6           0       -1.814627   -3.838365   -1.061049
     48          6           0       -2.953943   -2.847566   -1.122834
     49          6           0       -4.150464   -2.994288   -1.693171
     50          6           0       -4.592607   -4.043445   -2.740826
     51          6           0       -5.283222   -2.157611   -1.181372
     52          6           0       -6.017590   -2.688030    0.096866
     53          6           0       -6.624740   -1.549109    0.921661
     54          6           0       -8.151261   -1.813383    1.289541
     55          6           0       -8.315892   -2.166753    2.689614
     56          6           0       -9.085880   -0.563997    0.835537
     57          6           0      -10.467335   -1.249741    0.488795
     58          6           0      -11.710434   -0.675616    1.192061
     59          6           0      -12.298717    0.585538    0.531844
     60          6           0      -11.858235    1.781497    1.330660
     61          6           0      -13.871099    0.427837    0.496869
     62          6           0      -14.549978    1.147154   -0.693728
     63          6           0      -15.752839    1.994260   -0.336738
     64          6           0      -15.403217    3.467848   -0.341880
     65          6           0      -16.502717    4.193653    0.444923
     66          6           0      -15.208297    4.134885   -1.810792
     67          1           0        0.825162    2.023652   -0.147352
     68          1           0        6.198969    5.510112   -0.259943
     69          1           0        9.816705    0.180156   -0.006720
     70          1           0        1.875136   -2.607680   -0.463949
     71          1           0        0.535926   -0.641737    1.040696
     72          1           0        0.237391   -1.664886   -1.686342
     73          1           0        0.390550   -0.002690   -1.906124
     74          1           0       -0.808131   -0.526228   -0.748753
     75          1           0        1.212848   -2.095750    2.485815
     76          1           0        2.661610   -2.914114    2.142954
     77          1           0        0.138080   -4.130471    2.402361
     78          1           0        1.595437   -4.854333    1.857252
     79          1           0        0.477093    5.090855   -1.129099
     80          1           0        0.696082    5.452655    0.602340
     81          1           0        0.212542    3.880611    0.048742
     82          1           0        1.740524    7.278198   -0.037659
     83          1           0        1.809656    7.019204   -1.849293
     84          1           0        2.733202    8.295787   -1.224670
     85          1           0        8.850698    5.040788    0.251905
     86          1           0       10.144729    2.582960   -0.529663
     87          1           0        8.943571    5.731429   -1.681225
     88          1           0        7.825653    4.477484   -2.318611
     89          1           0        9.606361    4.259105   -2.238716
     90          1           0       10.645751    3.936318    1.429765
     91          1           0       10.775266    2.240148    1.580649
     92          1           0        9.377223    2.474570    3.464961
     93          1           0        8.180603    3.386422    2.764495
     94          1           0        9.761062    4.187844    3.189577
     95          1           0        9.361410   -3.783220    0.756896
     96          1           0       10.107346   -2.216492    1.163595
     97          1           0        9.973448   -2.739386   -0.502353
     98          1           0        4.165413   -4.184891    1.280580
     99          1           0        3.405039   -7.567358   -1.512576
    100          1           0        4.297839   -6.553034   -2.545721
    101          1           0        2.634737   -6.063992   -2.097988
    102          1           0       -2.042739   -4.842596   -1.418760
    103          1           0       -1.142815   -3.406164   -1.803038
    104          1           0       -2.826993   -2.018161   -0.426825
    105          1           0       -3.843339   -4.835325   -2.762437
    106          1           0       -4.813616   -3.660206   -3.737226
    107          1           0       -5.499911   -4.488721   -2.332225
    108          1           0       -6.037439   -2.226687   -1.965154
    109          1           0       -4.994409   -1.107451   -1.143890
    110          1           0       -5.393554   -3.204049    0.826114
    111          1           0       -6.764475   -3.378334   -0.295326
    112          1           0       -6.641371   -0.648229    0.310236
    113          1           0       -6.107761   -1.333328    1.857420
    114          1           0       -8.290910   -2.700617    0.672301
    115          1           0       -7.959876   -3.196497    2.670408
    116          1           0       -9.331370   -2.184991    3.086261
    117          1           0       -7.688945   -1.629268    3.400175
    118          1           0       -8.789810   -0.010508   -0.054579
    119          1           0       -9.213060    0.216808    1.585731
    120          1           0      -10.508416   -2.318448    0.697661
    121          1           0      -10.529565   -1.233326   -0.599770
    122          1           0      -11.288007   -0.443660    2.170332
    123          1           0      -12.394147   -1.505128    1.370906
    124          1           0      -12.056531    0.641346   -0.529008
    125          1           0      -12.776718    2.351979    1.467823
    126          1           0      -11.074581    2.293144    0.772291
    127          1           0      -11.611666    1.624710    2.380978
    128          1           0      -14.187543    0.696974    1.504745
    129          1           0      -14.132609   -0.622764    0.376577
    130          1           0      -14.961840    0.330972   -1.288307
    131          1           0      -13.812744    1.685401   -1.289933
    132          1           0      -16.153411    1.760084    0.649524
    133          1           0      -16.505952    1.813663   -1.104311
    134          1           0      -14.489196    3.550218    0.246117
    135          1           0      -17.108828    3.507978    1.037046
    136          1           0      -17.128424    4.788328   -0.220132
    137          1           0      -15.948287    4.859790    1.106096
    138          1           0      -15.211328    3.344299   -2.561612
    139          1           0      -14.245518    4.645598   -1.839475
    140          1           0      -16.043672    4.784124   -2.068786
 ---------------------------------------------------------------------

 SCF Done:  E(RZINDO/S) =  -474.276875296     A.U. after   20 cycles

 Excitation energies and oscillator strengths:

 Excited State   1:      Singlet-A      1.2504 eV  991.54 nm  f=0.6348  <S**2>=0.000
     175 ->178        -0.19693
     176 ->177         0.66066
 This state for optimization and/or second-order correction.
 Total Energy, E(CIS/TDA) =  -474.230923058
 Copying the excited state density for this state as the 1-particle RhoCI density.

 Excited State   2:      Singlet-A      1.9025 eV  651.70 nm  f=0.1171  <S**2>=0.000
     175 ->177         0.58300
     176 ->178         0.37267

 Excited State   3:      Singlet-A      2.8879 eV  429.33 nm  f=0.0164  <S**2>=0.000
     167 ->179         0.10582
     168 ->179        -0.14148
     169 ->177        -0.10149
     169 ->179         0.10931
     170 ->177         0.35614
     170 ->179        -0.35744
     170 ->180         0.19712
     170 ->186        -0.14639
     173 ->177         0.10758

 Excited State   4:      Singlet-A      2.9192 eV  424.72 nm  f=0.0003  <S**2>=0.000
     168 ->177         0.30393
     168 ->178         0.18654
     168 ->179         0.30096
     168 ->180         0.36714
     168 ->182        -0.14001
     168 ->186         0.18481
     168 ->188         0.12372
     170 ->179        -0.10169

 Excited State   5:      Singlet-A      3.0201 eV  410.53 nm  f=0.4330  <S**2>=0.000
     172 ->177        -0.25139
     173 ->177         0.30895
     175 ->177        -0.22520
     176 ->178         0.32959
     176 ->179         0.35022
     176 ->180         0.10565

 The electronic state is 1-A.
 Alpha  occ. eigenvalues --   -1.86067  -1.83468  -1.81550  -1.73057  -1.70488
 Alpha  occ. eigenvalues --   -1.70229  -1.65943  -1.62098  -1.56587  -1.56209
 Alpha  occ. eigenvalues --   -1.55752  -1.51657  -1.48683  -1.48224  -1.46451
 Alpha  occ. eigenvalues --   -1.42903  -1.41460  -1.39878  -1.38948  -1.38201
 Alpha  occ. eigenvalues --   -1.35340  -1.33566  -1.32683  -1.31676  -1.29390
 Alpha  occ. eigenvalues --   -1.27366  -1.25092  -1.21817  -1.19890  -1.18760
 Alpha  occ. eigenvalues --   -1.17624  -1.15757  -1.15727  -1.15172  -1.14746
 Alpha  occ. eigenvalues --   -1.13550  -1.11889  -1.10746  -1.04816  -1.02986
 Alpha  occ. eigenvalues --   -1.02575  -1.01090  -0.99134  -0.98321  -0.97686
 Alpha  occ. eigenvalues --   -0.95879  -0.94605  -0.94004  -0.93466  -0.92191
 Alpha  occ. eigenvalues --   -0.91254  -0.90315  -0.89566  -0.88208  -0.87308
 Alpha  occ. eigenvalues --   -0.85927  -0.85120  -0.83520  -0.82004  -0.81250
 Alpha  occ. eigenvalues --   -0.79710  -0.77867  -0.77276  -0.76580  -0.75778
 Alpha  occ. eigenvalues --   -0.75220  -0.75093  -0.74704  -0.74394  -0.73522
 Alpha  occ. eigenvalues --   -0.73096  -0.72717  -0.72346  -0.71374  -0.70692
 Alpha  occ. eigenvalues --   -0.70467  -0.69913  -0.68876  -0.68045  -0.67806
 Alpha  occ. eigenvalues --   -0.67432  -0.66820  -0.66235  -0.65869  -0.65484
 Alpha  occ. eigenvalues --   -0.65304  -0.64497  -0.64079  -0.63532  -0.63142
 Alpha  occ. eigenvalues --   -0.62928  -0.62903  -0.62804  -0.62262  -0.62231
 Alpha  occ. eigenvalues --   -0.61912  -0.61075  -0.60832  -0.60480  -0.59697
 Alpha  occ. eigenvalues --   -0.59301  -0.59156  -0.58922  -0.58768  -0.58500
 Alpha  occ. eigenvalues --   -0.57670  -0.57142  -0.57102  -0.56799  -0.56276
 Alpha  occ. eigenvalues --   -0.55636  -0.55486  -0.55214  -0.54959  -0.54934
 Alpha  occ. eigenvalues --   -0.54472  -0.54352  -0.53469  -0.53233  -0.53119
 Alpha  occ. eigenvalues --   -0.52906  -0.52501  -0.51915  -0.51754  -0.51307
 Alpha  occ. eigenvalues --   -0.50702  -0.50518  -0.50309  -0.50163  -0.49968
 Alpha  occ. eigenvalues --   -0.49760  -0.49737  -0.49238  -0.49094  -0.48722
 Alpha  occ. eigenvalues --   -0.48335  -0.48260  -0.48090  -0.48062  -0.47628
 Alpha  occ. eigenvalues --   -0.47383  -0.47196  -0.47152  -0.46698  -0.46547
 Alpha  occ. eigenvalues --   -0.46431  -0.45858  -0.45770  -0.45227  -0.45104
 Alpha  occ. eigenvalues --   -0.44979  -0.44608  -0.44507  -0.44071  -0.43918
 Alpha  occ. eigenvalues --   -0.43865  -0.42943  -0.42357  -0.42339  -0.42038
 Alpha  occ. eigenvalues --   -0.41850  -0.40902  -0.40216  -0.39069  -0.38932
 Alpha  occ. eigenvalues --   -0.38402  -0.36903  -0.35329  -0.35045  -0.34915
 Alpha  occ. eigenvalues --   -0.33881  -0.32713  -0.32134  -0.31672  -0.26493
 Alpha  occ. eigenvalues --   -0.22320
 Alpha virt. eigenvalues --   -0.09119  -0.02159  -0.01051   0.00803   0.01187
 Alpha virt. eigenvalues --    0.02564   0.02889   0.03104   0.04209   0.04953
 Alpha virt. eigenvalues --    0.06411   0.06472   0.07244   0.07524   0.07892

 Mulliken charges:
               1
     1  Mg   0.422761
     2  C   -0.048073
     3  C   -0.076971
     4  C   -0.064382
     5  C   -0.085175
     6  N   -0.281257
     7  C    0.159304
     8  C   -0.006051
     9  C   -0.005725
    10  C    0.117602
    11  C   -0.057650
    12  C   -0.024185
    13  C    0.009508
    14  C    0.468566
    15  O   -0.526008
    16  O   -0.270343
    17  N   -0.314105
    18  C    0.109883
    19  C    0.004971
    20  C   -0.032838
    21  C    0.120749
    22  C   -0.050965
    23  C    0.318849
    24  O   -0.527400
    25  C   -0.046878
    26  N   -0.234691
    27  C    0.133708
    28  C   -0.002012
    29  C    0.020724
    30  C    0.138326
    31  C   -0.053815
    32  C   -0.019013
    33  C   -0.056626
    34  N   -0.343997
    35  C    0.110194
    36  C    0.049226
    37  C   -0.062139
    38  C    0.127703
    39  C   -0.029776
    40  C    0.320086
    41  O   -0.535658
    42  C    0.059882
    43  C    0.493856
    44  O   -0.521284
    45  O   -0.269437
    46  C    0.076977
    47  C    0.105865
    48  C   -0.084569
    49  C   -0.011264
    50  C   -0.044325
    51  C   -0.022137
    52  C   -0.025190
    53  C   -0.047616
    54  C   -0.013222
    55  C   -0.045469
    56  C   -0.043181
    57  C   -0.046448
    58  C   -0.038024
    59  C   -0.009657
    60  C   -0.055433
    61  C   -0.043772
    62  C   -0.037295
    63  C   -0.026671
    64  C   -0.019307
    65  C   -0.062960
    66  C   -0.061702
    67  H    0.028398
    68  H    0.046959
    69  H    0.038896
    70  H    0.047126
    71  H    0.032634
    72  H    0.034801
    73  H    0.019947
    74  H    0.017147
    75  H    0.026992
    76  H    0.017856
    77  H    0.034986
    78  H    0.039319
    79  H    0.031375
    80  H    0.025358
    81  H    0.020130
    82  H    0.043616
    83  H    0.034637
    84  H    0.034546
    85  H    0.034166
    86  H    0.023231
    87  H    0.020911
    88  H    0.032045
    89  H    0.017402
    90  H    0.007388
    91  H    0.018474
    92  H    0.012710
    93  H    0.029324
    94  H    0.023059
    95  H    0.042020
    96  H    0.022979
    97  H    0.033728
    98  H    0.066572
    99  H    0.030269
   100  H    0.034855
   101  H    0.051944
   102  H    0.061955
   103  H    0.039961
   104  H    0.026453
   105  H    0.020289
   106  H    0.039747
   107  H    0.022879
   108  H    0.007163
   109  H    0.026608
   110  H    0.023117
   111  H    0.026261
   112  H    0.015087
   113  H    0.022576
   114  H    0.028383
   115  H    0.007855
   116  H    0.017345
   117  H    0.019983
   118  H    0.019571
   119  H    0.025747
   120  H    0.013148
   121  H    0.009915
   122  H    0.013937
   123  H    0.017943
   124  H    0.026581
   125  H    0.013122
   126  H    0.023371
   127  H    0.024677
   128  H    0.020826
   129  H    0.011841
   130  H    0.008687
   131  H    0.026291
   132  H    0.022872
   133  H    0.014972
   134  H    0.020094
   135  H    0.021910
   136  H    0.020623
   137  H    0.012290
   138  H    0.017065
   139  H    0.022955
   140  H    0.026056
 Sum of Mulliken charges =  -0.00000

 Dipole moment (field-independent basis, Debye):
    X=             -5.1096    Y=              2.7447    Z=              3.7945  Tot=              6.9310
 N-N= 4.294665998432D+03 E-N= 0.000000000000D+00  KE=-9.263723669027D+03
 Leave Link  601 at Thu May  5 06:47:53 2022, MaxMem=  6710886400 cpu:               5.8 elap:               0.3
 (Enter /sw/apps/gaussian-16.0/g16/l9999.exe)
 1\1\GINC-BP1-COMPUTE130\SP\RZINDO CIS\STO-3G\C55H74Mg1N4O6\OF15641\05-
 May-2022\0\\#p ZINDO=(nstates=5)\\step_651_chromophore_18 ZINDO\\0,1\M
 g,0,34.693,49.332,24.259\C,0,34.831,47.552,27.338\C,0,33.17,51.957,25.
 95\C,0,34.383,50.906,21.372\C,0,36.004,46.47,22.623\N,0,34.201,49.7,26
 .43\C,0,34.353,48.843,27.432\C,0,33.931,49.517,28.753\C,0,33.316,50.88
 8,28.299\C,0,33.559,50.886,26.764\C,0,31.795,51.061,28.761\C,0,35.115,
 49.646,29.796\C,0,34.845,49.245,31.298\C,0,33.381,49.116,31.753\O,0,32

 Normal termination of Gaussian 16 at Thu May  5 06:47:53 2022.
