 Gaussian 16, Revision A.03,
 Gaussian 16:  ES64L-G16RevA.03 25-Dec-2016

 ------------------------------
 #p blyp/Def2SVP td=(nstates=5)
 ------------------------------

 ---------------------------------------------------
 step_1101_chromophore_26 TDDFT with blyp functional
 ---------------------------------------------------
 Symbolic Z-matrix:
 Charge =  0 Multiplicity = 1

                         Standard orientation:
 ---------------------------------------------------------------------
 Center     Atomic      Atomic             Coordinates (Angstroms)
 Number     Number       Type             X           Y           Z
 ---------------------------------------------------------------------
      1         12           0       -3.413537    1.314720    0.538139
      2          6           0       -4.663113   -1.889207   -0.227553
      3          6           0       -2.089611    0.111939    3.478208
      4          6           0       -1.911589    4.269874    0.975747
      5          6           0       -4.375625    2.326918   -2.769513
      6          7           0       -3.219705   -0.750622    1.374412
      7          6           0       -3.882375   -1.948197    0.978471
      8          6           0       -3.678725   -3.055856    2.057619
      9          6           0       -3.131970   -2.226250    3.320387
     10          6           0       -2.694515   -0.870698    2.644049
     11          6           0       -4.035526   -2.098528    4.639769
     12          6           0       -2.819045   -4.158924    1.397575
     13          6           0       -1.784776   -3.816958    0.299025
     14          6           0       -0.437120   -4.509547    0.295609
     15          8           0       -0.301637   -5.658158   -0.026931
     16          8           0        0.666363   -3.615485    0.596471
     17          7           0       -2.287200    2.148843    2.079545
     18          6           0       -1.876853    1.448978    3.162462
     19          6           0       -0.992522    2.336782    3.922426
     20          6           0       -0.880518    3.602254    3.263063
     21          6           0       -1.725331    3.329073    2.045673
     22          6           0       -0.277747    2.046035    5.224481
     23          6           0       -0.237851    4.895047    3.805468
     24          8           0        0.393430    4.964775    4.895026
     25          6           0       -0.296666    6.311556    3.071778
     26          7           0       -3.061567    2.938115   -0.790785
     27          6           0       -2.561629    4.101993   -0.263584
     28          6           0       -2.580768    5.242656   -1.279515
     29          6           0       -3.448237    4.623167   -2.383506
     30          6           0       -3.603483    3.215931   -1.981154
     31          6           0       -3.171844    6.581528   -0.793263
     32          6           0       -2.907709    4.774992   -3.860541
     33          6           0       -3.755728    5.726892   -4.811758
     34          7           0       -4.423510    0.511270   -1.153202
     35          6           0       -4.792364    1.051976   -2.371826
     36          6           0       -5.660495    0.104419   -3.099047
     37          6           0       -5.626223   -0.995785   -2.194058
     38          6           0       -4.844359   -0.802863   -1.125429
     39          6           0       -6.420423    0.357254   -4.341758
     40          6           0       -6.139644   -2.366670   -2.047953
     41          8           0       -6.951389   -3.005684   -2.792401
     42          6           0       -5.527437   -2.955444   -0.773030
     43          6           0       -6.707416   -3.560958    0.002421
     44          8           0       -7.039686   -4.736991    0.022432
     45          8           0       -7.369978   -2.517453    0.599721
     46          6           0       -8.545113   -2.932214    1.434196
     47          6           0        2.060331   -4.218014    0.665134
     48          6           0        3.006978   -3.486036   -0.361281
     49          6           0        2.863508   -3.563722   -1.709922
     50          6           0        1.923023   -4.401044   -2.576377
     51          6           0        3.864799   -2.758267   -2.519063
     52          6           0        3.468345   -1.238164   -2.778459
     53          6           0        4.822330   -0.566923   -3.281014
     54          6           0        5.279895    0.423918   -2.107665
     55          6           0        5.154071    1.798101   -2.601963
     56          6           0        6.715606    0.099527   -1.554277
     57          6           0        6.998139    0.541906   -0.100647
     58          6           0        7.125138   -0.682170    0.875716
     59          6           0        8.448843   -0.601952    1.696157
     60          6           0        8.313479   -0.996012    3.182932
     61          6           0        9.593692   -1.459475    1.067518
     62          6           0       10.874256   -0.678819    0.808656
     63          6           0       11.509951   -0.680040   -0.624789
     64          6           0       12.185031    0.673767   -0.952409
     65          6           0       12.145379    0.818333   -2.481169
     66          6           0       13.617462    0.790113   -0.345315
     67          1           0       -1.746523   -0.241498    4.453127
     68          1           0       -1.490281    5.275475    1.042095
     69          1           0       -4.747824    2.564131   -3.768777
     70          1           0       -4.626506   -3.525104    2.320738
     71          1           0       -2.272222   -2.782190    3.695416
     72          1           0       -4.866530   -2.792514    4.769407
     73          1           0       -4.295166   -1.047951    4.773279
     74          1           0       -3.348333   -2.240882    5.473231
     75          1           0       -3.494365   -4.974897    1.140436
     76          1           0       -2.192064   -4.647142    2.144301
     77          1           0       -1.478661   -2.783242    0.463689
     78          1           0       -2.177140   -3.990530   -0.702621
     79          1           0        0.805898    1.953030    5.146121
     80          1           0       -0.723797    1.110006    5.561025
     81          1           0       -0.393273    2.929046    5.852956
     82          1           0       -1.314352    6.572700    2.781610
     83          1           0        0.443005    6.450682    2.282887
     84          1           0        0.017813    7.062911    3.795965
     85          1           0       -1.607011    5.498009   -1.697347
     86          1           0       -4.445915    5.059866   -2.338005
     87          1           0       -3.614095    6.281604    0.157082
     88          1           0       -3.978324    6.855426   -1.472779
     89          1           0       -2.341662    7.274614   -0.663285
     90          1           0       -2.852185    3.788876   -4.322501
     91          1           0       -1.879597    5.131561   -3.921917
     92          1           0       -4.537242    6.319688   -4.336383
     93          1           0       -4.292061    5.040003   -5.466125
     94          1           0       -3.136468    6.398798   -5.407692
     95          1           0       -6.950732   -0.567120   -4.570417
     96          1           0       -5.754034    0.498165   -5.192192
     97          1           0       -7.214496    1.097119   -4.240560
     98          1           0       -4.799551   -3.701149   -1.093928
     99          1           0       -8.588895   -2.241180    2.275768
    100          1           0       -8.520882   -3.964731    1.783898
    101          1           0       -9.494197   -2.774353    0.922337
    102          1           0        1.994554   -5.276278    0.412350
    103          1           0        2.451954   -4.030874    1.665246
    104          1           0        3.691892   -2.763430    0.082267
    105          1           0        1.255459   -4.897507   -1.872761
    106          1           0        2.431936   -5.165629   -3.163673
    107          1           0        1.321278   -3.786823   -3.247568
    108          1           0        3.839358   -3.291716   -3.469159
    109          1           0        4.888137   -2.977696   -2.212740
    110          1           0        2.944815   -0.743575   -1.959519
    111          1           0        2.850827   -1.314879   -3.673179
    112          1           0        4.614848   -0.012217   -4.195781
    113          1           0        5.590483   -1.320499   -3.454421
    114          1           0        4.588036    0.307830   -1.273726
    115          1           0        4.301860    2.331295   -2.181503
    116          1           0        5.170973    1.826592   -3.690784
    117          1           0        5.878588    2.516748   -2.217760
    118          1           0        7.431660    0.621755   -2.189053
    119          1           0        6.761572   -0.988550   -1.596169
    120          1           0        6.184676    1.183696    0.236869
    121          1           0        7.875772    1.186097   -0.051858
    122          1           0        7.092414   -1.604809    0.297567
    123          1           0        6.293585   -0.690323    1.580668
    124          1           0        8.791760    0.429705    1.777927
    125          1           0        7.577309   -1.797811    3.245364
    126          1           0        7.926535   -0.220417    3.845143
    127          1           0        9.249499   -1.382369    3.587539
    128          1           0        9.308905   -1.834166    0.084401
    129          1           0        9.810982   -2.333068    1.682544
    130          1           0       11.526945   -1.184296    1.520695
    131          1           0       10.792154    0.382472    1.043653
    132          1           0       10.757814   -0.914643   -1.377751
    133          1           0       12.226806   -1.499423   -0.669072
    134          1           0       11.575006    1.477646   -0.540325
    135          1           0       11.710106   -0.036142   -2.998528
    136          1           0       13.125703    1.020750   -2.911443
    137          1           0       11.531102    1.713872   -2.582020
    138          1           0       13.638521    1.579357    0.407290
    139          1           0       14.383926    1.068314   -1.067654
    140          1           0       13.933937   -0.141286    0.123853
 ---------------------------------------------------------------------

 SCF Done:  E(RB-LYP) =  -3007.34403428     A.U. after   24 cycles

 Excitation energies and oscillator strengths:

 Excited State   1:      Singlet-A      1.7245 eV  718.98 nm  f=0.0348  <S**2>=0.000
     244 -> 247        0.57053
     245 -> 247       -0.31209
     246 -> 247       -0.26918
 This state for optimization and/or second-order correction.
 Total Energy, E(TD-HF/TD-DFT) =  -3007.28066164
 Copying the excited state density for this state as the 1-particle RhoCI density.

 Excited State   2:      Singlet-A      1.7837 eV  695.08 nm  f=0.2499  <S**2>=0.000
     244 -> 247        0.24448
     245 -> 247       -0.12065
     245 -> 248        0.16109
     246 -> 247        0.63093
     246 <- 247       -0.13938

 Excited State   3:      Singlet-A      1.8997 eV  652.65 nm  f=0.0021  <S**2>=0.000
     243 -> 247        0.70117

 Excited State   4:      Singlet-A      1.9809 eV  625.90 nm  f=0.0624  <S**2>=0.000
     241 -> 247        0.14516
     244 -> 247        0.31737
     245 -> 247        0.55288
     246 -> 248       -0.23001
     246 -> 249        0.10469

 Excited State   5:      Singlet-A      2.1511 eV  576.38 nm  f=0.0005  <S**2>=0.000
     242 -> 247        0.70666

 The electronic state is 1-A.
 Alpha  occ. eigenvalues --  -46.28343 -18.83010 -18.80695 -18.77303 -18.77215
 Alpha  occ. eigenvalues --  -18.76297 -18.75500 -14.04540 -14.03722 -14.02515
 Alpha  occ. eigenvalues --  -14.00520 -10.04657 -10.03900 -10.01460  -9.99591
 Alpha  occ. eigenvalues --   -9.98237  -9.98022  -9.97677  -9.97489  -9.97168
 Alpha  occ. eigenvalues --   -9.96966  -9.96716  -9.96388  -9.95595  -9.95490
 Alpha  occ. eigenvalues --   -9.95322  -9.94704  -9.94429  -9.94212  -9.94173
 Alpha  occ. eigenvalues --   -9.94045  -9.93972  -9.93937  -9.93790  -9.93735
 Alpha  occ. eigenvalues --   -9.93681  -9.93617  -9.93562  -9.93522  -9.93293
 Alpha  occ. eigenvalues --   -9.92902  -9.92795  -9.92757  -9.92610  -9.92571
 Alpha  occ. eigenvalues --   -9.92522  -9.92106  -9.91841  -9.91837  -9.91816
 Alpha  occ. eigenvalues --   -9.91725  -9.91547  -9.91450  -9.91382  -9.91370
 Alpha  occ. eigenvalues --   -9.91182  -9.91178  -9.91092  -9.90831  -9.90831
 Alpha  occ. eigenvalues --   -9.90713  -9.90518  -9.90443  -9.90372  -9.90353
 Alpha  occ. eigenvalues --   -9.90138  -2.92852  -1.73264  -1.72751  -1.72558
 Alpha  occ. eigenvalues --   -0.97642  -0.95963  -0.90154  -0.89952  -0.88754
 Alpha  occ. eigenvalues --   -0.88580  -0.88134  -0.87327  -0.85585  -0.84384
 Alpha  occ. eigenvalues --   -0.76571  -0.73024  -0.72992  -0.72802  -0.72471
 Alpha  occ. eigenvalues --   -0.72359  -0.71569  -0.71233  -0.70612  -0.70086
 Alpha  occ. eigenvalues --   -0.69727  -0.68933  -0.67780  -0.67481  -0.67158
 Alpha  occ. eigenvalues --   -0.66055  -0.65662  -0.65212  -0.64502  -0.64218
 Alpha  occ. eigenvalues --   -0.63878  -0.62826  -0.62626  -0.61805  -0.61204
 Alpha  occ. eigenvalues --   -0.60310  -0.60086  -0.59689  -0.59109  -0.58734
 Alpha  occ. eigenvalues --   -0.58334  -0.57705  -0.57060  -0.55828  -0.55076
 Alpha  occ. eigenvalues --   -0.53874  -0.53616  -0.53424  -0.52148  -0.51840
 Alpha  occ. eigenvalues --   -0.51746  -0.51059  -0.50870  -0.50823  -0.49654
 Alpha  occ. eigenvalues --   -0.49390  -0.48978  -0.48773  -0.48044  -0.47021
 Alpha  occ. eigenvalues --   -0.46496  -0.45816  -0.45705  -0.45089  -0.44529
 Alpha  occ. eigenvalues --   -0.44143  -0.43651  -0.43428  -0.43216  -0.42840
 Alpha  occ. eigenvalues --   -0.42258  -0.41662  -0.41328  -0.41292  -0.40706
 Alpha  occ. eigenvalues --   -0.40641  -0.40279  -0.40211  -0.40021  -0.39797
 Alpha  occ. eigenvalues --   -0.39606  -0.39509  -0.39397  -0.39000  -0.38893
 Alpha  occ. eigenvalues --   -0.38727  -0.38464  -0.38316  -0.38289  -0.38207
 Alpha  occ. eigenvalues --   -0.38110  -0.37948  -0.37677  -0.37546  -0.37454
 Alpha  occ. eigenvalues --   -0.37177  -0.36992  -0.36895  -0.36657  -0.36474
 Alpha  occ. eigenvalues --   -0.36366  -0.36297  -0.36149  -0.35925  -0.35667
 Alpha  occ. eigenvalues --   -0.35590  -0.35489  -0.35247  -0.35032  -0.34883
 Alpha  occ. eigenvalues --   -0.34768  -0.34479  -0.34431  -0.34310  -0.33972
 Alpha  occ. eigenvalues --   -0.33732  -0.33673  -0.33523  -0.33363  -0.33082
 Alpha  occ. eigenvalues --   -0.33006  -0.32624  -0.32600  -0.32543  -0.32375
 Alpha  occ. eigenvalues --   -0.32186  -0.31987  -0.31823  -0.31713  -0.31270
 Alpha  occ. eigenvalues --   -0.31122  -0.31077  -0.30892  -0.30848  -0.30663
 Alpha  occ. eigenvalues --   -0.30646  -0.30459  -0.30299  -0.30175  -0.29891
 Alpha  occ. eigenvalues --   -0.29773  -0.29409  -0.29331  -0.29176  -0.29098
 Alpha  occ. eigenvalues --   -0.29060  -0.28616  -0.28381  -0.28107  -0.27867
 Alpha  occ. eigenvalues --   -0.27473  -0.27003  -0.26945  -0.26690  -0.26678
 Alpha  occ. eigenvalues --   -0.26512  -0.26200  -0.25831  -0.25565  -0.25415
 Alpha  occ. eigenvalues --   -0.24636  -0.24512  -0.24348  -0.24025  -0.23893
 Alpha  occ. eigenvalues --   -0.23388  -0.22791  -0.22104  -0.21916  -0.21413
 Alpha  occ. eigenvalues --   -0.20097  -0.20012  -0.19006  -0.18474  -0.17820
 Alpha  occ. eigenvalues --   -0.16292
 Alpha virt. eigenvalues --   -0.12109  -0.07768  -0.06992  -0.05544  -0.03530
 Alpha virt. eigenvalues --   -0.03214  -0.02813  -0.02484  -0.02357  -0.00907
 Alpha virt. eigenvalues --    0.00166   0.01315   0.02077   0.02336   0.02673

 Mulliken charges:
               1
     1  Mg   0.693555
     2  C    0.015142
     3  C   -0.083997
     4  C   -0.039155
     5  C   -0.084796
     6  N   -0.245735
     7  C   -0.109704
     8  C    0.081036
     9  C   -0.009193
    10  C    0.044687
    11  C    0.112921
    12  C    0.092699
    13  C    0.141043
    14  C    0.079690
    15  O   -0.169618
    16  O   -0.328423
    17  N   -0.231152
    18  C    0.165625
    19  C   -0.172345
    20  C    0.045775
    21  C    0.099315
    22  C    0.186554
    23  C   -0.040827
    24  O   -0.198821
    25  C    0.106673
    26  N   -0.199798
    27  C    0.006771
    28  C   -0.020048
    29  C    0.066675
    30  C    0.029937
    31  C    0.140956
    32  C    0.081795
    33  C    0.038377
    34  N   -0.268891
    35  C    0.064998
    36  C   -0.172654
    37  C    0.126789
    38  C    0.093331
    39  C    0.175816
    40  C   -0.101970
    41  O   -0.178268
    42  C    0.101445
    43  C    0.134647
    44  O   -0.158891
    45  O   -0.287812
    46  C    0.205764
    47  C    0.297802
    48  C   -0.097610
    49  C   -0.142633
    50  C    0.141022
    51  C    0.078886
    52  C    0.090976
    53  C    0.102509
    54  C   -0.087559
    55  C    0.134441
    56  C    0.098002
    57  C    0.074093
    58  C    0.119957
    59  C   -0.085262
    60  C    0.091191
    61  C    0.118900
    62  C    0.051930
    63  C    0.080075
    64  C   -0.116146
    65  C    0.115123
    66  C    0.112026
    67  H   -0.048668
    68  H   -0.082350
    69  H   -0.065694
    70  H   -0.029180
    71  H   -0.025836
    72  H    0.010253
    73  H   -0.004523
    74  H   -0.011770
    75  H    0.001350
    76  H   -0.026715
    77  H    0.007940
    78  H    0.013479
    79  H    0.006214
    80  H   -0.026885
    81  H    0.014904
    82  H    0.012750
    83  H    0.015702
    84  H   -0.013352
    85  H   -0.016372
    86  H   -0.023174
    87  H   -0.013657
    88  H   -0.003936
    89  H    0.003656
    90  H   -0.014679
    91  H   -0.025407
    92  H   -0.006354
    93  H   -0.006397
    94  H   -0.001379
    95  H   -0.003521
    96  H    0.001985
    97  H    0.009980
    98  H    0.004812
    99  H    0.008910
   100  H    0.031048
   101  H    0.021177
   102  H    0.011455
   103  H   -0.010510
   104  H   -0.030271
   105  H   -0.009004
   106  H    0.007793
   107  H    0.001555
   108  H   -0.051011
   109  H   -0.017139
   110  H    0.000649
   111  H   -0.033072
   112  H   -0.031461
   113  H   -0.022951
   114  H   -0.035726
   115  H   -0.032150
   116  H   -0.013647
   117  H   -0.041403
   118  H   -0.033511
   119  H   -0.029912
   120  H   -0.036544
   121  H   -0.027894
   122  H   -0.023396
   123  H   -0.039518
   124  H   -0.027820
   125  H   -0.027334
   126  H   -0.018578
   127  H   -0.016919
   128  H   -0.046843
   129  H   -0.036312
   130  H   -0.033675
   131  H   -0.027848
   132  H   -0.028913
   133  H   -0.031400
   134  H   -0.027714
   135  H   -0.009416
   136  H   -0.024052
   137  H   -0.016925
   138  H   -0.017369
   139  H   -0.019865
   140  H   -0.013304
 Sum of Mulliken charges =  -0.00000

 Dipole moment (field-independent basis, Debye):
    X=              0.0691    Y=              5.2186    Z=              0.3899  Tot=              5.2336
 Quadrupole moment (field-independent basis, Debye-Ang):
   XX=           -407.7188   YY=           -425.1431   ZZ=           -406.7908
   XY=            -37.2428   XZ=            -29.1149   YZ=            -39.5791

 Normal termination of Gaussian 16 at Wed May  4 00:29:05 2022.
