 Gaussian 16, Revision A.03,
 Gaussian 16:  ES64L-G16RevA.03 25-Dec-2016

 -----------------------------------
 #p cam-b3lyp/Def2SVP td=(nstates=5)
 -----------------------------------

 --------------------------------------------------------
 step_1101_chromophore_26 TDDFT with cam-b3lyp functional
 --------------------------------------------------------
 Symbolic Z-matrix:
 Charge =  0 Multiplicity = 1

                         Standard orientation:
 ---------------------------------------------------------------------
 Center     Atomic      Atomic             Coordinates (Angstroms)
 Number     Number       Type             X           Y           Z
 ---------------------------------------------------------------------
      1         12           0       -3.413537    1.314720    0.538139
      2          6           0       -4.663113   -1.889207   -0.227553
      3          6           0       -2.089611    0.111939    3.478208
      4          6           0       -1.911589    4.269874    0.975747
      5          6           0       -4.375625    2.326918   -2.769513
      6          7           0       -3.219705   -0.750622    1.374412
      7          6           0       -3.882375   -1.948197    0.978471
      8          6           0       -3.678725   -3.055856    2.057619
      9          6           0       -3.131970   -2.226250    3.320387
     10          6           0       -2.694515   -0.870698    2.644049
     11          6           0       -4.035526   -2.098528    4.639769
     12          6           0       -2.819045   -4.158924    1.397575
     13          6           0       -1.784776   -3.816958    0.299025
     14          6           0       -0.437120   -4.509547    0.295609
     15          8           0       -0.301637   -5.658158   -0.026931
     16          8           0        0.666363   -3.615485    0.596471
     17          7           0       -2.287200    2.148843    2.079545
     18          6           0       -1.876853    1.448978    3.162462
     19          6           0       -0.992522    2.336782    3.922426
     20          6           0       -0.880518    3.602254    3.263063
     21          6           0       -1.725331    3.329073    2.045673
     22          6           0       -0.277747    2.046035    5.224481
     23          6           0       -0.237851    4.895047    3.805468
     24          8           0        0.393430    4.964775    4.895026
     25          6           0       -0.296666    6.311556    3.071778
     26          7           0       -3.061567    2.938115   -0.790785
     27          6           0       -2.561629    4.101993   -0.263584
     28          6           0       -2.580768    5.242656   -1.279515
     29          6           0       -3.448237    4.623167   -2.383506
     30          6           0       -3.603483    3.215931   -1.981154
     31          6           0       -3.171844    6.581528   -0.793263
     32          6           0       -2.907709    4.774992   -3.860541
     33          6           0       -3.755728    5.726892   -4.811758
     34          7           0       -4.423510    0.511270   -1.153202
     35          6           0       -4.792364    1.051976   -2.371826
     36          6           0       -5.660495    0.104419   -3.099047
     37          6           0       -5.626223   -0.995785   -2.194058
     38          6           0       -4.844359   -0.802863   -1.125429
     39          6           0       -6.420423    0.357254   -4.341758
     40          6           0       -6.139644   -2.366670   -2.047953
     41          8           0       -6.951389   -3.005684   -2.792401
     42          6           0       -5.527437   -2.955444   -0.773030
     43          6           0       -6.707416   -3.560958    0.002421
     44          8           0       -7.039686   -4.736991    0.022432
     45          8           0       -7.369978   -2.517453    0.599721
     46          6           0       -8.545113   -2.932214    1.434196
     47          6           0        2.060331   -4.218014    0.665134
     48          6           0        3.006978   -3.486036   -0.361281
     49          6           0        2.863508   -3.563722   -1.709922
     50          6           0        1.923023   -4.401044   -2.576377
     51          6           0        3.864799   -2.758267   -2.519063
     52          6           0        3.468345   -1.238164   -2.778459
     53          6           0        4.822330   -0.566923   -3.281014
     54          6           0        5.279895    0.423918   -2.107665
     55          6           0        5.154071    1.798101   -2.601963
     56          6           0        6.715606    0.099527   -1.554277
     57          6           0        6.998139    0.541906   -0.100647
     58          6           0        7.125138   -0.682170    0.875716
     59          6           0        8.448843   -0.601952    1.696157
     60          6           0        8.313479   -0.996012    3.182932
     61          6           0        9.593692   -1.459475    1.067518
     62          6           0       10.874256   -0.678819    0.808656
     63          6           0       11.509951   -0.680040   -0.624789
     64          6           0       12.185031    0.673767   -0.952409
     65          6           0       12.145379    0.818333   -2.481169
     66          6           0       13.617462    0.790113   -0.345315
     67          1           0       -1.746523   -0.241498    4.453127
     68          1           0       -1.490281    5.275475    1.042095
     69          1           0       -4.747824    2.564131   -3.768777
     70          1           0       -4.626506   -3.525104    2.320738
     71          1           0       -2.272222   -2.782190    3.695416
     72          1           0       -4.866530   -2.792514    4.769407
     73          1           0       -4.295166   -1.047951    4.773279
     74          1           0       -3.348333   -2.240882    5.473231
     75          1           0       -3.494365   -4.974897    1.140436
     76          1           0       -2.192064   -4.647142    2.144301
     77          1           0       -1.478661   -2.783242    0.463689
     78          1           0       -2.177140   -3.990530   -0.702621
     79          1           0        0.805898    1.953030    5.146121
     80          1           0       -0.723797    1.110006    5.561025
     81          1           0       -0.393273    2.929046    5.852956
     82          1           0       -1.314352    6.572700    2.781610
     83          1           0        0.443005    6.450682    2.282887
     84          1           0        0.017813    7.062911    3.795965
     85          1           0       -1.607011    5.498009   -1.697347
     86          1           0       -4.445915    5.059866   -2.338005
     87          1           0       -3.614095    6.281604    0.157082
     88          1           0       -3.978324    6.855426   -1.472779
     89          1           0       -2.341662    7.274614   -0.663285
     90          1           0       -2.852185    3.788876   -4.322501
     91          1           0       -1.879597    5.131561   -3.921917
     92          1           0       -4.537242    6.319688   -4.336383
     93          1           0       -4.292061    5.040003   -5.466125
     94          1           0       -3.136468    6.398798   -5.407692
     95          1           0       -6.950732   -0.567120   -4.570417
     96          1           0       -5.754034    0.498165   -5.192192
     97          1           0       -7.214496    1.097119   -4.240560
     98          1           0       -4.799551   -3.701149   -1.093928
     99          1           0       -8.588895   -2.241180    2.275768
    100          1           0       -8.520882   -3.964731    1.783898
    101          1           0       -9.494197   -2.774353    0.922337
    102          1           0        1.994554   -5.276278    0.412350
    103          1           0        2.451954   -4.030874    1.665246
    104          1           0        3.691892   -2.763430    0.082267
    105          1           0        1.255459   -4.897507   -1.872761
    106          1           0        2.431936   -5.165629   -3.163673
    107          1           0        1.321278   -3.786823   -3.247568
    108          1           0        3.839358   -3.291716   -3.469159
    109          1           0        4.888137   -2.977696   -2.212740
    110          1           0        2.944815   -0.743575   -1.959519
    111          1           0        2.850827   -1.314879   -3.673179
    112          1           0        4.614848   -0.012217   -4.195781
    113          1           0        5.590483   -1.320499   -3.454421
    114          1           0        4.588036    0.307830   -1.273726
    115          1           0        4.301860    2.331295   -2.181503
    116          1           0        5.170973    1.826592   -3.690784
    117          1           0        5.878588    2.516748   -2.217760
    118          1           0        7.431660    0.621755   -2.189053
    119          1           0        6.761572   -0.988550   -1.596169
    120          1           0        6.184676    1.183696    0.236869
    121          1           0        7.875772    1.186097   -0.051858
    122          1           0        7.092414   -1.604809    0.297567
    123          1           0        6.293585   -0.690323    1.580668
    124          1           0        8.791760    0.429705    1.777927
    125          1           0        7.577309   -1.797811    3.245364
    126          1           0        7.926535   -0.220417    3.845143
    127          1           0        9.249499   -1.382369    3.587539
    128          1           0        9.308905   -1.834166    0.084401
    129          1           0        9.810982   -2.333068    1.682544
    130          1           0       11.526945   -1.184296    1.520695
    131          1           0       10.792154    0.382472    1.043653
    132          1           0       10.757814   -0.914643   -1.377751
    133          1           0       12.226806   -1.499423   -0.669072
    134          1           0       11.575006    1.477646   -0.540325
    135          1           0       11.710106   -0.036142   -2.998528
    136          1           0       13.125703    1.020750   -2.911443
    137          1           0       11.531102    1.713872   -2.582020
    138          1           0       13.638521    1.579357    0.407290
    139          1           0       14.383926    1.068314   -1.067654
    140          1           0       13.933937   -0.141286    0.123853
 ---------------------------------------------------------------------

 SCF Done:  E(RCAM-B3LYP) =  -3007.11769892     A.U. after   17 cycles

 Excitation energies and oscillator strengths:

 Excited State   1:      Singlet-A      1.6872 eV  734.84 nm  f=0.3596  <S**2>=0.000
     245 -> 248        0.17749
     246 -> 247        0.68424
     245 <- 248        0.10686
 This state for optimization and/or second-order correction.
 Total Energy, E(TD-HF/TD-DFT) =  -3007.05569453
 Copying the excited state density for this state as the 1-particle RhoCI density.

 Excited State   2:      Singlet-A      2.2143 eV  559.93 nm  f=0.0759  <S**2>=0.000
     245 -> 247        0.62192
     246 -> 248       -0.31685

 Excited State   3:      Singlet-A      3.1633 eV  391.95 nm  f=0.0071  <S**2>=0.000
     242 -> 247       -0.10036
     244 -> 247        0.64928
     246 -> 248        0.19713

 Excited State   4:      Singlet-A      3.3459 eV  370.56 nm  f=0.0016  <S**2>=0.000
     242 -> 247        0.54490
     242 -> 249       -0.27040
     242 -> 250       -0.27051
     244 -> 247        0.13984

 Excited State   5:      Singlet-A      3.4816 eV  356.11 nm  f=0.4923  <S**2>=0.000
     239 -> 247        0.10157
     239 -> 249        0.14250
     241 -> 247        0.30921
     241 -> 249        0.11320
     244 -> 247       -0.13692
     245 -> 247        0.26067
     246 -> 248        0.49706

 The electronic state is 1-A.
 Alpha  occ. eigenvalues --  -46.89941 -19.25881 -19.23480 -19.20340 -19.20257
 Alpha  occ. eigenvalues --  -19.19672 -19.18658 -14.43707 -14.42452 -14.41143
 Alpha  occ. eigenvalues --  -14.38751 -10.40093 -10.39313 -10.36987 -10.34918
 Alpha  occ. eigenvalues --  -10.32542 -10.32357 -10.32220 -10.31937 -10.31674
 Alpha  occ. eigenvalues --  -10.31614 -10.31003 -10.30905 -10.29726 -10.29591
 Alpha  occ. eigenvalues --  -10.29515 -10.29152 -10.29132 -10.28494 -10.28485
 Alpha  occ. eigenvalues --  -10.28482 -10.28166 -10.28100 -10.27879 -10.27711
 Alpha  occ. eigenvalues --  -10.27646 -10.27493 -10.27406 -10.27362 -10.27270
 Alpha  occ. eigenvalues --  -10.26861 -10.26800 -10.26723 -10.26543 -10.26200
 Alpha  occ. eigenvalues --  -10.26130 -10.25817 -10.25742 -10.25602 -10.25534
 Alpha  occ. eigenvalues --  -10.25424 -10.25273 -10.25177 -10.25131 -10.25057
 Alpha  occ. eigenvalues --  -10.25040 -10.24861 -10.24741 -10.24497 -10.24486
 Alpha  occ. eigenvalues --  -10.24302 -10.24167 -10.24044 -10.24000 -10.23933
 Alpha  occ. eigenvalues --  -10.23643  -3.18348  -1.93239  -1.92815  -1.92642
 Alpha  occ. eigenvalues --   -1.16105  -1.14447  -1.08618  -1.07832  -1.06997
 Alpha  occ. eigenvalues --   -1.06297  -1.06006  -1.05003  -1.03113  -1.01972
 Alpha  occ. eigenvalues --   -0.93701  -0.89798  -0.89685  -0.89576  -0.89241
 Alpha  occ. eigenvalues --   -0.89105  -0.88231  -0.87836  -0.87177  -0.86849
 Alpha  occ. eigenvalues --   -0.86112  -0.85313  -0.83910  -0.83673  -0.83317
 Alpha  occ. eigenvalues --   -0.82039  -0.81632  -0.80930  -0.80538  -0.80247
 Alpha  occ. eigenvalues --   -0.79614  -0.78426  -0.78157  -0.77521  -0.76705
 Alpha  occ. eigenvalues --   -0.75635  -0.75446  -0.74945  -0.74372  -0.73974
 Alpha  occ. eigenvalues --   -0.73335  -0.72695  -0.71983  -0.70633  -0.69637
 Alpha  occ. eigenvalues --   -0.68533  -0.68144  -0.68035  -0.66191  -0.66147
 Alpha  occ. eigenvalues --   -0.65690  -0.65169  -0.65025  -0.64964  -0.63688
 Alpha  occ. eigenvalues --   -0.63072  -0.62893  -0.62708  -0.61678  -0.60682
 Alpha  occ. eigenvalues --   -0.59980  -0.59326  -0.59219  -0.58447  -0.57949
 Alpha  occ. eigenvalues --   -0.57693  -0.57017  -0.56623  -0.56330  -0.55896
 Alpha  occ. eigenvalues --   -0.55373  -0.54752  -0.54078  -0.54029  -0.53960
 Alpha  occ. eigenvalues --   -0.53473  -0.53346  -0.53056  -0.52990  -0.52415
 Alpha  occ. eigenvalues --   -0.52230  -0.52058  -0.51977  -0.51672  -0.51512
 Alpha  occ. eigenvalues --   -0.51227  -0.51028  -0.50745  -0.50610  -0.50424
 Alpha  occ. eigenvalues --   -0.50352  -0.50308  -0.50069  -0.49777  -0.49704
 Alpha  occ. eigenvalues --   -0.49384  -0.49260  -0.49048  -0.48962  -0.48783
 Alpha  occ. eigenvalues --   -0.48491  -0.48470  -0.48303  -0.48233  -0.47974
 Alpha  occ. eigenvalues --   -0.47744  -0.47574  -0.47435  -0.47149  -0.46910
 Alpha  occ. eigenvalues --   -0.46692  -0.46453  -0.46280  -0.46131  -0.45797
 Alpha  occ. eigenvalues --   -0.45525  -0.45431  -0.45222  -0.45069  -0.44780
 Alpha  occ. eigenvalues --   -0.44691  -0.44455  -0.44193  -0.44138  -0.43957
 Alpha  occ. eigenvalues --   -0.43909  -0.43536  -0.43288  -0.43169  -0.43096
 Alpha  occ. eigenvalues --   -0.42652  -0.42476  -0.42459  -0.42203  -0.41983
 Alpha  occ. eigenvalues --   -0.41915  -0.41882  -0.41699  -0.41544  -0.41376
 Alpha  occ. eigenvalues --   -0.41073  -0.40967  -0.40642  -0.40398  -0.40250
 Alpha  occ. eigenvalues --   -0.40220  -0.39705  -0.39524  -0.39090  -0.38977
 Alpha  occ. eigenvalues --   -0.38323  -0.37924  -0.37813  -0.37527  -0.37461
 Alpha  occ. eigenvalues --   -0.37410  -0.37187  -0.37033  -0.36464  -0.36177
 Alpha  occ. eigenvalues --   -0.35349  -0.35069  -0.35041  -0.34800  -0.34588
 Alpha  occ. eigenvalues --   -0.33970  -0.33790  -0.33672  -0.31611  -0.31340
 Alpha  occ. eigenvalues --   -0.30849  -0.30596  -0.29617  -0.29172  -0.24723
 Alpha  occ. eigenvalues --   -0.21527
 Alpha virt. eigenvalues --   -0.09195  -0.02639  -0.00640   0.01380   0.01854
 Alpha virt. eigenvalues --    0.04101   0.04423   0.04905   0.05469   0.06302
 Alpha virt. eigenvalues --    0.07151   0.07849   0.08190   0.08432   0.08708

 Mulliken charges:
               1
     1  Mg   0.825179
     2  C   -0.000905
     3  C   -0.093993
     4  C   -0.062189
     5  C   -0.090569
     6  N   -0.307437
     7  C   -0.078391
     8  C    0.039149
     9  C   -0.061926
    10  C    0.061235
    11  C    0.054815
    12  C    0.041303
    13  C    0.067227
    14  C    0.166090
    15  O   -0.208979
    16  O   -0.395240
    17  N   -0.324501
    18  C    0.168838
    19  C   -0.174281
    20  C   -0.023525
    21  C    0.135397
    22  C    0.133736
    23  C    0.030146
    24  O   -0.238615
    25  C    0.032167
    26  N   -0.276180
    27  C    0.028527
    28  C   -0.072619
    29  C    0.003472
    30  C    0.055240
    31  C    0.082904
    32  C    0.023315
    33  C   -0.018852
    34  N   -0.357084
    35  C    0.072678
    36  C   -0.165701
    37  C    0.043829
    38  C    0.120161
    39  C    0.118113
    40  C    0.003730
    41  O   -0.216709
    42  C    0.023459
    43  C    0.213140
    44  O   -0.199504
    45  O   -0.349510
    46  C    0.169041
    47  C    0.266937
    48  C   -0.120711
    49  C   -0.158108
    50  C    0.082328
    51  C    0.020196
    52  C    0.036003
    53  C    0.048679
    54  C   -0.140027
    55  C    0.070827
    56  C    0.049839
    57  C    0.020735
    58  C    0.067204
    59  C   -0.142269
    60  C    0.036167
    61  C    0.064577
    62  C    0.001990
    63  C    0.027886
    64  C   -0.175739
    65  C    0.055954
    66  C    0.053123
    67  H   -0.011861
    68  H   -0.046795
    69  H   -0.030554
    70  H    0.006476
    71  H    0.009381
    72  H    0.035153
    73  H    0.021244
    74  H    0.011478
    75  H    0.031459
    76  H    0.004701
    77  H    0.041372
    78  H    0.042465
    79  H    0.035613
    80  H   -0.003760
    81  H    0.044909
    82  H    0.037678
    83  H    0.043789
    84  H    0.022944
    85  H    0.018185
    86  H    0.011901
    87  H    0.012228
    88  H    0.020469
    89  H    0.026369
    90  H    0.016104
    91  H    0.003511
    92  H    0.014762
    93  H    0.015363
    94  H    0.022312
    95  H    0.025841
    96  H    0.026528
    97  H    0.035199
    98  H    0.044479
    99  H    0.031208
   100  H    0.055486
   101  H    0.042722
   102  H    0.042875
   103  H    0.018169
   104  H   -0.000520
   105  H    0.012953
   106  H    0.032284
   107  H    0.025946
   108  H   -0.020100
   109  H    0.009391
   110  H    0.027313
   111  H   -0.003753
   112  H   -0.002057
   113  H    0.005005
   114  H   -0.006087
   115  H   -0.005764
   116  H    0.010137
   117  H   -0.015036
   118  H   -0.005172
   119  H   -0.006659
   120  H   -0.008101
   121  H   -0.000901
   122  H    0.002230
   123  H   -0.009755
   124  H    0.002753
   125  H   -0.003954
   126  H    0.006170
   127  H    0.006852
   128  H   -0.018783
   129  H   -0.006128
   130  H   -0.005948
   131  H   -0.002858
   132  H   -0.002145
   133  H   -0.003101
   134  H    0.002959
   135  H    0.014343
   136  H    0.000347
   137  H    0.006423
   138  H    0.006400
   139  H    0.004347
   140  H    0.009793
 Sum of Mulliken charges =  -0.00000

 Dipole moment (field-independent basis, Debye):
    X=              0.3170    Y=              5.6826    Z=              1.0280  Tot=              5.7836
 Quadrupole moment (field-independent basis, Debye-Ang):
   XX=           -409.5675   YY=           -421.8634   ZZ=           -404.4070
   XY=            -37.8891   XZ=            -31.0226   YZ=            -40.2577

 Normal termination of Gaussian 16 at Tue May  3 23:20:52 2022.
