 Gaussian 16, Revision A.03,
 Gaussian 16:  ES64L-G16RevA.03 25-Dec-2016

 ---------------------------------
 #p PBE1PBE/Def2SVP td=(nstates=5)
 ---------------------------------

 ------------------------------------------------------
 step_1101_chromophore_26 TDDFT with PBE1PBE functional
 ------------------------------------------------------
 Symbolic Z-matrix:
 Charge =  0 Multiplicity = 1

                         Standard orientation:
 ---------------------------------------------------------------------
 Center     Atomic      Atomic             Coordinates (Angstroms)
 Number     Number       Type             X           Y           Z
 ---------------------------------------------------------------------
      1         12           0       -3.413537    1.314720    0.538139
      2          6           0       -4.663113   -1.889207   -0.227553
      3          6           0       -2.089611    0.111939    3.478208
      4          6           0       -1.911589    4.269874    0.975747
      5          6           0       -4.375625    2.326918   -2.769513
      6          7           0       -3.219705   -0.750622    1.374412
      7          6           0       -3.882375   -1.948197    0.978471
      8          6           0       -3.678725   -3.055856    2.057619
      9          6           0       -3.131970   -2.226250    3.320387
     10          6           0       -2.694515   -0.870698    2.644049
     11          6           0       -4.035526   -2.098528    4.639769
     12          6           0       -2.819045   -4.158924    1.397575
     13          6           0       -1.784776   -3.816958    0.299025
     14          6           0       -0.437120   -4.509547    0.295609
     15          8           0       -0.301637   -5.658158   -0.026931
     16          8           0        0.666363   -3.615485    0.596471
     17          7           0       -2.287200    2.148843    2.079545
     18          6           0       -1.876853    1.448978    3.162462
     19          6           0       -0.992522    2.336782    3.922426
     20          6           0       -0.880518    3.602254    3.263063
     21          6           0       -1.725331    3.329073    2.045673
     22          6           0       -0.277747    2.046035    5.224481
     23          6           0       -0.237851    4.895047    3.805468
     24          8           0        0.393430    4.964775    4.895026
     25          6           0       -0.296666    6.311556    3.071778
     26          7           0       -3.061567    2.938115   -0.790785
     27          6           0       -2.561629    4.101993   -0.263584
     28          6           0       -2.580768    5.242656   -1.279515
     29          6           0       -3.448237    4.623167   -2.383506
     30          6           0       -3.603483    3.215931   -1.981154
     31          6           0       -3.171844    6.581528   -0.793263
     32          6           0       -2.907709    4.774992   -3.860541
     33          6           0       -3.755728    5.726892   -4.811758
     34          7           0       -4.423510    0.511270   -1.153202
     35          6           0       -4.792364    1.051976   -2.371826
     36          6           0       -5.660495    0.104419   -3.099047
     37          6           0       -5.626223   -0.995785   -2.194058
     38          6           0       -4.844359   -0.802863   -1.125429
     39          6           0       -6.420423    0.357254   -4.341758
     40          6           0       -6.139644   -2.366670   -2.047953
     41          8           0       -6.951389   -3.005684   -2.792401
     42          6           0       -5.527437   -2.955444   -0.773030
     43          6           0       -6.707416   -3.560958    0.002421
     44          8           0       -7.039686   -4.736991    0.022432
     45          8           0       -7.369978   -2.517453    0.599721
     46          6           0       -8.545113   -2.932214    1.434196
     47          6           0        2.060331   -4.218014    0.665134
     48          6           0        3.006978   -3.486036   -0.361281
     49          6           0        2.863508   -3.563722   -1.709922
     50          6           0        1.923023   -4.401044   -2.576377
     51          6           0        3.864799   -2.758267   -2.519063
     52          6           0        3.468345   -1.238164   -2.778459
     53          6           0        4.822330   -0.566923   -3.281014
     54          6           0        5.279895    0.423918   -2.107665
     55          6           0        5.154071    1.798101   -2.601963
     56          6           0        6.715606    0.099527   -1.554277
     57          6           0        6.998139    0.541906   -0.100647
     58          6           0        7.125138   -0.682170    0.875716
     59          6           0        8.448843   -0.601952    1.696157
     60          6           0        8.313479   -0.996012    3.182932
     61          6           0        9.593692   -1.459475    1.067518
     62          6           0       10.874256   -0.678819    0.808656
     63          6           0       11.509951   -0.680040   -0.624789
     64          6           0       12.185031    0.673767   -0.952409
     65          6           0       12.145379    0.818333   -2.481169
     66          6           0       13.617462    0.790113   -0.345315
     67          1           0       -1.746523   -0.241498    4.453127
     68          1           0       -1.490281    5.275475    1.042095
     69          1           0       -4.747824    2.564131   -3.768777
     70          1           0       -4.626506   -3.525104    2.320738
     71          1           0       -2.272222   -2.782190    3.695416
     72          1           0       -4.866530   -2.792514    4.769407
     73          1           0       -4.295166   -1.047951    4.773279
     74          1           0       -3.348333   -2.240882    5.473231
     75          1           0       -3.494365   -4.974897    1.140436
     76          1           0       -2.192064   -4.647142    2.144301
     77          1           0       -1.478661   -2.783242    0.463689
     78          1           0       -2.177140   -3.990530   -0.702621
     79          1           0        0.805898    1.953030    5.146121
     80          1           0       -0.723797    1.110006    5.561025
     81          1           0       -0.393273    2.929046    5.852956
     82          1           0       -1.314352    6.572700    2.781610
     83          1           0        0.443005    6.450682    2.282887
     84          1           0        0.017813    7.062911    3.795965
     85          1           0       -1.607011    5.498009   -1.697347
     86          1           0       -4.445915    5.059866   -2.338005
     87          1           0       -3.614095    6.281604    0.157082
     88          1           0       -3.978324    6.855426   -1.472779
     89          1           0       -2.341662    7.274614   -0.663285
     90          1           0       -2.852185    3.788876   -4.322501
     91          1           0       -1.879597    5.131561   -3.921917
     92          1           0       -4.537242    6.319688   -4.336383
     93          1           0       -4.292061    5.040003   -5.466125
     94          1           0       -3.136468    6.398798   -5.407692
     95          1           0       -6.950732   -0.567120   -4.570417
     96          1           0       -5.754034    0.498165   -5.192192
     97          1           0       -7.214496    1.097119   -4.240560
     98          1           0       -4.799551   -3.701149   -1.093928
     99          1           0       -8.588895   -2.241180    2.275768
    100          1           0       -8.520882   -3.964731    1.783898
    101          1           0       -9.494197   -2.774353    0.922337
    102          1           0        1.994554   -5.276278    0.412350
    103          1           0        2.451954   -4.030874    1.665246
    104          1           0        3.691892   -2.763430    0.082267
    105          1           0        1.255459   -4.897507   -1.872761
    106          1           0        2.431936   -5.165629   -3.163673
    107          1           0        1.321278   -3.786823   -3.247568
    108          1           0        3.839358   -3.291716   -3.469159
    109          1           0        4.888137   -2.977696   -2.212740
    110          1           0        2.944815   -0.743575   -1.959519
    111          1           0        2.850827   -1.314879   -3.673179
    112          1           0        4.614848   -0.012217   -4.195781
    113          1           0        5.590483   -1.320499   -3.454421
    114          1           0        4.588036    0.307830   -1.273726
    115          1           0        4.301860    2.331295   -2.181503
    116          1           0        5.170973    1.826592   -3.690784
    117          1           0        5.878588    2.516748   -2.217760
    118          1           0        7.431660    0.621755   -2.189053
    119          1           0        6.761572   -0.988550   -1.596169
    120          1           0        6.184676    1.183696    0.236869
    121          1           0        7.875772    1.186097   -0.051858
    122          1           0        7.092414   -1.604809    0.297567
    123          1           0        6.293585   -0.690323    1.580668
    124          1           0        8.791760    0.429705    1.777927
    125          1           0        7.577309   -1.797811    3.245364
    126          1           0        7.926535   -0.220417    3.845143
    127          1           0        9.249499   -1.382369    3.587539
    128          1           0        9.308905   -1.834166    0.084401
    129          1           0        9.810982   -2.333068    1.682544
    130          1           0       11.526945   -1.184296    1.520695
    131          1           0       10.792154    0.382472    1.043653
    132          1           0       10.757814   -0.914643   -1.377751
    133          1           0       12.226806   -1.499423   -0.669072
    134          1           0       11.575006    1.477646   -0.540325
    135          1           0       11.710106   -0.036142   -2.998528
    136          1           0       13.125703    1.020750   -2.911443
    137          1           0       11.531102    1.713872   -2.582020
    138          1           0       13.638521    1.579357    0.407290
    139          1           0       14.383926    1.068314   -1.067654
    140          1           0       13.933937   -0.141286    0.123853
 ---------------------------------------------------------------------

 SCF Done:  E(RPBE1PBE) =  -3005.30707156     A.U. after   15 cycles

 Excitation energies and oscillator strengths:

 Excited State   1:      Singlet-A      1.8349 eV  675.71 nm  f=0.3448  <S**2>=0.000
     245 -> 248        0.16964
     246 -> 247        0.69232
     246 <- 247       -0.10954
 This state for optimization and/or second-order correction.
 Total Energy, E(TD-HF/TD-DFT) =  -3005.23964090
 Copying the excited state density for this state as the 1-particle RhoCI density.

 Excited State   2:      Singlet-A      2.2061 eV  562.00 nm  f=0.0795  <S**2>=0.000
     244 -> 247        0.10001
     245 -> 247        0.63780
     246 -> 248       -0.27740

 Excited State   3:      Singlet-A      2.7974 eV  443.21 nm  f=0.0024  <S**2>=0.000
     242 -> 247       -0.43684
     242 -> 249        0.12425
     242 -> 250        0.10669
     243 -> 247       -0.10764
     244 -> 247        0.49707
     246 -> 248        0.12181

 Excited State   4:      Singlet-A      2.8842 eV  429.87 nm  f=0.0020  <S**2>=0.000
     242 -> 247        0.50991
     244 -> 247        0.44215

 Excited State   5:      Singlet-A      3.0388 eV  408.00 nm  f=0.0002  <S**2>=0.000
     240 -> 247        0.10095
     241 -> 247        0.64835
     241 -> 248        0.10022
     241 -> 249        0.17894

 The electronic state is 1-A.
 Alpha  occ. eigenvalues --  -46.93322 -19.26558 -19.24205 -19.20568 -19.20552
 Alpha  occ. eigenvalues --  -19.19832 -19.18960 -14.43127 -14.42044 -14.40645
 Alpha  occ. eigenvalues --  -14.38529 -10.37153 -10.36339 -10.34104 -10.32152
 Alpha  occ. eigenvalues --  -10.30466 -10.30017 -10.29458 -10.29406 -10.29237
 Alpha  occ. eigenvalues --  -10.29069 -10.28779 -10.28430 -10.27538 -10.27426
 Alpha  occ. eigenvalues --  -10.27296 -10.26873 -10.26617 -10.26299 -10.26100
 Alpha  occ. eigenvalues --  -10.26010 -10.25949 -10.25823 -10.25509 -10.25500
 Alpha  occ. eigenvalues --  -10.25368 -10.25129 -10.25074 -10.24993 -10.24852
 Alpha  occ. eigenvalues --  -10.24525 -10.24516 -10.24051 -10.24027 -10.23695
 Alpha  occ. eigenvalues --  -10.23679 -10.23344 -10.23207 -10.23182 -10.23143
 Alpha  occ. eigenvalues --  -10.22975 -10.22954 -10.22801 -10.22765 -10.22726
 Alpha  occ. eigenvalues --  -10.22636 -10.22421 -10.22265 -10.22049 -10.22036
 Alpha  occ. eigenvalues --  -10.21709 -10.21674 -10.21520 -10.21418 -10.21327
 Alpha  occ. eigenvalues --  -10.20987  -3.15314  -1.88146  -1.87700  -1.87530
 Alpha  occ. eigenvalues --   -1.10890  -1.09196  -1.03254  -1.02702  -1.01736
 Alpha  occ. eigenvalues --   -1.01157  -1.00587  -0.99659  -0.97838  -0.96539
 Alpha  occ. eigenvalues --   -0.88120  -0.84007  -0.83901  -0.83780  -0.83489
 Alpha  occ. eigenvalues --   -0.83213  -0.82344  -0.82143  -0.81280  -0.81058
 Alpha  occ. eigenvalues --   -0.80520  -0.79532  -0.78260  -0.77862  -0.77513
 Alpha  occ. eigenvalues --   -0.76286  -0.75836  -0.75242  -0.74617  -0.74395
 Alpha  occ. eigenvalues --   -0.73824  -0.72659  -0.72504  -0.71731  -0.71008
 Alpha  occ. eigenvalues --   -0.69997  -0.69521  -0.69113  -0.68505  -0.68129
 Alpha  occ. eigenvalues --   -0.67784  -0.67048  -0.66405  -0.64910  -0.64004
 Alpha  occ. eigenvalues --   -0.62954  -0.62511  -0.62333  -0.60624  -0.60367
 Alpha  occ. eigenvalues --   -0.60301  -0.59606  -0.59506  -0.59205  -0.57776
 Alpha  occ. eigenvalues --   -0.57649  -0.57048  -0.56902  -0.56219  -0.55242
 Alpha  occ. eigenvalues --   -0.54580  -0.53906  -0.53793  -0.52823  -0.52539
 Alpha  occ. eigenvalues --   -0.52127  -0.51472  -0.51156  -0.50919  -0.50415
 Alpha  occ. eigenvalues --   -0.49816  -0.49230  -0.48701  -0.48492  -0.48347
 Alpha  occ. eigenvalues --   -0.48059  -0.47778  -0.47713  -0.47517  -0.46954
 Alpha  occ. eigenvalues --   -0.46748  -0.46613  -0.46435  -0.46132  -0.46061
 Alpha  occ. eigenvalues --   -0.45717  -0.45557  -0.45228  -0.45189  -0.45059
 Alpha  occ. eigenvalues --   -0.44904  -0.44861  -0.44649  -0.44397  -0.44268
 Alpha  occ. eigenvalues --   -0.44038  -0.43943  -0.43627  -0.43529  -0.43399
 Alpha  occ. eigenvalues --   -0.43098  -0.43033  -0.42879  -0.42815  -0.42539
 Alpha  occ. eigenvalues --   -0.42425  -0.42129  -0.42115  -0.41937  -0.41575
 Alpha  occ. eigenvalues --   -0.41333  -0.41054  -0.40944  -0.40708  -0.40515
 Alpha  occ. eigenvalues --   -0.40279  -0.40071  -0.40041  -0.39818  -0.39623
 Alpha  occ. eigenvalues --   -0.39482  -0.39190  -0.38916  -0.38810  -0.38757
 Alpha  occ. eigenvalues --   -0.38621  -0.38336  -0.38121  -0.37979  -0.37923
 Alpha  occ. eigenvalues --   -0.37487  -0.37293  -0.37153  -0.36880  -0.36762
 Alpha  occ. eigenvalues --   -0.36717  -0.36641  -0.36608  -0.36401  -0.36225
 Alpha  occ. eigenvalues --   -0.35910  -0.35724  -0.35533  -0.35196  -0.35079
 Alpha  occ. eigenvalues --   -0.34950  -0.34420  -0.34400  -0.33960  -0.33844
 Alpha  occ. eigenvalues --   -0.33140  -0.32844  -0.32731  -0.32455  -0.32288
 Alpha  occ. eigenvalues --   -0.32219  -0.32206  -0.32008  -0.31304  -0.31037
 Alpha  occ. eigenvalues --   -0.30226  -0.30148  -0.29970  -0.29757  -0.29696
 Alpha  occ. eigenvalues --   -0.29291  -0.28799  -0.28625  -0.27067  -0.26594
 Alpha  occ. eigenvalues --   -0.25962  -0.25471  -0.24927  -0.24919  -0.21611
 Alpha  occ. eigenvalues --   -0.19198
 Alpha virt. eigenvalues --   -0.11687  -0.06109  -0.04794  -0.03012  -0.01026
 Alpha virt. eigenvalues --   -0.00302   0.00168   0.00409   0.00779   0.02071
 Alpha virt. eigenvalues --    0.03213   0.03899   0.04866   0.05234   0.05485

 Mulliken charges:
               1
     1  Mg   0.968604
     2  C   -0.014982
     3  C   -0.084951
     4  C   -0.047308
     5  C   -0.072170
     6  N   -0.404564
     7  C   -0.003972
     8  C   -0.030691
     9  C   -0.130098
    10  C    0.098117
    11  C   -0.004956
    12  C   -0.001564
    13  C   -0.022122
    14  C    0.235462
    15  O   -0.241292
    16  O   -0.420938
    17  N   -0.451485
    18  C    0.188911
    19  C   -0.204431
    20  C   -0.054173
    21  C    0.157706
    22  C    0.075141
    23  C    0.069682
    24  O   -0.270464
    25  C   -0.043273
    26  N   -0.382807
    27  C    0.056088
    28  C   -0.144030
    29  C   -0.076022
    30  C    0.095384
    31  C    0.022559
    32  C   -0.034879
    33  C   -0.089494
    34  N   -0.479390
    35  C    0.095603
    36  C   -0.174295
    37  C   -0.017624
    38  C    0.163952
    39  C    0.058696
    40  C    0.103147
    41  O   -0.260145
    42  C   -0.082825
    43  C    0.292914
    44  O   -0.236020
    45  O   -0.376264
    46  C    0.114365
    47  C    0.220613
    48  C   -0.132656
    49  C   -0.189525
    50  C    0.010777
    51  C   -0.044335
    52  C   -0.029920
    53  C   -0.005866
    54  C   -0.223991
    55  C    0.016732
    56  C   -0.010678
    57  C   -0.036364
    58  C    0.010292
    59  C   -0.227442
    60  C   -0.024847
    61  C    0.010595
    62  C   -0.056269
    63  C   -0.028436
    64  C   -0.270429
    65  C   -0.003348
    66  C   -0.003668
    67  H    0.018077
    68  H   -0.009364
    69  H    0.002966
    70  H    0.045975
    71  H    0.046460
    72  H    0.060904
    73  H    0.049990
    74  H    0.038370
    75  H    0.061968
    76  H    0.038864
    77  H    0.077994
    78  H    0.074722
    79  H    0.062793
    80  H    0.025140
    81  H    0.071406
    82  H    0.062084
    83  H    0.069305
    84  H    0.050951
    85  H    0.054447
    86  H    0.049940
    87  H    0.041932
    88  H    0.048225
    89  H    0.052961
    90  H    0.047973
    91  H    0.035796
    92  H    0.041497
    93  H    0.042739
    94  H    0.049860
    95  H    0.055697
    96  H    0.054485
    97  H    0.063041
    98  H    0.084549
    99  H    0.053226
   100  H    0.075686
   101  H    0.064524
   102  H    0.068471
   103  H    0.045654
   104  H    0.029137
   105  H    0.046109
   106  H    0.059590
   107  H    0.053958
   108  H    0.014169
   109  H    0.040616
   110  H    0.057057
   111  H    0.031037
   112  H    0.029989
   113  H    0.035928
   114  H    0.032475
   115  H    0.022150
   116  H    0.036155
   117  H    0.012836
   118  H    0.027606
   119  H    0.027134
   120  H    0.024632
   121  H    0.030622
   122  H    0.033005
   123  H    0.023393
   124  H    0.040112
   125  H    0.024667
   126  H    0.034207
   127  H    0.034825
   128  H    0.014954
   129  H    0.025759
   130  H    0.026776
   131  H    0.028536
   132  H    0.030157
   133  H    0.029921
   134  H    0.039622
   135  H    0.040545
   136  H    0.027750
   137  H    0.033983
   138  H    0.033635
   139  H    0.030910
   140  H    0.036397
 Sum of Mulliken charges =  -0.00000

 Dipole moment (field-independent basis, Debye):
    X=              0.1410    Y=              5.6949    Z=              0.7088  Tot=              5.7406
 Quadrupole moment (field-independent basis, Debye-Ang):
   XX=           -405.6408   YY=           -418.5176   ZZ=           -400.4721
   XY=            -38.1182   XZ=            -29.7427   YZ=            -41.8595

 Normal termination of Gaussian 16 at Tue May  3 23:41:28 2022.
