 Gaussian 16, Revision A.03,
 Gaussian 16:  ES64L-G16RevA.03 25-Dec-2016

 --------------------------------
 #p wB97XD/Def2SVP td=(nstates=5)
 --------------------------------

 -----------------------------------------------------
 step_1101_chromophore_26 TDDFT with wB97XD functional
 -----------------------------------------------------
 Symbolic Z-matrix:
 Charge =  0 Multiplicity = 1

                         Standard orientation:
 ---------------------------------------------------------------------
 Center     Atomic      Atomic             Coordinates (Angstroms)
 Number     Number       Type             X           Y           Z
 ---------------------------------------------------------------------
      1         12           0       -3.413537    1.314720    0.538139
      2          6           0       -4.663113   -1.889207   -0.227553
      3          6           0       -2.089611    0.111939    3.478208
      4          6           0       -1.911589    4.269874    0.975747
      5          6           0       -4.375625    2.326918   -2.769513
      6          7           0       -3.219705   -0.750622    1.374412
      7          6           0       -3.882375   -1.948197    0.978471
      8          6           0       -3.678725   -3.055856    2.057619
      9          6           0       -3.131970   -2.226250    3.320387
     10          6           0       -2.694515   -0.870698    2.644049
     11          6           0       -4.035526   -2.098528    4.639769
     12          6           0       -2.819045   -4.158924    1.397575
     13          6           0       -1.784776   -3.816958    0.299025
     14          6           0       -0.437120   -4.509547    0.295609
     15          8           0       -0.301637   -5.658158   -0.026931
     16          8           0        0.666363   -3.615485    0.596471
     17          7           0       -2.287200    2.148843    2.079545
     18          6           0       -1.876853    1.448978    3.162462
     19          6           0       -0.992522    2.336782    3.922426
     20          6           0       -0.880518    3.602254    3.263063
     21          6           0       -1.725331    3.329073    2.045673
     22          6           0       -0.277747    2.046035    5.224481
     23          6           0       -0.237851    4.895047    3.805468
     24          8           0        0.393430    4.964775    4.895026
     25          6           0       -0.296666    6.311556    3.071778
     26          7           0       -3.061567    2.938115   -0.790785
     27          6           0       -2.561629    4.101993   -0.263584
     28          6           0       -2.580768    5.242656   -1.279515
     29          6           0       -3.448237    4.623167   -2.383506
     30          6           0       -3.603483    3.215931   -1.981154
     31          6           0       -3.171844    6.581528   -0.793263
     32          6           0       -2.907709    4.774992   -3.860541
     33          6           0       -3.755728    5.726892   -4.811758
     34          7           0       -4.423510    0.511270   -1.153202
     35          6           0       -4.792364    1.051976   -2.371826
     36          6           0       -5.660495    0.104419   -3.099047
     37          6           0       -5.626223   -0.995785   -2.194058
     38          6           0       -4.844359   -0.802863   -1.125429
     39          6           0       -6.420423    0.357254   -4.341758
     40          6           0       -6.139644   -2.366670   -2.047953
     41          8           0       -6.951389   -3.005684   -2.792401
     42          6           0       -5.527437   -2.955444   -0.773030
     43          6           0       -6.707416   -3.560958    0.002421
     44          8           0       -7.039686   -4.736991    0.022432
     45          8           0       -7.369978   -2.517453    0.599721
     46          6           0       -8.545113   -2.932214    1.434196
     47          6           0        2.060331   -4.218014    0.665134
     48          6           0        3.006978   -3.486036   -0.361281
     49          6           0        2.863508   -3.563722   -1.709922
     50          6           0        1.923023   -4.401044   -2.576377
     51          6           0        3.864799   -2.758267   -2.519063
     52          6           0        3.468345   -1.238164   -2.778459
     53          6           0        4.822330   -0.566923   -3.281014
     54          6           0        5.279895    0.423918   -2.107665
     55          6           0        5.154071    1.798101   -2.601963
     56          6           0        6.715606    0.099527   -1.554277
     57          6           0        6.998139    0.541906   -0.100647
     58          6           0        7.125138   -0.682170    0.875716
     59          6           0        8.448843   -0.601952    1.696157
     60          6           0        8.313479   -0.996012    3.182932
     61          6           0        9.593692   -1.459475    1.067518
     62          6           0       10.874256   -0.678819    0.808656
     63          6           0       11.509951   -0.680040   -0.624789
     64          6           0       12.185031    0.673767   -0.952409
     65          6           0       12.145379    0.818333   -2.481169
     66          6           0       13.617462    0.790113   -0.345315
     67          1           0       -1.746523   -0.241498    4.453127
     68          1           0       -1.490281    5.275475    1.042095
     69          1           0       -4.747824    2.564131   -3.768777
     70          1           0       -4.626506   -3.525104    2.320738
     71          1           0       -2.272222   -2.782190    3.695416
     72          1           0       -4.866530   -2.792514    4.769407
     73          1           0       -4.295166   -1.047951    4.773279
     74          1           0       -3.348333   -2.240882    5.473231
     75          1           0       -3.494365   -4.974897    1.140436
     76          1           0       -2.192064   -4.647142    2.144301
     77          1           0       -1.478661   -2.783242    0.463689
     78          1           0       -2.177140   -3.990530   -0.702621
     79          1           0        0.805898    1.953030    5.146121
     80          1           0       -0.723797    1.110006    5.561025
     81          1           0       -0.393273    2.929046    5.852956
     82          1           0       -1.314352    6.572700    2.781610
     83          1           0        0.443005    6.450682    2.282887
     84          1           0        0.017813    7.062911    3.795965
     85          1           0       -1.607011    5.498009   -1.697347
     86          1           0       -4.445915    5.059866   -2.338005
     87          1           0       -3.614095    6.281604    0.157082
     88          1           0       -3.978324    6.855426   -1.472779
     89          1           0       -2.341662    7.274614   -0.663285
     90          1           0       -2.852185    3.788876   -4.322501
     91          1           0       -1.879597    5.131561   -3.921917
     92          1           0       -4.537242    6.319688   -4.336383
     93          1           0       -4.292061    5.040003   -5.466125
     94          1           0       -3.136468    6.398798   -5.407692
     95          1           0       -6.950732   -0.567120   -4.570417
     96          1           0       -5.754034    0.498165   -5.192192
     97          1           0       -7.214496    1.097119   -4.240560
     98          1           0       -4.799551   -3.701149   -1.093928
     99          1           0       -8.588895   -2.241180    2.275768
    100          1           0       -8.520882   -3.964731    1.783898
    101          1           0       -9.494197   -2.774353    0.922337
    102          1           0        1.994554   -5.276278    0.412350
    103          1           0        2.451954   -4.030874    1.665246
    104          1           0        3.691892   -2.763430    0.082267
    105          1           0        1.255459   -4.897507   -1.872761
    106          1           0        2.431936   -5.165629   -3.163673
    107          1           0        1.321278   -3.786823   -3.247568
    108          1           0        3.839358   -3.291716   -3.469159
    109          1           0        4.888137   -2.977696   -2.212740
    110          1           0        2.944815   -0.743575   -1.959519
    111          1           0        2.850827   -1.314879   -3.673179
    112          1           0        4.614848   -0.012217   -4.195781
    113          1           0        5.590483   -1.320499   -3.454421
    114          1           0        4.588036    0.307830   -1.273726
    115          1           0        4.301860    2.331295   -2.181503
    116          1           0        5.170973    1.826592   -3.690784
    117          1           0        5.878588    2.516748   -2.217760
    118          1           0        7.431660    0.621755   -2.189053
    119          1           0        6.761572   -0.988550   -1.596169
    120          1           0        6.184676    1.183696    0.236869
    121          1           0        7.875772    1.186097   -0.051858
    122          1           0        7.092414   -1.604809    0.297567
    123          1           0        6.293585   -0.690323    1.580668
    124          1           0        8.791760    0.429705    1.777927
    125          1           0        7.577309   -1.797811    3.245364
    126          1           0        7.926535   -0.220417    3.845143
    127          1           0        9.249499   -1.382369    3.587539
    128          1           0        9.308905   -1.834166    0.084401
    129          1           0        9.810982   -2.333068    1.682544
    130          1           0       11.526945   -1.184296    1.520695
    131          1           0       10.792154    0.382472    1.043653
    132          1           0       10.757814   -0.914643   -1.377751
    133          1           0       12.226806   -1.499423   -0.669072
    134          1           0       11.575006    1.477646   -0.540325
    135          1           0       11.710106   -0.036142   -2.998528
    136          1           0       13.125703    1.020750   -2.911443
    137          1           0       11.531102    1.713872   -2.582020
    138          1           0       13.638521    1.579357    0.407290
    139          1           0       14.383926    1.068314   -1.067654
    140          1           0       13.933937   -0.141286    0.123853
 ---------------------------------------------------------------------

 SCF Done:  E(RwB97XD) =  -3007.81539315     A.U. after   17 cycles

 Excitation energies and oscillator strengths:

 Excited State   1:      Singlet-A      1.6311 eV  760.14 nm  f=0.3579  <S**2>=0.000
     245 -> 248        0.18314
     246 -> 247        0.68186
     245 <- 248        0.11636
 This state for optimization and/or second-order correction.
 Total Energy, E(TD-HF/TD-DFT) =  -3007.75545223
 Copying the excited state density for this state as the 1-particle RhoCI density.

 Excited State   2:      Singlet-A      2.1591 eV  574.24 nm  f=0.0734  <S**2>=0.000
     245 -> 247        0.61978
     246 -> 248       -0.31946

 Excited State   3:      Singlet-A      3.1775 eV  390.20 nm  f=0.0104  <S**2>=0.000
     244 -> 247        0.63679
     246 -> 248        0.21561

 Excited State   4:      Singlet-A      3.3727 eV  367.61 nm  f=0.0005  <S**2>=0.000
     242 -> 247        0.53177
     242 -> 249       -0.28987
     242 -> 250       -0.28583
     244 -> 247        0.13691

 Excited State   5:      Singlet-A      3.5016 eV  354.08 nm  f=0.2306  <S**2>=0.000
     239 -> 247        0.12566
     239 -> 249        0.17411
     240 -> 249        0.14726
     240 -> 250       -0.10376
     241 -> 247        0.40035
     241 -> 249        0.22638
     241 -> 250       -0.10071
     244 -> 247       -0.10056
     245 -> 247        0.17453
     246 -> 248        0.33538

 The electronic state is 1-A.
 Alpha  occ. eigenvalues --  -46.96279 -19.31120 -19.28722 -19.25258 -19.25236
 Alpha  occ. eigenvalues --  -19.24741 -19.23714 -14.48356 -14.47011 -14.45731
 Alpha  occ. eigenvalues --  -14.43343 -10.43980 -10.43135 -10.41037 -10.38943
 Alpha  occ. eigenvalues --  -10.36607 -10.36423 -10.36010 -10.35970 -10.35671
 Alpha  occ. eigenvalues --  -10.35561 -10.34974 -10.34953 -10.33798 -10.33596
 Alpha  occ. eigenvalues --  -10.33581 -10.33327 -10.33298 -10.32583 -10.32523
 Alpha  occ. eigenvalues --  -10.32439 -10.32321 -10.32187 -10.31841 -10.31736
 Alpha  occ. eigenvalues --  -10.31550 -10.31514 -10.31418 -10.31298 -10.31223
 Alpha  occ. eigenvalues --  -10.30838 -10.30708 -10.30702 -10.30422 -10.30024
 Alpha  occ. eigenvalues --  -10.29979 -10.29776 -10.29670 -10.29525 -10.29472
 Alpha  occ. eigenvalues --  -10.29249 -10.29246 -10.29185 -10.29075 -10.28996
 Alpha  occ. eigenvalues --  -10.28985 -10.28780 -10.28640 -10.28406 -10.28402
 Alpha  occ. eigenvalues --  -10.28101 -10.28073 -10.27895 -10.27862 -10.27734
 Alpha  occ. eigenvalues --  -10.27428  -3.22141  -1.95719  -1.95275  -1.95103
 Alpha  occ. eigenvalues --   -1.18293  -1.16574  -1.10864  -1.10059  -1.09199
 Alpha  occ. eigenvalues --   -1.08503  -1.08066  -1.07007  -1.05129  -1.03990
 Alpha  occ. eigenvalues --   -0.95697  -0.91602  -0.91518  -0.91435  -0.91139
 Alpha  occ. eigenvalues --   -0.90876  -0.90003  -0.89766  -0.88939  -0.88843
 Alpha  occ. eigenvalues --   -0.88033  -0.87198  -0.85823  -0.85519  -0.85171
 Alpha  occ. eigenvalues --   -0.83915  -0.83487  -0.82871  -0.82445  -0.82087
 Alpha  occ. eigenvalues --   -0.81472  -0.80309  -0.80077  -0.79478  -0.78649
 Alpha  occ. eigenvalues --   -0.77597  -0.77219  -0.76777  -0.76183  -0.75794
 Alpha  occ. eigenvalues --   -0.75298  -0.74646  -0.73957  -0.72539  -0.71532
 Alpha  occ. eigenvalues --   -0.70543  -0.70087  -0.69985  -0.68093  -0.68002
 Alpha  occ. eigenvalues --   -0.67706  -0.67140  -0.66982  -0.66853  -0.65465
 Alpha  occ. eigenvalues --   -0.65064  -0.64697  -0.64535  -0.63669  -0.62706
 Alpha  occ. eigenvalues --   -0.61944  -0.61300  -0.61209  -0.60324  -0.59923
 Alpha  occ. eigenvalues --   -0.59653  -0.58935  -0.58601  -0.58289  -0.57819
 Alpha  occ. eigenvalues --   -0.57291  -0.56656  -0.56016  -0.55899  -0.55839
 Alpha  occ. eigenvalues --   -0.55431  -0.55206  -0.54986  -0.54933  -0.54323
 Alpha  occ. eigenvalues --   -0.54151  -0.53954  -0.53831  -0.53615  -0.53436
 Alpha  occ. eigenvalues --   -0.53135  -0.52925  -0.52606  -0.52522  -0.52342
 Alpha  occ. eigenvalues --   -0.52242  -0.52200  -0.51998  -0.51702  -0.51605
 Alpha  occ. eigenvalues --   -0.51315  -0.51208  -0.50927  -0.50839  -0.50726
 Alpha  occ. eigenvalues --   -0.50406  -0.50336  -0.50205  -0.50108  -0.49871
 Alpha  occ. eigenvalues --   -0.49650  -0.49421  -0.49350  -0.49054  -0.48843
 Alpha  occ. eigenvalues --   -0.48590  -0.48403  -0.48183  -0.47974  -0.47689
 Alpha  occ. eigenvalues --   -0.47462  -0.47294  -0.47170  -0.46976  -0.46724
 Alpha  occ. eigenvalues --   -0.46608  -0.46319  -0.46097  -0.45989  -0.45852
 Alpha  occ. eigenvalues --   -0.45801  -0.45451  -0.45236  -0.45102  -0.44996
 Alpha  occ. eigenvalues --   -0.44577  -0.44436  -0.44306  -0.44053  -0.44011
 Alpha  occ. eigenvalues --   -0.43804  -0.43764  -0.43618  -0.43444  -0.43371
 Alpha  occ. eigenvalues --   -0.43011  -0.42826  -0.42511  -0.42257  -0.42142
 Alpha  occ. eigenvalues --   -0.42083  -0.41541  -0.41421  -0.40919  -0.40896
 Alpha  occ. eigenvalues --   -0.40153  -0.39828  -0.39770  -0.39415  -0.39354
 Alpha  occ. eigenvalues --   -0.39281  -0.39195  -0.39078  -0.38296  -0.38032
 Alpha  occ. eigenvalues --   -0.37229  -0.37071  -0.36890  -0.36636  -0.36581
 Alpha  occ. eigenvalues --   -0.36028  -0.35854  -0.35511  -0.33685  -0.33518
 Alpha  occ. eigenvalues --   -0.33011  -0.32539  -0.31627  -0.31309  -0.26639
 Alpha  occ. eigenvalues --   -0.23325
 Alpha virt. eigenvalues --   -0.07542  -0.00730   0.01426   0.03497   0.04952
 Alpha virt. eigenvalues --    0.06402   0.06812   0.07207   0.07619   0.08743
 Alpha virt. eigenvalues --    0.09846   0.10419   0.11522   0.11958   0.12181

 Mulliken charges:
               1
     1  Mg   0.961467
     2  C   -0.013239
     3  C   -0.100359
     4  C   -0.068938
     5  C   -0.097592
     6  N   -0.372278
     7  C   -0.036940
     8  C   -0.008996
     9  C   -0.109843
    10  C    0.081835
    11  C    0.007083
    12  C    0.002318
    13  C    0.005222
    14  C    0.222766
    15  O   -0.238153
    16  O   -0.422252
    17  N   -0.414375
    18  C    0.182475
    19  C   -0.192589
    20  C   -0.058190
    21  C    0.160035
    22  C    0.088106
    23  C    0.067641
    24  O   -0.266184
    25  C   -0.028463
    26  N   -0.350910
    27  C    0.051048
    28  C   -0.123355
    29  C   -0.049085
    30  C    0.087234
    31  C    0.035888
    32  C   -0.021702
    33  C   -0.072822
    34  N   -0.443867
    35  C    0.087529
    36  C   -0.174852
    37  C   -0.005974
    38  C    0.146680
    39  C    0.069697
    40  C    0.079894
    41  O   -0.250259
    42  C   -0.042615
    43  C    0.274372
    44  O   -0.231630
    45  O   -0.377217
    46  C    0.130423
    47  C    0.236772
    48  C   -0.142431
    49  C   -0.181943
    50  C    0.032787
    51  C   -0.023409
    52  C   -0.012973
    53  C    0.010292
    54  C   -0.193683
    55  C    0.024166
    56  C    0.013381
    57  C   -0.024047
    58  C    0.027039
    59  C   -0.197078
    60  C   -0.011691
    61  C    0.025854
    62  C   -0.038217
    63  C   -0.012021
    64  C   -0.239247
    65  C    0.008933
    66  C    0.005992
    67  H    0.012980
    68  H   -0.024120
    69  H   -0.004259
    70  H    0.036245
    71  H    0.036815
    72  H    0.057583
    73  H    0.042096
    74  H    0.032403
    75  H    0.057076
    76  H    0.030565
    77  H    0.064887
    78  H    0.068744
    79  H    0.060235
    80  H    0.018717
    81  H    0.067206
    82  H    0.056801
    83  H    0.066233
    84  H    0.049293
    85  H    0.044897
    86  H    0.035935
    87  H    0.033247
    88  H    0.042195
    89  H    0.048542
    90  H    0.039293
    91  H    0.028311
    92  H    0.034618
    93  H    0.036141
    94  H    0.044670
    95  H    0.050723
    96  H    0.049179
    97  H    0.057982
    98  H    0.075594
    99  H    0.049259
   100  H    0.071946
   101  H    0.060558
   102  H    0.063156
   103  H    0.042408
   104  H    0.025759
   105  H    0.033418
   106  H    0.054690
   107  H    0.048509
   108  H    0.004445
   109  H    0.030997
   110  H    0.049291
   111  H    0.022695
   112  H    0.022149
   113  H    0.026430
   114  H    0.016177
   115  H    0.017013
   116  H    0.030067
   117  H    0.006281
   118  H    0.019571
   119  H    0.010695
   120  H    0.016199
   121  H    0.021557
   122  H    0.022531
   123  H    0.015763
   124  H    0.025667
   125  H    0.017136
   126  H    0.029212
   127  H    0.028076
   128  H    0.002343
   129  H    0.018285
   130  H    0.018846
   131  H    0.015135
   132  H    0.018564
   133  H    0.021280
   134  H    0.028002
   135  H    0.034599
   136  H    0.021637
   137  H    0.028206
   138  H    0.028220
   139  H    0.025026
   140  H    0.029867
 Sum of Mulliken charges =  -0.00000

 Dipole moment (field-independent basis, Debye):
    X=              0.3042    Y=              5.8239    Z=              1.1405  Tot=              5.9424
 Quadrupole moment (field-independent basis, Debye-Ang):
   XX=           -406.1709   YY=           -417.9582   ZZ=           -399.8221
   XY=            -37.8943   XZ=            -31.0399   YZ=            -40.8577

 Normal termination of Gaussian 16 at Wed May  4 00:14:54 2022.
