 Gaussian 16, Revision A.03,
 Gaussian 16:  ES64L-G16RevA.03 25-Dec-2016

 --------------------
 #p ZINDO=(nstates=5)
 --------------------

 ------------------------------
 step_1101_chromophore_26 ZINDO
 ------------------------------
 Symbolic Z-matrix:
 Charge =  0 Multiplicity = 1

                         Standard orientation:
 ---------------------------------------------------------------------
 Center     Atomic      Atomic             Coordinates (Angstroms)
 Number     Number       Type             X           Y           Z
 ---------------------------------------------------------------------
      1         12           0       -3.413537    1.314720    0.538139
      2          6           0       -4.663113   -1.889207   -0.227553
      3          6           0       -2.089611    0.111939    3.478208
      4          6           0       -1.911589    4.269874    0.975747
      5          6           0       -4.375625    2.326918   -2.769513
      6          7           0       -3.219705   -0.750622    1.374412
      7          6           0       -3.882375   -1.948197    0.978471
      8          6           0       -3.678725   -3.055856    2.057619
      9          6           0       -3.131970   -2.226250    3.320387
     10          6           0       -2.694515   -0.870698    2.644049
     11          6           0       -4.035526   -2.098528    4.639769
     12          6           0       -2.819045   -4.158924    1.397575
     13          6           0       -1.784776   -3.816958    0.299025
     14          6           0       -0.437120   -4.509547    0.295609
     15          8           0       -0.301637   -5.658158   -0.026931
     16          8           0        0.666363   -3.615485    0.596471
     17          7           0       -2.287200    2.148843    2.079545
     18          6           0       -1.876853    1.448978    3.162462
     19          6           0       -0.992522    2.336782    3.922426
     20          6           0       -0.880518    3.602254    3.263063
     21          6           0       -1.725331    3.329073    2.045673
     22          6           0       -0.277747    2.046035    5.224481
     23          6           0       -0.237851    4.895047    3.805468
     24          8           0        0.393430    4.964775    4.895026
     25          6           0       -0.296666    6.311556    3.071778
     26          7           0       -3.061567    2.938115   -0.790785
     27          6           0       -2.561629    4.101993   -0.263584
     28          6           0       -2.580768    5.242656   -1.279515
     29          6           0       -3.448237    4.623167   -2.383506
     30          6           0       -3.603483    3.215931   -1.981154
     31          6           0       -3.171844    6.581528   -0.793263
     32          6           0       -2.907709    4.774992   -3.860541
     33          6           0       -3.755728    5.726892   -4.811758
     34          7           0       -4.423510    0.511270   -1.153202
     35          6           0       -4.792364    1.051976   -2.371826
     36          6           0       -5.660495    0.104419   -3.099047
     37          6           0       -5.626223   -0.995785   -2.194058
     38          6           0       -4.844359   -0.802863   -1.125429
     39          6           0       -6.420423    0.357254   -4.341758
     40          6           0       -6.139644   -2.366670   -2.047953
     41          8           0       -6.951389   -3.005684   -2.792401
     42          6           0       -5.527437   -2.955444   -0.773030
     43          6           0       -6.707416   -3.560958    0.002421
     44          8           0       -7.039686   -4.736991    0.022432
     45          8           0       -7.369978   -2.517453    0.599721
     46          6           0       -8.545113   -2.932214    1.434196
     47          6           0        2.060331   -4.218014    0.665134
     48          6           0        3.006978   -3.486036   -0.361281
     49          6           0        2.863508   -3.563722   -1.709922
     50          6           0        1.923023   -4.401044   -2.576377
     51          6           0        3.864799   -2.758267   -2.519063
     52          6           0        3.468345   -1.238164   -2.778459
     53          6           0        4.822330   -0.566923   -3.281014
     54          6           0        5.279895    0.423918   -2.107665
     55          6           0        5.154071    1.798101   -2.601963
     56          6           0        6.715606    0.099527   -1.554277
     57          6           0        6.998139    0.541906   -0.100647
     58          6           0        7.125138   -0.682170    0.875716
     59          6           0        8.448843   -0.601952    1.696157
     60          6           0        8.313479   -0.996012    3.182932
     61          6           0        9.593692   -1.459475    1.067518
     62          6           0       10.874256   -0.678819    0.808656
     63          6           0       11.509951   -0.680040   -0.624789
     64          6           0       12.185031    0.673767   -0.952409
     65          6           0       12.145379    0.818333   -2.481169
     66          6           0       13.617462    0.790113   -0.345315
     67          1           0       -1.746523   -0.241498    4.453127
     68          1           0       -1.490281    5.275475    1.042095
     69          1           0       -4.747824    2.564131   -3.768777
     70          1           0       -4.626506   -3.525104    2.320738
     71          1           0       -2.272222   -2.782190    3.695416
     72          1           0       -4.866530   -2.792514    4.769407
     73          1           0       -4.295166   -1.047951    4.773279
     74          1           0       -3.348333   -2.240882    5.473231
     75          1           0       -3.494365   -4.974897    1.140436
     76          1           0       -2.192064   -4.647142    2.144301
     77          1           0       -1.478661   -2.783242    0.463689
     78          1           0       -2.177140   -3.990530   -0.702621
     79          1           0        0.805898    1.953030    5.146121
     80          1           0       -0.723797    1.110006    5.561025
     81          1           0       -0.393273    2.929046    5.852956
     82          1           0       -1.314352    6.572700    2.781610
     83          1           0        0.443005    6.450682    2.282887
     84          1           0        0.017813    7.062911    3.795965
     85          1           0       -1.607011    5.498009   -1.697347
     86          1           0       -4.445915    5.059866   -2.338005
     87          1           0       -3.614095    6.281604    0.157082
     88          1           0       -3.978324    6.855426   -1.472779
     89          1           0       -2.341662    7.274614   -0.663285
     90          1           0       -2.852185    3.788876   -4.322501
     91          1           0       -1.879597    5.131561   -3.921917
     92          1           0       -4.537242    6.319688   -4.336383
     93          1           0       -4.292061    5.040003   -5.466125
     94          1           0       -3.136468    6.398798   -5.407692
     95          1           0       -6.950732   -0.567120   -4.570417
     96          1           0       -5.754034    0.498165   -5.192192
     97          1           0       -7.214496    1.097119   -4.240560
     98          1           0       -4.799551   -3.701149   -1.093928
     99          1           0       -8.588895   -2.241180    2.275768
    100          1           0       -8.520882   -3.964731    1.783898
    101          1           0       -9.494197   -2.774353    0.922337
    102          1           0        1.994554   -5.276278    0.412350
    103          1           0        2.451954   -4.030874    1.665246
    104          1           0        3.691892   -2.763430    0.082267
    105          1           0        1.255459   -4.897507   -1.872761
    106          1           0        2.431936   -5.165629   -3.163673
    107          1           0        1.321278   -3.786823   -3.247568
    108          1           0        3.839358   -3.291716   -3.469159
    109          1           0        4.888137   -2.977696   -2.212740
    110          1           0        2.944815   -0.743575   -1.959519
    111          1           0        2.850827   -1.314879   -3.673179
    112          1           0        4.614848   -0.012217   -4.195781
    113          1           0        5.590483   -1.320499   -3.454421
    114          1           0        4.588036    0.307830   -1.273726
    115          1           0        4.301860    2.331295   -2.181503
    116          1           0        5.170973    1.826592   -3.690784
    117          1           0        5.878588    2.516748   -2.217760
    118          1           0        7.431660    0.621755   -2.189053
    119          1           0        6.761572   -0.988550   -1.596169
    120          1           0        6.184676    1.183696    0.236869
    121          1           0        7.875772    1.186097   -0.051858
    122          1           0        7.092414   -1.604809    0.297567
    123          1           0        6.293585   -0.690323    1.580668
    124          1           0        8.791760    0.429705    1.777927
    125          1           0        7.577309   -1.797811    3.245364
    126          1           0        7.926535   -0.220417    3.845143
    127          1           0        9.249499   -1.382369    3.587539
    128          1           0        9.308905   -1.834166    0.084401
    129          1           0        9.810982   -2.333068    1.682544
    130          1           0       11.526945   -1.184296    1.520695
    131          1           0       10.792154    0.382472    1.043653
    132          1           0       10.757814   -0.914643   -1.377751
    133          1           0       12.226806   -1.499423   -0.669072
    134          1           0       11.575006    1.477646   -0.540325
    135          1           0       11.710106   -0.036142   -2.998528
    136          1           0       13.125703    1.020750   -2.911443
    137          1           0       11.531102    1.713872   -2.582020
    138          1           0       13.638521    1.579357    0.407290
    139          1           0       14.383926    1.068314   -1.067654
    140          1           0       13.933937   -0.141286    0.123853
 ---------------------------------------------------------------------

 SCF Done:  E(RZINDO/S) =  -473.767926498     A.U. after   20 cycles

 Excitation energies and oscillator strengths:

 Excited State   1:      Singlet-A      1.2264 eV 1010.95 nm  f=0.5778  <S**2>=0.000
     175 ->178        -0.19561
     176 ->177         0.66065
 This state for optimization and/or second-order correction.
 Total Energy, E(CIS/TDA) =  -473.722856586
 Copying the excited state density for this state as the 1-particle RhoCI density.

 Excited State   2:      Singlet-A      1.8681 eV  663.68 nm  f=0.0156  <S**2>=0.000
     175 ->177         0.52188
     176 ->178         0.45277

 Excited State   3:      Singlet-A      2.8657 eV  432.65 nm  f=0.0279  <S**2>=0.000
     170 ->177         0.30985
     170 ->178        -0.13173
     170 ->179         0.33284
     170 ->180        -0.33969
     170 ->185         0.19599
     170 ->187         0.14894
     170 ->200        -0.10282
     174 ->177         0.12282

 Excited State   4:      Singlet-A      2.9293 eV  423.26 nm  f=0.0010  <S**2>=0.000
     168 ->177         0.25035
     168 ->178        -0.12237
     168 ->179        -0.41438
     168 ->180        -0.31840
     168 ->184        -0.12264
     168 ->185        -0.20832
     168 ->187         0.11023
     168 ->193         0.11471
     176 ->179         0.16882

 Excited State   5:      Singlet-A      2.9474 eV  420.65 nm  f=1.0158  <S**2>=0.000
     172 ->177         0.12102
     174 ->177         0.13842
     175 ->177        -0.38602
     176 ->178         0.46718
     176 ->179        -0.14591
     176 ->180         0.13897

 The electronic state is 1-A.
 Alpha  occ. eigenvalues --   -1.84931  -1.83350  -1.80053  -1.71059  -1.70878
 Alpha  occ. eigenvalues --   -1.67501  -1.64493  -1.60620  -1.57260  -1.55976
 Alpha  occ. eigenvalues --   -1.54497  -1.51124  -1.47659  -1.46790  -1.46367
 Alpha  occ. eigenvalues --   -1.44578  -1.43026  -1.42204  -1.38403  -1.37993
 Alpha  occ. eigenvalues --   -1.36000  -1.33309  -1.31772  -1.30947  -1.28487
 Alpha  occ. eigenvalues --   -1.27536  -1.26511  -1.21613  -1.20462  -1.17833
 Alpha  occ. eigenvalues --   -1.16730  -1.16319  -1.14819  -1.13348  -1.11961
 Alpha  occ. eigenvalues --   -1.11497  -1.10931  -1.09964  -1.05834  -1.04873
 Alpha  occ. eigenvalues --   -1.02462  -1.01757  -1.00387  -0.98092  -0.96711
 Alpha  occ. eigenvalues --   -0.96452  -0.94331  -0.93665  -0.93311  -0.92456
 Alpha  occ. eigenvalues --   -0.91850  -0.91246  -0.88679  -0.88464  -0.86488
 Alpha  occ. eigenvalues --   -0.85995  -0.84738  -0.83764  -0.82033  -0.80829
 Alpha  occ. eigenvalues --   -0.79258  -0.78758  -0.78204  -0.77229  -0.76898
 Alpha  occ. eigenvalues --   -0.76339  -0.76257  -0.76068  -0.74460  -0.72904
 Alpha  occ. eigenvalues --   -0.72316  -0.72008  -0.71702  -0.71248  -0.70931
 Alpha  occ. eigenvalues --   -0.69838  -0.68849  -0.68265  -0.67878  -0.67473
 Alpha  occ. eigenvalues --   -0.67360  -0.66702  -0.66070  -0.65709  -0.65067
 Alpha  occ. eigenvalues --   -0.64907  -0.64344  -0.64168  -0.63881  -0.63568
 Alpha  occ. eigenvalues --   -0.63235  -0.63173  -0.62851  -0.62499  -0.62074
 Alpha  occ. eigenvalues --   -0.61880  -0.61644  -0.61051  -0.60884  -0.60601
 Alpha  occ. eigenvalues --   -0.60234  -0.59463  -0.59079  -0.58582  -0.58492
 Alpha  occ. eigenvalues --   -0.58393  -0.57711  -0.57409  -0.57347  -0.56938
 Alpha  occ. eigenvalues --   -0.56456  -0.56238  -0.55722  -0.55348  -0.55004
 Alpha  occ. eigenvalues --   -0.54587  -0.54335  -0.53887  -0.53787  -0.53457
 Alpha  occ. eigenvalues --   -0.53112  -0.52749  -0.52311  -0.51979  -0.51539
 Alpha  occ. eigenvalues --   -0.51441  -0.51311  -0.51155  -0.50806  -0.50483
 Alpha  occ. eigenvalues --   -0.50367  -0.50102  -0.49664  -0.49505  -0.49423
 Alpha  occ. eigenvalues --   -0.49162  -0.48992  -0.48457  -0.48106  -0.48034
 Alpha  occ. eigenvalues --   -0.47679  -0.47605  -0.47557  -0.47276  -0.46993
 Alpha  occ. eigenvalues --   -0.46283  -0.45975  -0.45861  -0.45395  -0.45308
 Alpha  occ. eigenvalues --   -0.45031  -0.44972  -0.44585  -0.44551  -0.43529
 Alpha  occ. eigenvalues --   -0.43515  -0.43319  -0.43206  -0.42811  -0.42485
 Alpha  occ. eigenvalues --   -0.42227  -0.41996  -0.41296  -0.39418  -0.38882
 Alpha  occ. eigenvalues --   -0.38805  -0.37872  -0.36279  -0.35663  -0.35050
 Alpha  occ. eigenvalues --   -0.33883  -0.32925  -0.32412  -0.32280  -0.27327
 Alpha  occ. eigenvalues --   -0.22195
 Alpha virt. eigenvalues --   -0.09075  -0.03103  -0.01354   0.00260   0.01337
 Alpha virt. eigenvalues --    0.01799   0.02014   0.02486   0.03838   0.04640
 Alpha virt. eigenvalues --    0.04950   0.05896   0.06482   0.06979   0.07480

 Mulliken charges:
               1
     1  Mg   0.431341
     2  C   -0.028133
     3  C   -0.055893
     4  C   -0.108280
     5  C   -0.086001
     6  N   -0.283615
     7  C    0.089707
     8  C    0.015357
     9  C   -0.006042
    10  C    0.118683
    11  C   -0.052671
    12  C   -0.013566
    13  C    0.012108
    14  C    0.462526
    15  O   -0.494161
    16  O   -0.301743
    17  N   -0.287236
    18  C    0.107190
    19  C    0.045081
    20  C   -0.075066
    21  C    0.156772
    22  C   -0.046049
    23  C    0.322210
    24  O   -0.523847
    25  C   -0.031866
    26  N   -0.272193
    27  C    0.137435
    28  C   -0.003832
    29  C    0.005603
    30  C    0.145576
    31  C   -0.060580
    32  C   -0.036927
    33  C   -0.063958
    34  N   -0.352845
    35  C    0.100610
    36  C    0.012070
    37  C   -0.029629
    38  C    0.103009
    39  C   -0.031448
    40  C    0.318519
    41  O   -0.535012
    42  C    0.061171
    43  C    0.492483
    44  O   -0.506056
    45  O   -0.265867
    46  C    0.071979
    47  C    0.092885
    48  C   -0.105672
    49  C    0.009907
    50  C   -0.038368
    51  C   -0.035454
    52  C   -0.035508
    53  C   -0.044926
    54  C   -0.013452
    55  C   -0.054202
    56  C   -0.038684
    57  C   -0.039114
    58  C   -0.032204
    59  C   -0.013072
    60  C   -0.059630
    61  C   -0.032856
    62  C   -0.047983
    63  C   -0.034183
    64  C   -0.009620
    65  C   -0.061730
    66  C   -0.057016
    67  H    0.040142
    68  H    0.027535
    69  H    0.029747
    70  H    0.032909
    71  H    0.025998
    72  H    0.037192
    73  H    0.025057
    74  H    0.015252
    75  H    0.033499
    76  H    0.018039
    77  H    0.035035
    78  H    0.050474
    79  H    0.041861
    80  H    0.022065
    81  H    0.051107
    82  H    0.031855
    83  H    0.042901
    84  H    0.032954
    85  H    0.034562
    86  H    0.035460
    87  H    0.022515
    88  H    0.030820
    89  H    0.028880
    90  H    0.023865
    91  H    0.019612
    92  H    0.022002
    93  H    0.016391
    94  H    0.023898
    95  H    0.025936
    96  H    0.034298
    97  H    0.038226
    98  H    0.056911
    99  H    0.026229
   100  H    0.055099
   101  H    0.043144
   102  H    0.058987
   103  H    0.037201
   104  H    0.035404
   105  H    0.027255
   106  H    0.033719
   107  H    0.031207
   108  H    0.007083
   109  H    0.028942
   110  H    0.043574
   111  H    0.015553
   112  H    0.022730
   113  H    0.027873
   114  H    0.021346
   115  H    0.010729
   116  H    0.022402
   117  H    0.007492
   118  H    0.021479
   119  H    0.021375
   120  H    0.015977
   121  H    0.021326
   122  H    0.025684
   123  H    0.017912
   124  H    0.021209
   125  H    0.010408
   126  H    0.015999
   127  H    0.018668
   128  H    0.011956
   129  H    0.021368
   130  H    0.014839
   131  H    0.022289
   132  H    0.018000
   133  H    0.018009
   134  H    0.023106
   135  H    0.024736
   136  H    0.017570
   137  H    0.015174
   138  H    0.014573
   139  H    0.019006
   140  H    0.020343
 Sum of Mulliken charges =  -0.00000

 Dipole moment (field-independent basis, Debye):
    X=              1.1330    Y=              7.8163    Z=              1.0655  Tot=              7.9695
 N-N= 4.536991110744D+03 E-N= 0.000000000000D+00  KE=-9.747010351490D+03
 Leave Link  601 at Wed May  4 00:29:12 2022, MaxMem=  6710886400 cpu:               0.8 elap:               0.1
 (Enter /sw/apps/gaussian-16.0/g16/l9999.exe)
 1\1\GINC-BP1-COMPUTE057\SP\RZINDO CIS\STO-3G\C55H74Mg1N4O6\OF15641\04-
 May-2022\0\\#p ZINDO=(nstates=5)\\step_1101_chromophore_26 ZINDO\\0,1\
 Mg,0,-9.316,18.656,42.937\C,0,-5.902,17.798,43.083\C,0,-8.482,21.978,4
 2.602\C,0,-12.545,19.327,42.386\C,0,-10.047,15.145,42.766\N,0,-7.361,1
 9.7,42.636\C,0,-6.038,19.206,42.825\C,0,-5.018,20.386,42.813\C,0,-5.96
 3,21.675,42.978\C,0,-7.378,21.079,42.619\C,0,-5.885,22.552,44.319\C,0,
 -4.143,20.197,41.552\C,0,-4.71,19.527,40.278\C,0,-4.354,20.085,38.915\

 Normal termination of Gaussian 16 at Wed May  4 00:29:12 2022.
