 Gaussian 16, Revision A.03,
 Gaussian 16:  ES64L-G16RevA.03 25-Dec-2016

 ------------------------------
 #p blyp/Def2SVP td=(nstates=5)
 ------------------------------

 --------------------------------------------------
 step_1101_chromophore_5 TDDFT with blyp functional
 --------------------------------------------------
 Symbolic Z-matrix:
 Charge =  0 Multiplicity = 1

                         Standard orientation:
 ---------------------------------------------------------------------
 Center     Atomic      Atomic             Coordinates (Angstroms)
 Number     Number       Type             X           Y           Z
 ---------------------------------------------------------------------
      1         12           0        5.520206    0.456890   -0.328150
      2          6           0        3.768728   -2.669468   -0.272572
      3          6           0        3.201027    1.572958   -2.533413
      4          6           0        6.525947    3.534088    0.370362
      5          6           0        7.393526   -0.852427    2.400492
      6          7           0        3.685823   -0.504481   -1.243578
      7          6           0        3.205254   -1.773481   -1.113295
      8          6           0        1.882092   -1.932168   -1.909149
      9          6           0        1.952950   -0.600343   -2.810398
     10          6           0        3.084787    0.201309   -2.260790
     11          6           0        2.169115   -0.942027   -4.326581
     12          6           0        0.621407   -2.155068   -1.044638
     13          6           0       -0.343117   -3.346674   -1.351710
     14          6           0       -1.868262   -2.895796   -1.357361
     15          8           0       -2.817736   -3.568885   -1.004059
     16          8           0       -2.114186   -1.634582   -1.946193
     17          7           0        5.061884    2.311737   -1.091087
     18          6           0        4.007381    2.550607   -2.004095
     19          6           0        4.012579    3.956733   -2.248665
     20          6           0        4.997226    4.583053   -1.470368
     21          6           0        5.546246    3.470379   -0.697110
     22          6           0        2.990426    4.630601   -3.149895
     23          6           0        5.388812    6.077465   -1.562230
     24          8           0        4.829078    6.882093   -2.332232
     25          6           0        6.541904    6.589327   -0.740280
     26          7           0        6.902965    1.232354    1.091219
     27          6           0        7.047069    2.589347    1.215471
     28          6           0        7.873766    2.916440    2.447909
     29          6           0        8.226808    1.517990    3.113954
     30          6           0        7.561146    0.471065    2.132666
     31          6           0        9.169767    3.747153    2.166232
     32          6           0        7.683615    1.334076    4.609861
     33          6           0        8.591820    0.552163    5.540350
     34          7           0        5.827652   -1.483337    0.657901
     35          6           0        6.533140   -1.788613    1.792770
     36          6           0        6.370447   -3.192346    2.104710
     37          6           0        5.336688   -3.627785    1.280704
     38          6           0        4.941940   -2.512440    0.515634
     39          6           0        7.118097   -3.900622    3.171435
     40          6           0        4.453625   -4.698461    0.913655
     41          8           0        4.367086   -5.898532    1.238358
     42          6           0        3.357490   -4.091280   -0.103787
     43          6           0        3.198821   -4.860100   -1.423439
     44          8           0        2.182416   -5.362104   -1.835933
     45          8           0        4.419514   -4.951470   -2.068366
     46          6           0        4.359856   -5.485324   -3.409412
     47          6           0       -3.491360   -1.187535   -2.010657
     48          6           0       -3.591707   -0.170485   -0.952613
     49          6           0       -4.534249   -0.158938    0.033557
     50          6           0       -5.484247   -1.252113    0.470148
     51          6           0       -4.444809    0.991122    0.964086
     52          6           0       -5.141765    2.386199    0.605471
     53          6           0       -6.633575    2.457509    0.965753
     54          6           0       -7.547704    2.678008   -0.255001
     55          6           0       -7.599431    4.211210   -0.748398
     56          6           0       -8.959285    2.170326    0.032276
     57          6           0       -9.125167    0.639933   -0.126312
     58          6           0       -9.463978   -0.091926    1.237231
     59          6           0      -10.777570   -0.897773    1.131794
     60          6           0      -10.737075   -2.427055    1.293047
     61          6           0      -11.880121   -0.254038    1.974520
     62          6           0      -13.366822   -0.711618    1.773180
     63          6           0      -14.462353    0.492035    1.881963
     64          6           0      -15.284495    0.496661    0.595715
     65          6           0      -14.939647    1.797825   -0.052625
     66          6           0      -16.796177    0.564798    0.891398
     67          1           0        2.479143    1.875250   -3.294512
     68          1           0        6.757924    4.533096    0.746549
     69          1           0        8.004918   -1.162789    3.250064
     70          1           0        2.003122   -2.814790   -2.536422
     71          1           0        1.036724   -0.013862   -2.744397
     72          1           0        2.877831   -0.190078   -4.674326
     73          1           0        1.227075   -0.724460   -4.829726
     74          1           0        2.519468   -1.959287   -4.496910
     75          1           0        0.125334   -1.192295   -0.920602
     76          1           0        1.023751   -2.338553   -0.048108
     77          1           0       -0.112972   -4.141669   -0.642827
     78          1           0       -0.108972   -3.768378   -2.328821
     79          1           0        3.547626    5.368070   -3.727941
     80          1           0        2.326635    5.201191   -2.500989
     81          1           0        2.400691    3.901320   -3.704191
     82          1           0        7.380905    5.894421   -0.718453
     83          1           0        6.274254    6.731355    0.306434
     84          1           0        6.845744    7.515079   -1.227889
     85          1           0        7.200682    3.477968    3.095583
     86          1           0        9.294584    1.317045    3.198096
     87          1           0        9.070602    4.362205    1.271731
     88          1           0        9.983027    3.070753    1.900296
     89          1           0        9.350243    4.239846    3.121000
     90          1           0        6.755291    0.762249    4.622887
     91          1           0        7.399902    2.302321    5.023619
     92          1           0        8.113536   -0.415650    5.692133
     93          1           0        8.692604    0.994602    6.530848
     94          1           0        9.535595    0.504701    4.996607
     95          1           0        6.725795   -3.732696    4.174925
     96          1           0        8.153467   -3.564236    3.112696
     97          1           0        7.110698   -4.974758    2.982538
     98          1           0        2.319208   -4.100163    0.227969
     99          1           0        3.576440   -5.011954   -4.001997
    100          1           0        4.153750   -6.555530   -3.426154
    101          1           0        5.332299   -5.238257   -3.834117
    102          1           0       -4.324150   -1.870274   -1.839958
    103          1           0       -3.539261   -0.608560   -2.933164
    104          1           0       -2.979100    0.713137   -1.133127
    105          1           0       -4.956971   -1.888414    1.181138
    106          1           0       -5.850365   -1.967503   -0.266838
    107          1           0       -6.385274   -0.860434    0.942053
    108          1           0       -3.440569    1.353506    1.183572
    109          1           0       -4.811601    0.762563    1.964963
    110          1           0       -5.046668    2.497287   -0.474575
    111          1           0       -4.649864    3.254800    1.045091
    112          1           0       -6.804164    3.334105    1.589913
    113          1           0       -6.908769    1.543873    1.493940
    114          1           0       -7.213971    2.099044   -1.116398
    115          1           0       -7.282601    4.222967   -1.791539
    116          1           0       -6.940851    4.873624   -0.186685
    117          1           0       -8.625860    4.572747   -0.682758
    118          1           0       -9.536569    2.758726   -0.681303
    119          1           0       -9.213022    2.611145    0.997106
    120          1           0       -8.264515    0.113588   -0.537712
    121          1           0       -9.922097    0.520987   -0.860957
    122          1           0       -9.459617    0.653372    2.032619
    123          1           0       -8.700341   -0.862143    1.351482
    124          1           0      -11.207331   -0.863662    0.130709
    125          1           0      -11.566461   -2.871564    0.742521
    126          1           0      -10.746469   -2.709493    2.344900
    127          1           0       -9.826892   -2.817825    0.838730
    128          1           0      -11.751038    0.823660    2.071569
    129          1           0      -11.580651   -0.640656    2.948973
    130          1           0      -13.624781   -1.294313    2.658499
    131          1           0      -13.604831   -1.179837    0.818328
    132          1           0      -13.926525    1.420010    2.081066
    133          1           0      -14.982100    0.353969    2.830428
    134          1           0      -15.049812   -0.362279   -0.033842
    135          1           0      -15.231126    1.749224   -1.102091
    136          1           0      -13.866588    1.961238   -0.155870
    137          1           0      -15.425004    2.676419    0.372780
    138          1           0      -17.101901   -0.335982    0.358735
    139          1           0      -17.431749    1.439529    0.752604
    140          1           0      -16.961137    0.335722    1.944209
 ---------------------------------------------------------------------

 SCF Done:  E(RB-LYP) =  -3007.36644451     A.U. after   21 cycles

 Excitation energies and oscillator strengths:

 Excited State   1:      Singlet-A      1.7736 eV  699.07 nm  f=0.0441  <S**2>=0.000
     244 -> 247        0.61489
     245 -> 247        0.20039
     246 -> 247        0.28024
 This state for optimization and/or second-order correction.
 Total Energy, E(TD-HF/TD-DFT) =  -3007.30126700
 Copying the excited state density for this state as the 1-particle RhoCI density.

 Excited State   2:      Singlet-A      1.8276 eV  678.41 nm  f=0.2704  <S**2>=0.000
     244 -> 247       -0.27558
     245 -> 248       -0.16071
     246 -> 247        0.63432
     246 <- 247       -0.14148

 Excited State   3:      Singlet-A      1.9749 eV  627.79 nm  f=0.0079  <S**2>=0.000
     243 -> 247        0.67084
     245 -> 247       -0.19395

 Excited State   4:      Singlet-A      2.0232 eV  612.80 nm  f=0.0450  <S**2>=0.000
     242 -> 247        0.46640
     243 -> 247       -0.19151
     244 -> 247        0.14736
     245 -> 247       -0.43624
     246 -> 248       -0.15096

 Excited State   5:      Singlet-A      2.0495 eV  604.95 nm  f=0.0366  <S**2>=0.000
     242 -> 247        0.52879
     243 -> 247        0.10994
     244 -> 247       -0.12457
     245 -> 247        0.39757
     246 -> 248        0.15162

 The electronic state is 1-A.
 Alpha  occ. eigenvalues --  -46.28168 -18.82372 -18.81153 -18.78014 -18.76528
 Alpha  occ. eigenvalues --  -18.76392 -18.75740 -14.03910 -14.03216 -14.01779
 Alpha  occ. eigenvalues --  -14.01329 -10.04590 -10.04228 -10.00921 -10.00223
 Alpha  occ. eigenvalues --   -9.97916  -9.97119  -9.97077  -9.96965  -9.96861
 Alpha  occ. eigenvalues --   -9.96860  -9.96528  -9.95992  -9.95772  -9.95007
 Alpha  occ. eigenvalues --   -9.94922  -9.94625  -9.94412  -9.94187  -9.94138
 Alpha  occ. eigenvalues --   -9.94043  -9.93977  -9.93868  -9.93864  -9.93636
 Alpha  occ. eigenvalues --   -9.93198  -9.93108  -9.93100  -9.93064  -9.93036
 Alpha  occ. eigenvalues --   -9.92881  -9.92863  -9.92778  -9.92545  -9.92349
 Alpha  occ. eigenvalues --   -9.92293  -9.92184  -9.92020  -9.91726  -9.91705
 Alpha  occ. eigenvalues --   -9.91458  -9.91386  -9.91337  -9.91320  -9.91252
 Alpha  occ. eigenvalues --   -9.91219  -9.91118  -9.91088  -9.90949  -9.90689
 Alpha  occ. eigenvalues --   -9.90615  -9.90599  -9.90543  -9.90505  -9.90299
 Alpha  occ. eigenvalues --   -9.90199  -2.92630  -1.73073  -1.72470  -1.72372
 Alpha  occ. eigenvalues --   -0.98606  -0.96790  -0.91170  -0.91044  -0.90042
 Alpha  occ. eigenvalues --   -0.89163  -0.87058  -0.86631  -0.85789  -0.83844
 Alpha  occ. eigenvalues --   -0.76278  -0.73397  -0.72816  -0.72761  -0.72246
 Alpha  occ. eigenvalues --   -0.72141  -0.72011  -0.71636  -0.71065  -0.70822
 Alpha  occ. eigenvalues --   -0.70267  -0.69114  -0.68237  -0.67862  -0.67194
 Alpha  occ. eigenvalues --   -0.66605  -0.66038  -0.65534  -0.65396  -0.64742
 Alpha  occ. eigenvalues --   -0.63534  -0.62825  -0.62120  -0.61951  -0.61125
 Alpha  occ. eigenvalues --   -0.60564  -0.60228  -0.59906  -0.59368  -0.58756
 Alpha  occ. eigenvalues --   -0.58633  -0.57459  -0.57136  -0.55682  -0.54773
 Alpha  occ. eigenvalues --   -0.54324  -0.53872  -0.53072  -0.52253  -0.52133
 Alpha  occ. eigenvalues --   -0.51616  -0.51272  -0.50994  -0.50732  -0.50073
 Alpha  occ. eigenvalues --   -0.49766  -0.48938  -0.48800  -0.48202  -0.46838
 Alpha  occ. eigenvalues --   -0.46623  -0.46557  -0.45973  -0.45395  -0.44709
 Alpha  occ. eigenvalues --   -0.44115  -0.43692  -0.43614  -0.42899  -0.42447
 Alpha  occ. eigenvalues --   -0.42100  -0.41502  -0.41361  -0.41046  -0.40895
 Alpha  occ. eigenvalues --   -0.40834  -0.40648  -0.40434  -0.40126  -0.39952
 Alpha  occ. eigenvalues --   -0.39871  -0.39824  -0.39569  -0.39452  -0.39348
 Alpha  occ. eigenvalues --   -0.39326  -0.39156  -0.39038  -0.38682  -0.38376
 Alpha  occ. eigenvalues --   -0.38277  -0.38121  -0.37845  -0.37497  -0.37316
 Alpha  occ. eigenvalues --   -0.36985  -0.36880  -0.36719  -0.36393  -0.36271
 Alpha  occ. eigenvalues --   -0.36224  -0.36038  -0.35939  -0.35806  -0.35713
 Alpha  occ. eigenvalues --   -0.35625  -0.35325  -0.35239  -0.35200  -0.35014
 Alpha  occ. eigenvalues --   -0.34856  -0.34691  -0.34503  -0.34360  -0.34070
 Alpha  occ. eigenvalues --   -0.33853  -0.33810  -0.33532  -0.33464  -0.33249
 Alpha  occ. eigenvalues --   -0.33025  -0.32614  -0.32558  -0.32419  -0.32270
 Alpha  occ. eigenvalues --   -0.32127  -0.31916  -0.31823  -0.31739  -0.31588
 Alpha  occ. eigenvalues --   -0.31164  -0.31159  -0.31108  -0.30865  -0.30722
 Alpha  occ. eigenvalues --   -0.30480  -0.30447  -0.30356  -0.30148  -0.30025
 Alpha  occ. eigenvalues --   -0.29854  -0.29677  -0.29616  -0.29451  -0.29242
 Alpha  occ. eigenvalues --   -0.28890  -0.28667  -0.28282  -0.28028  -0.28020
 Alpha  occ. eigenvalues --   -0.27638  -0.27559  -0.27146  -0.26913  -0.26691
 Alpha  occ. eigenvalues --   -0.26405  -0.25933  -0.25697  -0.25533  -0.24996
 Alpha  occ. eigenvalues --   -0.24794  -0.24487  -0.23848  -0.23707  -0.23648
 Alpha  occ. eigenvalues --   -0.23467  -0.22951  -0.22418  -0.21471  -0.21298
 Alpha  occ. eigenvalues --   -0.20866  -0.19789  -0.19492  -0.18793  -0.18020
 Alpha  occ. eigenvalues --   -0.16570
 Alpha virt. eigenvalues --   -0.12303  -0.07287  -0.06676  -0.05497  -0.03408
 Alpha virt. eigenvalues --   -0.03082  -0.02653  -0.02574  -0.02151  -0.00253
 Alpha virt. eigenvalues --    0.00845   0.01025   0.02047   0.02543   0.02627

 Mulliken charges:
               1
     1  Mg   0.679185
     2  C    0.077511
     3  C   -0.089183
     4  C   -0.042931
     5  C   -0.059967
     6  N   -0.213368
     7  C   -0.160817
     8  C    0.042498
     9  C   -0.036886
    10  C    0.048173
    11  C    0.125387
    12  C    0.114003
    13  C    0.142428
    14  C    0.089087
    15  O   -0.179058
    16  O   -0.299382
    17  N   -0.295398
    18  C    0.194001
    19  C   -0.157101
    20  C    0.039613
    21  C    0.096029
    22  C    0.196879
    23  C   -0.059094
    24  O   -0.180063
    25  C    0.120901
    26  N   -0.290739
    27  C    0.005342
    28  C    0.037294
    29  C    0.015657
    30  C    0.036559
    31  C    0.126515
    32  C    0.044923
    33  C    0.075436
    34  N   -0.227772
    35  C    0.139963
    36  C   -0.202782
    37  C    0.148939
    38  C    0.023755
    39  C    0.170098
    40  C   -0.022294
    41  O   -0.147827
    42  C    0.090925
    43  C    0.064549
    44  O   -0.159479
    45  O   -0.273702
    46  C    0.223947
    47  C    0.389492
    48  C   -0.161710
    49  C   -0.074759
    50  C    0.132679
    51  C    0.104180
    52  C    0.074618
    53  C    0.110951
    54  C   -0.133608
    55  C    0.102088
    56  C    0.099785
    57  C    0.078335
    58  C    0.131506
    59  C   -0.081786
    60  C    0.105461
    61  C    0.071211
    62  C    0.064082
    63  C    0.086039
    64  C   -0.077269
    65  C    0.106434
    66  C    0.114910
    67  H   -0.057177
    68  H   -0.075454
    69  H   -0.072125
    70  H   -0.023016
    71  H   -0.014508
    72  H   -0.016874
    73  H   -0.004886
    74  H    0.004057
    75  H   -0.013558
    76  H   -0.027458
    77  H    0.014680
    78  H    0.020262
    79  H    0.016333
    80  H    0.003512
    81  H   -0.020390
    82  H    0.005497
    83  H    0.023624
    84  H   -0.000648
    85  H   -0.015325
    86  H   -0.018547
    87  H   -0.005383
    88  H   -0.011882
    89  H    0.003875
    90  H   -0.018465
    91  H   -0.024307
    92  H    0.002763
    93  H   -0.007226
    94  H   -0.009078
    95  H    0.010009
    96  H   -0.004812
    97  H    0.004427
    98  H   -0.022150
    99  H    0.002500
   100  H    0.017913
   101  H    0.013425
   102  H   -0.003436
   103  H   -0.025739
   104  H   -0.037080
   105  H    0.015622
   106  H   -0.004949
   107  H   -0.003222
   108  H   -0.033298
   109  H   -0.042260
   110  H   -0.038973
   111  H   -0.033318
   112  H   -0.037524
   113  H   -0.028326
   114  H   -0.037637
   115  H   -0.013732
   116  H   -0.017395
   117  H   -0.014636
   118  H   -0.048255
   119  H   -0.035583
   120  H   -0.023440
   121  H   -0.023863
   122  H   -0.015810
   123  H   -0.041153
   124  H   -0.044119
   125  H   -0.011002
   126  H   -0.020730
   127  H   -0.020848
   128  H   -0.029458
   129  H   -0.046506
   130  H   -0.025931
   131  H   -0.017020
   132  H   -0.036564
   133  H   -0.041071
   134  H   -0.020995
   135  H   -0.039419
   136  H   -0.027581
   137  H   -0.007920
   138  H   -0.021550
   139  H   -0.004172
   140  H   -0.035117
 Sum of Mulliken charges =  -0.00000

 Dipole moment (field-independent basis, Debye):
    X=              2.9712    Y=              3.6328    Z=              0.8224  Tot=              4.7646
 Quadrupole moment (field-independent basis, Debye-Ang):
   XX=           -367.7914   YY=           -465.3948   ZZ=           -385.7176
   XY=              3.4840   XZ=             13.9499   YZ=             27.7414

 Normal termination of Gaussian 16 at Wed Apr 27 09:25:01 2022.
