 Gaussian 16, Revision A.03,
 Gaussian 16:  ES64L-G16RevA.03 25-Dec-2016

 -----------------------------------
 #p cam-b3lyp/Def2SVP td=(nstates=5)
 -----------------------------------

 -------------------------------------------------------
 step_1101_chromophore_5 TDDFT with cam-b3lyp functional
 -------------------------------------------------------
 Symbolic Z-matrix:
 Charge =  0 Multiplicity = 1

                         Standard orientation:
 ---------------------------------------------------------------------
 Center     Atomic      Atomic             Coordinates (Angstroms)
 Number     Number       Type             X           Y           Z
 ---------------------------------------------------------------------
      1         12           0        5.520206    0.456890   -0.328150
      2          6           0        3.768728   -2.669468   -0.272572
      3          6           0        3.201027    1.572958   -2.533413
      4          6           0        6.525947    3.534088    0.370362
      5          6           0        7.393526   -0.852427    2.400492
      6          7           0        3.685823   -0.504481   -1.243578
      7          6           0        3.205254   -1.773481   -1.113295
      8          6           0        1.882092   -1.932168   -1.909149
      9          6           0        1.952950   -0.600343   -2.810398
     10          6           0        3.084787    0.201309   -2.260790
     11          6           0        2.169115   -0.942027   -4.326581
     12          6           0        0.621407   -2.155068   -1.044638
     13          6           0       -0.343117   -3.346674   -1.351710
     14          6           0       -1.868262   -2.895796   -1.357361
     15          8           0       -2.817736   -3.568885   -1.004059
     16          8           0       -2.114186   -1.634582   -1.946193
     17          7           0        5.061884    2.311737   -1.091087
     18          6           0        4.007381    2.550607   -2.004095
     19          6           0        4.012579    3.956733   -2.248665
     20          6           0        4.997226    4.583053   -1.470368
     21          6           0        5.546246    3.470379   -0.697110
     22          6           0        2.990426    4.630601   -3.149895
     23          6           0        5.388812    6.077465   -1.562230
     24          8           0        4.829078    6.882093   -2.332232
     25          6           0        6.541904    6.589327   -0.740280
     26          7           0        6.902965    1.232354    1.091219
     27          6           0        7.047069    2.589347    1.215471
     28          6           0        7.873766    2.916440    2.447909
     29          6           0        8.226808    1.517990    3.113954
     30          6           0        7.561146    0.471065    2.132666
     31          6           0        9.169767    3.747153    2.166232
     32          6           0        7.683615    1.334076    4.609861
     33          6           0        8.591820    0.552163    5.540350
     34          7           0        5.827652   -1.483337    0.657901
     35          6           0        6.533140   -1.788613    1.792770
     36          6           0        6.370447   -3.192346    2.104710
     37          6           0        5.336688   -3.627785    1.280704
     38          6           0        4.941940   -2.512440    0.515634
     39          6           0        7.118097   -3.900622    3.171435
     40          6           0        4.453625   -4.698461    0.913655
     41          8           0        4.367086   -5.898532    1.238358
     42          6           0        3.357490   -4.091280   -0.103787
     43          6           0        3.198821   -4.860100   -1.423439
     44          8           0        2.182416   -5.362104   -1.835933
     45          8           0        4.419514   -4.951470   -2.068366
     46          6           0        4.359856   -5.485324   -3.409412
     47          6           0       -3.491360   -1.187535   -2.010657
     48          6           0       -3.591707   -0.170485   -0.952613
     49          6           0       -4.534249   -0.158938    0.033557
     50          6           0       -5.484247   -1.252113    0.470148
     51          6           0       -4.444809    0.991122    0.964086
     52          6           0       -5.141765    2.386199    0.605471
     53          6           0       -6.633575    2.457509    0.965753
     54          6           0       -7.547704    2.678008   -0.255001
     55          6           0       -7.599431    4.211210   -0.748398
     56          6           0       -8.959285    2.170326    0.032276
     57          6           0       -9.125167    0.639933   -0.126312
     58          6           0       -9.463978   -0.091926    1.237231
     59          6           0      -10.777570   -0.897773    1.131794
     60          6           0      -10.737075   -2.427055    1.293047
     61          6           0      -11.880121   -0.254038    1.974520
     62          6           0      -13.366822   -0.711618    1.773180
     63          6           0      -14.462353    0.492035    1.881963
     64          6           0      -15.284495    0.496661    0.595715
     65          6           0      -14.939647    1.797825   -0.052625
     66          6           0      -16.796177    0.564798    0.891398
     67          1           0        2.479143    1.875250   -3.294512
     68          1           0        6.757924    4.533096    0.746549
     69          1           0        8.004918   -1.162789    3.250064
     70          1           0        2.003122   -2.814790   -2.536422
     71          1           0        1.036724   -0.013862   -2.744397
     72          1           0        2.877831   -0.190078   -4.674326
     73          1           0        1.227075   -0.724460   -4.829726
     74          1           0        2.519468   -1.959287   -4.496910
     75          1           0        0.125334   -1.192295   -0.920602
     76          1           0        1.023751   -2.338553   -0.048108
     77          1           0       -0.112972   -4.141669   -0.642827
     78          1           0       -0.108972   -3.768378   -2.328821
     79          1           0        3.547626    5.368070   -3.727941
     80          1           0        2.326635    5.201191   -2.500989
     81          1           0        2.400691    3.901320   -3.704191
     82          1           0        7.380905    5.894421   -0.718453
     83          1           0        6.274254    6.731355    0.306434
     84          1           0        6.845744    7.515079   -1.227889
     85          1           0        7.200682    3.477968    3.095583
     86          1           0        9.294584    1.317045    3.198096
     87          1           0        9.070602    4.362205    1.271731
     88          1           0        9.983027    3.070753    1.900296
     89          1           0        9.350243    4.239846    3.121000
     90          1           0        6.755291    0.762249    4.622887
     91          1           0        7.399902    2.302321    5.023619
     92          1           0        8.113536   -0.415650    5.692133
     93          1           0        8.692604    0.994602    6.530848
     94          1           0        9.535595    0.504701    4.996607
     95          1           0        6.725795   -3.732696    4.174925
     96          1           0        8.153467   -3.564236    3.112696
     97          1           0        7.110698   -4.974758    2.982538
     98          1           0        2.319208   -4.100163    0.227969
     99          1           0        3.576440   -5.011954   -4.001997
    100          1           0        4.153750   -6.555530   -3.426154
    101          1           0        5.332299   -5.238257   -3.834117
    102          1           0       -4.324150   -1.870274   -1.839958
    103          1           0       -3.539261   -0.608560   -2.933164
    104          1           0       -2.979100    0.713137   -1.133127
    105          1           0       -4.956971   -1.888414    1.181138
    106          1           0       -5.850365   -1.967503   -0.266838
    107          1           0       -6.385274   -0.860434    0.942053
    108          1           0       -3.440569    1.353506    1.183572
    109          1           0       -4.811601    0.762563    1.964963
    110          1           0       -5.046668    2.497287   -0.474575
    111          1           0       -4.649864    3.254800    1.045091
    112          1           0       -6.804164    3.334105    1.589913
    113          1           0       -6.908769    1.543873    1.493940
    114          1           0       -7.213971    2.099044   -1.116398
    115          1           0       -7.282601    4.222967   -1.791539
    116          1           0       -6.940851    4.873624   -0.186685
    117          1           0       -8.625860    4.572747   -0.682758
    118          1           0       -9.536569    2.758726   -0.681303
    119          1           0       -9.213022    2.611145    0.997106
    120          1           0       -8.264515    0.113588   -0.537712
    121          1           0       -9.922097    0.520987   -0.860957
    122          1           0       -9.459617    0.653372    2.032619
    123          1           0       -8.700341   -0.862143    1.351482
    124          1           0      -11.207331   -0.863662    0.130709
    125          1           0      -11.566461   -2.871564    0.742521
    126          1           0      -10.746469   -2.709493    2.344900
    127          1           0       -9.826892   -2.817825    0.838730
    128          1           0      -11.751038    0.823660    2.071569
    129          1           0      -11.580651   -0.640656    2.948973
    130          1           0      -13.624781   -1.294313    2.658499
    131          1           0      -13.604831   -1.179837    0.818328
    132          1           0      -13.926525    1.420010    2.081066
    133          1           0      -14.982100    0.353969    2.830428
    134          1           0      -15.049812   -0.362279   -0.033842
    135          1           0      -15.231126    1.749224   -1.102091
    136          1           0      -13.866588    1.961238   -0.155870
    137          1           0      -15.425004    2.676419    0.372780
    138          1           0      -17.101901   -0.335982    0.358735
    139          1           0      -17.431749    1.439529    0.752604
    140          1           0      -16.961137    0.335722    1.944209
 ---------------------------------------------------------------------

 SCF Done:  E(RCAM-B3LYP) =  -3007.15666386     A.U. after   17 cycles

 Excitation energies and oscillator strengths:

 Excited State   1:      Singlet-A      1.7294 eV  716.91 nm  f=0.3876  <S**2>=0.000
     245 -> 248        0.17061
     246 -> 247        0.68793
     245 <- 248        0.10375
 This state for optimization and/or second-order correction.
 Total Energy, E(TD-HF/TD-DFT) =  -3007.09310900
 Copying the excited state density for this state as the 1-particle RhoCI density.

 Excited State   2:      Singlet-A      2.2766 eV  544.59 nm  f=0.1253  <S**2>=0.000
     245 -> 247        0.64630
     246 -> 248       -0.27243

 Excited State   3:      Singlet-A      3.3372 eV  371.52 nm  f=0.0008  <S**2>=0.000
     241 -> 247       -0.15612
     242 -> 247       -0.24323
     242 -> 249        0.11879
     242 -> 250       -0.10854
     243 -> 247        0.60055

 Excited State   4:      Singlet-A      3.4295 eV  361.52 nm  f=0.0017  <S**2>=0.000
     241 -> 247        0.60899
     242 -> 247       -0.17819
     242 -> 249        0.17675
     242 -> 250       -0.13785
     246 -> 248       -0.13276

 Excited State   5:      Singlet-A      3.4750 eV  356.79 nm  f=0.0017  <S**2>=0.000
     240 -> 247        0.13568
     241 -> 247        0.18469
     242 -> 247        0.48118
     242 -> 249       -0.18959
     242 -> 250        0.15927
     243 -> 247        0.31204
     246 -> 248       -0.15380

 The electronic state is 1-A.
 Alpha  occ. eigenvalues --  -46.89820 -19.25251 -19.23960 -19.21218 -19.19899
 Alpha  occ. eigenvalues --  -19.19576 -19.18779 -14.43260 -14.41739 -14.40503
 Alpha  occ. eigenvalues --  -14.39648 -10.40102 -10.39641 -10.36486 -10.35531
 Alpha  occ. eigenvalues --  -10.32072 -10.31822 -10.31775 -10.31507 -10.31354
 Alpha  occ. eigenvalues --  -10.30821 -10.30805 -10.30760 -10.29646 -10.29124
 Alpha  occ. eigenvalues --  -10.28987 -10.28831 -10.28595 -10.28591 -10.28569
 Alpha  occ. eigenvalues --  -10.28520 -10.28304 -10.28299 -10.28084 -10.27838
 Alpha  occ. eigenvalues --  -10.27781 -10.27199 -10.26997 -10.26926 -10.26729
 Alpha  occ. eigenvalues --  -10.26722 -10.26662 -10.26564 -10.26495 -10.26189
 Alpha  occ. eigenvalues --  -10.25944 -10.25820 -10.25807 -10.25556 -10.25334
 Alpha  occ. eigenvalues --  -10.25143 -10.25138 -10.25031 -10.25002 -10.24980
 Alpha  occ. eigenvalues --  -10.24959 -10.24946 -10.24802 -10.24613 -10.24350
 Alpha  occ. eigenvalues --  -10.24260 -10.24216 -10.24205 -10.24196 -10.23852
 Alpha  occ. eigenvalues --  -10.23748  -3.18178  -1.93099  -1.92588  -1.92505
 Alpha  occ. eigenvalues --   -1.17196  -1.15232  -1.09681  -1.09138  -1.08252
 Alpha  occ. eigenvalues --   -1.07001  -1.05077  -1.04302  -1.03429  -1.01230
 Alpha  occ. eigenvalues --   -0.93437  -0.90265  -0.89768  -0.89551  -0.89023
 Alpha  occ. eigenvalues --   -0.88762  -0.88740  -0.88140  -0.87684  -0.87489
 Alpha  occ. eigenvalues --   -0.86868  -0.85628  -0.84344  -0.84091  -0.83459
 Alpha  occ. eigenvalues --   -0.82684  -0.82202  -0.81594  -0.81113  -0.80576
 Alpha  occ. eigenvalues --   -0.79303  -0.78531  -0.77956  -0.77392  -0.76640
 Alpha  occ. eigenvalues --   -0.75936  -0.75566  -0.75240  -0.74668  -0.73872
 Alpha  occ. eigenvalues --   -0.73755  -0.72476  -0.72040  -0.70591  -0.69296
 Alpha  occ. eigenvalues --   -0.68887  -0.68467  -0.67759  -0.66626  -0.66294
 Alpha  occ. eigenvalues --   -0.65897  -0.65466  -0.64910  -0.64851  -0.64108
 Alpha  occ. eigenvalues --   -0.63498  -0.62794  -0.62654  -0.62083  -0.60623
 Alpha  occ. eigenvalues --   -0.60190  -0.60125  -0.59628  -0.58778  -0.58067
 Alpha  occ. eigenvalues --   -0.57641  -0.57016  -0.56930  -0.56111  -0.55839
 Alpha  occ. eigenvalues --   -0.55318  -0.54556  -0.54296  -0.53997  -0.53781
 Alpha  occ. eigenvalues --   -0.53565  -0.53471  -0.53384  -0.53142  -0.52688
 Alpha  occ. eigenvalues --   -0.52647  -0.52461  -0.52378  -0.52170  -0.51934
 Alpha  occ. eigenvalues --   -0.51825  -0.51550  -0.51509  -0.51138  -0.50919
 Alpha  occ. eigenvalues --   -0.50672  -0.50456  -0.50179  -0.50050  -0.49797
 Alpha  occ. eigenvalues --   -0.49317  -0.49077  -0.48994  -0.48947  -0.48768
 Alpha  occ. eigenvalues --   -0.48396  -0.48211  -0.48168  -0.48093  -0.47835
 Alpha  occ. eigenvalues --   -0.47647  -0.47565  -0.47364  -0.47183  -0.46951
 Alpha  occ. eigenvalues --   -0.46866  -0.46683  -0.46489  -0.46208  -0.45898
 Alpha  occ. eigenvalues --   -0.45664  -0.45541  -0.45379  -0.45137  -0.44984
 Alpha  occ. eigenvalues --   -0.44750  -0.44353  -0.44175  -0.44149  -0.43860
 Alpha  occ. eigenvalues --   -0.43728  -0.43535  -0.43385  -0.43286  -0.43138
 Alpha  occ. eigenvalues --   -0.42989  -0.42661  -0.42648  -0.42442  -0.42228
 Alpha  occ. eigenvalues --   -0.42139  -0.41789  -0.41539  -0.41435  -0.41319
 Alpha  occ. eigenvalues --   -0.41075  -0.40961  -0.40836  -0.40698  -0.40372
 Alpha  occ. eigenvalues --   -0.39928  -0.39765  -0.39340  -0.38962  -0.38934
 Alpha  occ. eigenvalues --   -0.38629  -0.38525  -0.38465  -0.37753  -0.37482
 Alpha  occ. eigenvalues --   -0.37185  -0.37156  -0.36600  -0.36593  -0.35726
 Alpha  occ. eigenvalues --   -0.35677  -0.35377  -0.34933  -0.34651  -0.34073
 Alpha  occ. eigenvalues --   -0.33827  -0.33558  -0.33342  -0.32228  -0.31856
 Alpha  occ. eigenvalues --   -0.30968  -0.30829  -0.29922  -0.29278  -0.24985
 Alpha  occ. eigenvalues --   -0.21969
 Alpha virt. eigenvalues --   -0.09511  -0.02053  -0.00249   0.01444   0.02280
 Alpha virt. eigenvalues --    0.04099   0.04404   0.04458   0.05599   0.06161
 Alpha virt. eigenvalues --    0.07626   0.07901   0.08538   0.08807   0.08850

 Mulliken charges:
               1
     1  Mg   0.809566
     2  C    0.051897
     3  C   -0.094288
     4  C   -0.077395
     5  C   -0.080494
     6  N   -0.275000
     7  C   -0.122075
     8  C    0.002200
     9  C   -0.096192
    10  C    0.064787
    11  C    0.073159
    12  C    0.054883
    13  C    0.075497
    14  C    0.172623
    15  O   -0.219950
    16  O   -0.366275
    17  N   -0.385866
    18  C    0.193351
    19  C   -0.156230
    20  C   -0.035528
    21  C    0.139458
    22  C    0.143062
    23  C    0.024491
    24  O   -0.219583
    25  C    0.037315
    26  N   -0.370200
    27  C    0.044057
    28  C   -0.025037
    29  C   -0.036888
    30  C    0.068127
    31  C    0.070191
    32  C   -0.008302
    33  C    0.011919
    34  N   -0.307140
    35  C    0.139608
    36  C   -0.195804
    37  C    0.064682
    38  C    0.055859
    39  C    0.117938
    40  C    0.080005
    41  O   -0.188244
    42  C    0.015039
    43  C    0.153903
    44  O   -0.199056
    45  O   -0.333647
    46  C    0.183543
    47  C    0.340950
    48  C   -0.165713
    49  C   -0.103239
    50  C    0.077197
    51  C    0.035952
    52  C    0.025865
    53  C    0.058615
    54  C   -0.181173
    55  C    0.042911
    56  C    0.044744
    57  C    0.026491
    58  C    0.072101
    59  C   -0.132793
    60  C    0.050396
    61  C    0.024221
    62  C    0.007354
    63  C    0.035946
    64  C   -0.140319
    65  C    0.045753
    66  C    0.052942
    67  H   -0.020184
    68  H   -0.044778
    69  H   -0.037504
    70  H    0.006472
    71  H    0.021201
    72  H    0.007814
    73  H    0.020770
    74  H    0.027089
    75  H    0.019276
    76  H    0.004325
    77  H    0.047319
    78  H    0.051250
    79  H    0.046911
    80  H    0.033293
    81  H    0.005656
    82  H    0.033412
    83  H    0.051222
    84  H    0.035162
    85  H    0.018647
    86  H    0.013678
    87  H    0.016942
    88  H    0.013411
    89  H    0.028184
    90  H    0.012575
    91  H    0.003017
    92  H    0.024044
    93  H    0.018287
    94  H    0.012090
    95  H    0.033763
    96  H    0.017862
    97  H    0.030802
    98  H    0.018078
    99  H    0.022355
   100  H    0.041330
   101  H    0.037697
   102  H    0.029064
   103  H    0.004855
   104  H   -0.004843
   105  H    0.041787
   106  H    0.018695
   107  H    0.012322
   108  H   -0.000607
   109  H   -0.010386
   110  H   -0.012042
   111  H   -0.003540
   112  H   -0.008284
   113  H   -0.005164
   114  H   -0.007304
   115  H    0.010259
   116  H    0.005984
   117  H    0.009214
   118  H   -0.016635
   119  H   -0.008740
   120  H    0.002090
   121  H    0.005412
   122  H    0.011304
   123  H   -0.013332
   124  H   -0.014214
   125  H    0.012506
   126  H    0.002508
   127  H    0.003132
   128  H   -0.003473
   129  H   -0.018614
   130  H    0.003856
   131  H    0.005898
   132  H   -0.007652
   133  H   -0.011409
   134  H    0.010579
   135  H   -0.012498
   136  H   -0.003658
   137  H    0.015897
   138  H    0.002633
   139  H    0.020508
   140  H   -0.009742
 Sum of Mulliken charges =  -0.00000

 Dipole moment (field-independent basis, Debye):
    X=              2.8515    Y=              4.6105    Z=              0.2981  Tot=              5.4293
 Quadrupole moment (field-independent basis, Debye-Ang):
   XX=           -369.7007   YY=           -463.6135   ZZ=           -383.8664
   XY=              8.2041   XZ=             12.4251   YZ=             28.1044

 Normal termination of Gaussian 16 at Wed Apr 27 08:28:40 2022.
