 Gaussian 16, Revision A.03,
 Gaussian 16:  ES64L-G16RevA.03 25-Dec-2016

 ---------------------------------
 #p PBE1PBE/Def2SVP td=(nstates=5)
 ---------------------------------

 -----------------------------------------------------
 step_1101_chromophore_5 TDDFT with PBE1PBE functional
 -----------------------------------------------------
 Symbolic Z-matrix:
 Charge =  0 Multiplicity = 1

                         Standard orientation:
 ---------------------------------------------------------------------
 Center     Atomic      Atomic             Coordinates (Angstroms)
 Number     Number       Type             X           Y           Z
 ---------------------------------------------------------------------
      1         12           0        5.520206    0.456890   -0.328150
      2          6           0        3.768728   -2.669468   -0.272572
      3          6           0        3.201027    1.572958   -2.533413
      4          6           0        6.525947    3.534088    0.370362
      5          6           0        7.393526   -0.852427    2.400492
      6          7           0        3.685823   -0.504481   -1.243578
      7          6           0        3.205254   -1.773481   -1.113295
      8          6           0        1.882092   -1.932168   -1.909149
      9          6           0        1.952950   -0.600343   -2.810398
     10          6           0        3.084787    0.201309   -2.260790
     11          6           0        2.169115   -0.942027   -4.326581
     12          6           0        0.621407   -2.155068   -1.044638
     13          6           0       -0.343117   -3.346674   -1.351710
     14          6           0       -1.868262   -2.895796   -1.357361
     15          8           0       -2.817736   -3.568885   -1.004059
     16          8           0       -2.114186   -1.634582   -1.946193
     17          7           0        5.061884    2.311737   -1.091087
     18          6           0        4.007381    2.550607   -2.004095
     19          6           0        4.012579    3.956733   -2.248665
     20          6           0        4.997226    4.583053   -1.470368
     21          6           0        5.546246    3.470379   -0.697110
     22          6           0        2.990426    4.630601   -3.149895
     23          6           0        5.388812    6.077465   -1.562230
     24          8           0        4.829078    6.882093   -2.332232
     25          6           0        6.541904    6.589327   -0.740280
     26          7           0        6.902965    1.232354    1.091219
     27          6           0        7.047069    2.589347    1.215471
     28          6           0        7.873766    2.916440    2.447909
     29          6           0        8.226808    1.517990    3.113954
     30          6           0        7.561146    0.471065    2.132666
     31          6           0        9.169767    3.747153    2.166232
     32          6           0        7.683615    1.334076    4.609861
     33          6           0        8.591820    0.552163    5.540350
     34          7           0        5.827652   -1.483337    0.657901
     35          6           0        6.533140   -1.788613    1.792770
     36          6           0        6.370447   -3.192346    2.104710
     37          6           0        5.336688   -3.627785    1.280704
     38          6           0        4.941940   -2.512440    0.515634
     39          6           0        7.118097   -3.900622    3.171435
     40          6           0        4.453625   -4.698461    0.913655
     41          8           0        4.367086   -5.898532    1.238358
     42          6           0        3.357490   -4.091280   -0.103787
     43          6           0        3.198821   -4.860100   -1.423439
     44          8           0        2.182416   -5.362104   -1.835933
     45          8           0        4.419514   -4.951470   -2.068366
     46          6           0        4.359856   -5.485324   -3.409412
     47          6           0       -3.491360   -1.187535   -2.010657
     48          6           0       -3.591707   -0.170485   -0.952613
     49          6           0       -4.534249   -0.158938    0.033557
     50          6           0       -5.484247   -1.252113    0.470148
     51          6           0       -4.444809    0.991122    0.964086
     52          6           0       -5.141765    2.386199    0.605471
     53          6           0       -6.633575    2.457509    0.965753
     54          6           0       -7.547704    2.678008   -0.255001
     55          6           0       -7.599431    4.211210   -0.748398
     56          6           0       -8.959285    2.170326    0.032276
     57          6           0       -9.125167    0.639933   -0.126312
     58          6           0       -9.463978   -0.091926    1.237231
     59          6           0      -10.777570   -0.897773    1.131794
     60          6           0      -10.737075   -2.427055    1.293047
     61          6           0      -11.880121   -0.254038    1.974520
     62          6           0      -13.366822   -0.711618    1.773180
     63          6           0      -14.462353    0.492035    1.881963
     64          6           0      -15.284495    0.496661    0.595715
     65          6           0      -14.939647    1.797825   -0.052625
     66          6           0      -16.796177    0.564798    0.891398
     67          1           0        2.479143    1.875250   -3.294512
     68          1           0        6.757924    4.533096    0.746549
     69          1           0        8.004918   -1.162789    3.250064
     70          1           0        2.003122   -2.814790   -2.536422
     71          1           0        1.036724   -0.013862   -2.744397
     72          1           0        2.877831   -0.190078   -4.674326
     73          1           0        1.227075   -0.724460   -4.829726
     74          1           0        2.519468   -1.959287   -4.496910
     75          1           0        0.125334   -1.192295   -0.920602
     76          1           0        1.023751   -2.338553   -0.048108
     77          1           0       -0.112972   -4.141669   -0.642827
     78          1           0       -0.108972   -3.768378   -2.328821
     79          1           0        3.547626    5.368070   -3.727941
     80          1           0        2.326635    5.201191   -2.500989
     81          1           0        2.400691    3.901320   -3.704191
     82          1           0        7.380905    5.894421   -0.718453
     83          1           0        6.274254    6.731355    0.306434
     84          1           0        6.845744    7.515079   -1.227889
     85          1           0        7.200682    3.477968    3.095583
     86          1           0        9.294584    1.317045    3.198096
     87          1           0        9.070602    4.362205    1.271731
     88          1           0        9.983027    3.070753    1.900296
     89          1           0        9.350243    4.239846    3.121000
     90          1           0        6.755291    0.762249    4.622887
     91          1           0        7.399902    2.302321    5.023619
     92          1           0        8.113536   -0.415650    5.692133
     93          1           0        8.692604    0.994602    6.530848
     94          1           0        9.535595    0.504701    4.996607
     95          1           0        6.725795   -3.732696    4.174925
     96          1           0        8.153467   -3.564236    3.112696
     97          1           0        7.110698   -4.974758    2.982538
     98          1           0        2.319208   -4.100163    0.227969
     99          1           0        3.576440   -5.011954   -4.001997
    100          1           0        4.153750   -6.555530   -3.426154
    101          1           0        5.332299   -5.238257   -3.834117
    102          1           0       -4.324150   -1.870274   -1.839958
    103          1           0       -3.539261   -0.608560   -2.933164
    104          1           0       -2.979100    0.713137   -1.133127
    105          1           0       -4.956971   -1.888414    1.181138
    106          1           0       -5.850365   -1.967503   -0.266838
    107          1           0       -6.385274   -0.860434    0.942053
    108          1           0       -3.440569    1.353506    1.183572
    109          1           0       -4.811601    0.762563    1.964963
    110          1           0       -5.046668    2.497287   -0.474575
    111          1           0       -4.649864    3.254800    1.045091
    112          1           0       -6.804164    3.334105    1.589913
    113          1           0       -6.908769    1.543873    1.493940
    114          1           0       -7.213971    2.099044   -1.116398
    115          1           0       -7.282601    4.222967   -1.791539
    116          1           0       -6.940851    4.873624   -0.186685
    117          1           0       -8.625860    4.572747   -0.682758
    118          1           0       -9.536569    2.758726   -0.681303
    119          1           0       -9.213022    2.611145    0.997106
    120          1           0       -8.264515    0.113588   -0.537712
    121          1           0       -9.922097    0.520987   -0.860957
    122          1           0       -9.459617    0.653372    2.032619
    123          1           0       -8.700341   -0.862143    1.351482
    124          1           0      -11.207331   -0.863662    0.130709
    125          1           0      -11.566461   -2.871564    0.742521
    126          1           0      -10.746469   -2.709493    2.344900
    127          1           0       -9.826892   -2.817825    0.838730
    128          1           0      -11.751038    0.823660    2.071569
    129          1           0      -11.580651   -0.640656    2.948973
    130          1           0      -13.624781   -1.294313    2.658499
    131          1           0      -13.604831   -1.179837    0.818328
    132          1           0      -13.926525    1.420010    2.081066
    133          1           0      -14.982100    0.353969    2.830428
    134          1           0      -15.049812   -0.362279   -0.033842
    135          1           0      -15.231126    1.749224   -1.102091
    136          1           0      -13.866588    1.961238   -0.155870
    137          1           0      -15.425004    2.676419    0.372780
    138          1           0      -17.101901   -0.335982    0.358735
    139          1           0      -17.431749    1.439529    0.752604
    140          1           0      -16.961137    0.335722    1.944209
 ---------------------------------------------------------------------

 SCF Done:  E(RPBE1PBE) =  -3005.34416811     A.U. after   15 cycles

 Excitation energies and oscillator strengths:

 Excited State   1:      Singlet-A      1.8660 eV  664.45 nm  f=0.3719  <S**2>=0.000
     245 -> 248        0.16628
     246 -> 247        0.69537
     246 <- 247       -0.11091
 This state for optimization and/or second-order correction.
 Total Energy, E(TD-HF/TD-DFT) =  -3005.27559493
 Copying the excited state density for this state as the 1-particle RhoCI density.

 Excited State   2:      Singlet-A      2.2544 eV  549.97 nm  f=0.1206  <S**2>=0.000
     245 -> 247        0.65627
     246 -> 248       -0.24829

 Excited State   3:      Singlet-A      2.8572 eV  433.93 nm  f=0.0017  <S**2>=0.000
     242 -> 247        0.25615
     242 -> 249        0.10119
     243 -> 247        0.62788
     243 -> 249        0.11562

 Excited State   4:      Singlet-A      3.0224 eV  410.21 nm  f=0.0008  <S**2>=0.000
     241 -> 247       -0.32220
     242 -> 247        0.56574
     243 -> 247       -0.23844

 Excited State   5:      Singlet-A      3.0668 eV  404.28 nm  f=0.0001  <S**2>=0.000
     241 -> 247        0.18868
     244 -> 247        0.67537

 The electronic state is 1-A.
 Alpha  occ. eigenvalues --  -46.93182 -19.25889 -19.24685 -19.21441 -19.19964
 Alpha  occ. eigenvalues --  -19.19834 -19.19175 -14.42504 -14.41543 -14.39999
 Alpha  occ. eigenvalues --  -14.39404 -10.37140 -10.36711 -10.33477 -10.32803
 Alpha  occ. eigenvalues --  -10.29392 -10.29328 -10.29274 -10.29073 -10.29026
 Alpha  occ. eigenvalues --  -10.28667 -10.28203 -10.28144 -10.27635 -10.26959
 Alpha  occ. eigenvalues --  -10.26815 -10.26410 -10.26409 -10.26404 -10.26164
 Alpha  occ. eigenvalues --  -10.26013 -10.25864 -10.25822 -10.25802 -10.25740
 Alpha  occ. eigenvalues --  -10.25330 -10.24851 -10.24630 -10.24586 -10.24546
 Alpha  occ. eigenvalues --  -10.24427 -10.24233 -10.24053 -10.23779 -10.23587
 Alpha  occ. eigenvalues --  -10.23479 -10.23404 -10.23332 -10.23214 -10.23001
 Alpha  occ. eigenvalues --  -10.22835 -10.22702 -10.22586 -10.22558 -10.22548
 Alpha  occ. eigenvalues --  -10.22538 -10.22514 -10.22495 -10.22023 -10.21881
 Alpha  occ. eigenvalues --  -10.21822 -10.21800 -10.21765 -10.21600 -10.21265
 Alpha  occ. eigenvalues --  -10.21111  -3.15126  -1.87986  -1.87454  -1.87374
 Alpha  occ. eigenvalues --   -1.11958  -1.10033  -1.04238  -1.03982  -1.03116
 Alpha  occ. eigenvalues --   -1.01875  -0.99531  -0.98983  -0.98086  -0.95891
 Alpha  occ. eigenvalues --   -0.87830  -0.84376  -0.83977  -0.83655  -0.83205
 Alpha  occ. eigenvalues --   -0.83100  -0.82878  -0.82491  -0.81808  -0.81759
 Alpha  occ. eigenvalues --   -0.81254  -0.79814  -0.78699  -0.78316  -0.77612
 Alpha  occ. eigenvalues --   -0.76983  -0.76330  -0.75827  -0.75477  -0.74768
 Alpha  occ. eigenvalues --   -0.73443  -0.72826  -0.72112  -0.71754  -0.70918
 Alpha  occ. eigenvalues --   -0.70093  -0.69880  -0.69324  -0.68795  -0.68287
 Alpha  occ. eigenvalues --   -0.68027  -0.66828  -0.66400  -0.64867  -0.63879
 Alpha  occ. eigenvalues --   -0.63296  -0.62694  -0.62083  -0.60872  -0.60765
 Alpha  occ. eigenvalues --   -0.60271  -0.59917  -0.59450  -0.59152  -0.58241
 Alpha  occ. eigenvalues --   -0.58035  -0.57149  -0.56897  -0.56265  -0.55088
 Alpha  occ. eigenvalues --   -0.54812  -0.54459  -0.54079  -0.53383  -0.52790
 Alpha  occ. eigenvalues --   -0.52087  -0.51547  -0.51368  -0.50693  -0.50385
 Alpha  occ. eigenvalues --   -0.49723  -0.49020  -0.48907  -0.48537  -0.48344
 Alpha  occ. eigenvalues --   -0.48056  -0.47942  -0.47853  -0.47661  -0.47256
 Alpha  occ. eigenvalues --   -0.47117  -0.46843  -0.46816  -0.46669  -0.46557
 Alpha  occ. eigenvalues --   -0.46380  -0.46176  -0.46050  -0.45671  -0.45458
 Alpha  occ. eigenvalues --   -0.45247  -0.45190  -0.44730  -0.44485  -0.44384
 Alpha  occ. eigenvalues --   -0.43889  -0.43689  -0.43636  -0.43543  -0.43420
 Alpha  occ. eigenvalues --   -0.43060  -0.42809  -0.42793  -0.42687  -0.42419
 Alpha  occ. eigenvalues --   -0.42207  -0.42150  -0.42021  -0.41906  -0.41534
 Alpha  occ. eigenvalues --   -0.41456  -0.41340  -0.41212  -0.41009  -0.40526
 Alpha  occ. eigenvalues --   -0.40367  -0.40173  -0.40146  -0.39919  -0.39840
 Alpha  occ. eigenvalues --   -0.39460  -0.39107  -0.38998  -0.38793  -0.38574
 Alpha  occ. eigenvalues --   -0.38459  -0.38321  -0.38207  -0.38112  -0.37908
 Alpha  occ. eigenvalues --   -0.37780  -0.37491  -0.37400  -0.37193  -0.36952
 Alpha  occ. eigenvalues --   -0.36851  -0.36643  -0.36359  -0.36311  -0.36215
 Alpha  occ. eigenvalues --   -0.35956  -0.35745  -0.35681  -0.35473  -0.35419
 Alpha  occ. eigenvalues --   -0.34751  -0.34522  -0.34079  -0.33903  -0.33691
 Alpha  occ. eigenvalues --   -0.33583  -0.33483  -0.33284  -0.32758  -0.32281
 Alpha  occ. eigenvalues --   -0.32111  -0.31942  -0.31630  -0.31457  -0.30602
 Alpha  occ. eigenvalues --   -0.30478  -0.30261  -0.29914  -0.29848  -0.29441
 Alpha  occ. eigenvalues --   -0.29065  -0.28424  -0.28228  -0.27502  -0.26854
 Alpha  occ. eigenvalues --   -0.26265  -0.25961  -0.25619  -0.24643  -0.21834
 Alpha  occ. eigenvalues --   -0.19570
 Alpha virt. eigenvalues --   -0.11975  -0.05612  -0.04455  -0.02968  -0.00470
 Alpha virt. eigenvalues --   -0.00236  -0.00098   0.00182   0.01032   0.02523
 Alpha virt. eigenvalues --    0.03477   0.04093   0.04833   0.05427   0.05556

 Mulliken charges:
               1
     1  Mg   0.952657
     2  C    0.018948
     3  C   -0.087924
     4  C   -0.072800
     5  C   -0.087036
     6  N   -0.380755
     7  C   -0.038625
     8  C   -0.062619
     9  C   -0.178302
    10  C    0.105021
    11  C    0.018132
    12  C    0.004849
    13  C   -0.000409
    14  C    0.238605
    15  O   -0.253489
    16  O   -0.393917
    17  N   -0.501698
    18  C    0.208235
    19  C   -0.184536
    20  C   -0.079837
    21  C    0.168700
    22  C    0.085528
    23  C    0.073449
    24  O   -0.255820
    25  C   -0.038364
    26  N   -0.466507
    27  C    0.084984
    28  C   -0.105515
    29  C   -0.110984
    30  C    0.112939
    31  C    0.009166
    32  C   -0.063913
    33  C   -0.062969
    34  N   -0.419460
    35  C    0.156232
    36  C   -0.204249
    37  C    0.006950
    38  C    0.112911
    39  C    0.065136
    40  C    0.178872
    41  O   -0.232877
    42  C   -0.095571
    43  C    0.242474
    44  O   -0.236606
    45  O   -0.362802
    46  C    0.127322
    47  C    0.285543
    48  C   -0.168527
    49  C   -0.143023
    50  C    0.005986
    51  C   -0.032510
    52  C   -0.032001
    53  C    0.002467
    54  C   -0.263989
    55  C   -0.017148
    56  C   -0.013272
    57  C   -0.032742
    58  C    0.004859
    59  C   -0.214325
    60  C   -0.010679
    61  C   -0.026725
    62  C   -0.059966
    63  C   -0.006148
    64  C   -0.243233
    65  C   -0.016448
    66  C   -0.002872
    67  H    0.009444
    68  H   -0.008688
    69  H   -0.000653
    70  H    0.049264
    71  H    0.056256
    72  H    0.036902
    73  H    0.047961
    74  H    0.053105
    75  H    0.051949
    76  H    0.039563
    77  H    0.077833
    78  H    0.082155
    79  H    0.073028
    80  H    0.060742
    81  H    0.032599
    82  H    0.060249
    83  H    0.076629
    84  H    0.062466
    85  H    0.055023
    86  H    0.049630
    87  H    0.045061
    88  H    0.040988
    89  H    0.056162
    90  H    0.046281
    91  H    0.036349
    92  H    0.049990
    93  H    0.047154
    94  H    0.039506
    95  H    0.062654
    96  H    0.045616
    97  H    0.060086
    98  H    0.059146
    99  H    0.044641
   100  H    0.063458
   101  H    0.059754
   102  H    0.057252
   103  H    0.034664
   104  H    0.024197
   105  H    0.070130
   106  H    0.044006
   107  H    0.045538
   108  H    0.032770
   109  H    0.022993
   110  H    0.021829
   111  H    0.027829
   112  H    0.025053
   113  H    0.030180
   114  H    0.031371
   115  H    0.037921
   116  H    0.033101
   117  H    0.035638
   118  H    0.017421
   119  H    0.023546
   120  H    0.035478
   121  H    0.037240
   122  H    0.041009
   123  H    0.024722
   124  H    0.025803
   125  H    0.039720
   126  H    0.029544
   127  H    0.031143
   128  H    0.027998
   129  H    0.016395
   130  H    0.037667
   131  H    0.036078
   132  H    0.023810
   133  H    0.019581
   134  H    0.045493
   135  H    0.017473
   136  H    0.026055
   137  H    0.043373
   138  H    0.030745
   139  H    0.045961
   140  H    0.018200
 Sum of Mulliken charges =  -0.00000

 Dipole moment (field-independent basis, Debye):
    X=              3.0450    Y=              4.2614    Z=              0.7193  Tot=              5.2866
 Quadrupole moment (field-independent basis, Debye-Ang):
   XX=           -363.1784   YY=           -461.2932   ZZ=           -380.1696
   XY=              6.2069   XZ=             15.5623   YZ=             28.4546

 Normal termination of Gaussian 16 at Wed Apr 27 08:47:42 2022.
