 Gaussian 16, Revision A.03,
 Gaussian 16:  ES64L-G16RevA.03 25-Dec-2016

 --------------------------------
 #p wB97XD/Def2SVP td=(nstates=5)
 --------------------------------

 ----------------------------------------------------
 step_1101_chromophore_5 TDDFT with wB97XD functional
 ----------------------------------------------------
 Symbolic Z-matrix:
 Charge =  0 Multiplicity = 1

                         Standard orientation:
 ---------------------------------------------------------------------
 Center     Atomic      Atomic             Coordinates (Angstroms)
 Number     Number       Type             X           Y           Z
 ---------------------------------------------------------------------
      1         12           0        5.520206    0.456890   -0.328150
      2          6           0        3.768728   -2.669468   -0.272572
      3          6           0        3.201027    1.572958   -2.533413
      4          6           0        6.525947    3.534088    0.370362
      5          6           0        7.393526   -0.852427    2.400492
      6          7           0        3.685823   -0.504481   -1.243578
      7          6           0        3.205254   -1.773481   -1.113295
      8          6           0        1.882092   -1.932168   -1.909149
      9          6           0        1.952950   -0.600343   -2.810398
     10          6           0        3.084787    0.201309   -2.260790
     11          6           0        2.169115   -0.942027   -4.326581
     12          6           0        0.621407   -2.155068   -1.044638
     13          6           0       -0.343117   -3.346674   -1.351710
     14          6           0       -1.868262   -2.895796   -1.357361
     15          8           0       -2.817736   -3.568885   -1.004059
     16          8           0       -2.114186   -1.634582   -1.946193
     17          7           0        5.061884    2.311737   -1.091087
     18          6           0        4.007381    2.550607   -2.004095
     19          6           0        4.012579    3.956733   -2.248665
     20          6           0        4.997226    4.583053   -1.470368
     21          6           0        5.546246    3.470379   -0.697110
     22          6           0        2.990426    4.630601   -3.149895
     23          6           0        5.388812    6.077465   -1.562230
     24          8           0        4.829078    6.882093   -2.332232
     25          6           0        6.541904    6.589327   -0.740280
     26          7           0        6.902965    1.232354    1.091219
     27          6           0        7.047069    2.589347    1.215471
     28          6           0        7.873766    2.916440    2.447909
     29          6           0        8.226808    1.517990    3.113954
     30          6           0        7.561146    0.471065    2.132666
     31          6           0        9.169767    3.747153    2.166232
     32          6           0        7.683615    1.334076    4.609861
     33          6           0        8.591820    0.552163    5.540350
     34          7           0        5.827652   -1.483337    0.657901
     35          6           0        6.533140   -1.788613    1.792770
     36          6           0        6.370447   -3.192346    2.104710
     37          6           0        5.336688   -3.627785    1.280704
     38          6           0        4.941940   -2.512440    0.515634
     39          6           0        7.118097   -3.900622    3.171435
     40          6           0        4.453625   -4.698461    0.913655
     41          8           0        4.367086   -5.898532    1.238358
     42          6           0        3.357490   -4.091280   -0.103787
     43          6           0        3.198821   -4.860100   -1.423439
     44          8           0        2.182416   -5.362104   -1.835933
     45          8           0        4.419514   -4.951470   -2.068366
     46          6           0        4.359856   -5.485324   -3.409412
     47          6           0       -3.491360   -1.187535   -2.010657
     48          6           0       -3.591707   -0.170485   -0.952613
     49          6           0       -4.534249   -0.158938    0.033557
     50          6           0       -5.484247   -1.252113    0.470148
     51          6           0       -4.444809    0.991122    0.964086
     52          6           0       -5.141765    2.386199    0.605471
     53          6           0       -6.633575    2.457509    0.965753
     54          6           0       -7.547704    2.678008   -0.255001
     55          6           0       -7.599431    4.211210   -0.748398
     56          6           0       -8.959285    2.170326    0.032276
     57          6           0       -9.125167    0.639933   -0.126312
     58          6           0       -9.463978   -0.091926    1.237231
     59          6           0      -10.777570   -0.897773    1.131794
     60          6           0      -10.737075   -2.427055    1.293047
     61          6           0      -11.880121   -0.254038    1.974520
     62          6           0      -13.366822   -0.711618    1.773180
     63          6           0      -14.462353    0.492035    1.881963
     64          6           0      -15.284495    0.496661    0.595715
     65          6           0      -14.939647    1.797825   -0.052625
     66          6           0      -16.796177    0.564798    0.891398
     67          1           0        2.479143    1.875250   -3.294512
     68          1           0        6.757924    4.533096    0.746549
     69          1           0        8.004918   -1.162789    3.250064
     70          1           0        2.003122   -2.814790   -2.536422
     71          1           0        1.036724   -0.013862   -2.744397
     72          1           0        2.877831   -0.190078   -4.674326
     73          1           0        1.227075   -0.724460   -4.829726
     74          1           0        2.519468   -1.959287   -4.496910
     75          1           0        0.125334   -1.192295   -0.920602
     76          1           0        1.023751   -2.338553   -0.048108
     77          1           0       -0.112972   -4.141669   -0.642827
     78          1           0       -0.108972   -3.768378   -2.328821
     79          1           0        3.547626    5.368070   -3.727941
     80          1           0        2.326635    5.201191   -2.500989
     81          1           0        2.400691    3.901320   -3.704191
     82          1           0        7.380905    5.894421   -0.718453
     83          1           0        6.274254    6.731355    0.306434
     84          1           0        6.845744    7.515079   -1.227889
     85          1           0        7.200682    3.477968    3.095583
     86          1           0        9.294584    1.317045    3.198096
     87          1           0        9.070602    4.362205    1.271731
     88          1           0        9.983027    3.070753    1.900296
     89          1           0        9.350243    4.239846    3.121000
     90          1           0        6.755291    0.762249    4.622887
     91          1           0        7.399902    2.302321    5.023619
     92          1           0        8.113536   -0.415650    5.692133
     93          1           0        8.692604    0.994602    6.530848
     94          1           0        9.535595    0.504701    4.996607
     95          1           0        6.725795   -3.732696    4.174925
     96          1           0        8.153467   -3.564236    3.112696
     97          1           0        7.110698   -4.974758    2.982538
     98          1           0        2.319208   -4.100163    0.227969
     99          1           0        3.576440   -5.011954   -4.001997
    100          1           0        4.153750   -6.555530   -3.426154
    101          1           0        5.332299   -5.238257   -3.834117
    102          1           0       -4.324150   -1.870274   -1.839958
    103          1           0       -3.539261   -0.608560   -2.933164
    104          1           0       -2.979100    0.713137   -1.133127
    105          1           0       -4.956971   -1.888414    1.181138
    106          1           0       -5.850365   -1.967503   -0.266838
    107          1           0       -6.385274   -0.860434    0.942053
    108          1           0       -3.440569    1.353506    1.183572
    109          1           0       -4.811601    0.762563    1.964963
    110          1           0       -5.046668    2.497287   -0.474575
    111          1           0       -4.649864    3.254800    1.045091
    112          1           0       -6.804164    3.334105    1.589913
    113          1           0       -6.908769    1.543873    1.493940
    114          1           0       -7.213971    2.099044   -1.116398
    115          1           0       -7.282601    4.222967   -1.791539
    116          1           0       -6.940851    4.873624   -0.186685
    117          1           0       -8.625860    4.572747   -0.682758
    118          1           0       -9.536569    2.758726   -0.681303
    119          1           0       -9.213022    2.611145    0.997106
    120          1           0       -8.264515    0.113588   -0.537712
    121          1           0       -9.922097    0.520987   -0.860957
    122          1           0       -9.459617    0.653372    2.032619
    123          1           0       -8.700341   -0.862143    1.351482
    124          1           0      -11.207331   -0.863662    0.130709
    125          1           0      -11.566461   -2.871564    0.742521
    126          1           0      -10.746469   -2.709493    2.344900
    127          1           0       -9.826892   -2.817825    0.838730
    128          1           0      -11.751038    0.823660    2.071569
    129          1           0      -11.580651   -0.640656    2.948973
    130          1           0      -13.624781   -1.294313    2.658499
    131          1           0      -13.604831   -1.179837    0.818328
    132          1           0      -13.926525    1.420010    2.081066
    133          1           0      -14.982100    0.353969    2.830428
    134          1           0      -15.049812   -0.362279   -0.033842
    135          1           0      -15.231126    1.749224   -1.102091
    136          1           0      -13.866588    1.961238   -0.155870
    137          1           0      -15.425004    2.676419    0.372780
    138          1           0      -17.101901   -0.335982    0.358735
    139          1           0      -17.431749    1.439529    0.752604
    140          1           0      -16.961137    0.335722    1.944209
 ---------------------------------------------------------------------

 SCF Done:  E(RwB97XD) =  -3007.85623600     A.U. after   19 cycles

 Excitation energies and oscillator strengths:

 Excited State   1:      Singlet-A      1.6843 eV  736.10 nm  f=0.3873  <S**2>=0.000
     245 -> 248        0.17465
     246 -> 247        0.68530
     245 <- 248        0.11128
 This state for optimization and/or second-order correction.
 Total Energy, E(TD-HF/TD-DFT) =  -3007.79433736
 Copying the excited state density for this state as the 1-particle RhoCI density.

 Excited State   2:      Singlet-A      2.2330 eV  555.23 nm  f=0.1217  <S**2>=0.000
     245 -> 247        0.64372
     246 -> 248       -0.27453

 Excited State   3:      Singlet-A      3.3742 eV  367.44 nm  f=0.0009  <S**2>=0.000
     241 -> 247       -0.26828
     242 -> 247       -0.15387
     242 -> 249        0.11454
     242 -> 250       -0.10793
     243 -> 247        0.58668

 Excited State   4:      Singlet-A      3.4549 eV  358.87 nm  f=0.0051  <S**2>=0.000
     241 -> 247        0.57464
     242 -> 247       -0.18512
     242 -> 249        0.14193
     242 -> 250       -0.11724
     243 -> 247        0.14224
     246 -> 248       -0.19086

 Excited State   5:      Singlet-A      3.5239 eV  351.84 nm  f=0.0062  <S**2>=0.000
     240 -> 247        0.10846
     241 -> 247        0.12276
     242 -> 247        0.48754
     242 -> 249       -0.25745
     242 -> 250        0.20744
     243 -> 247        0.26884
     246 -> 248       -0.15353

 The electronic state is 1-A.
 Alpha  occ. eigenvalues --  -46.96153 -19.30456 -19.29232 -19.26141 -19.24991
 Alpha  occ. eigenvalues --  -19.24526 -19.23815 -14.47917 -14.46324 -14.45148
 Alpha  occ. eigenvalues --  -14.44224 -10.43957 -10.43493 -10.40529 -10.39535
 Alpha  occ. eigenvalues --  -10.36189 -10.35854 -10.35562 -10.35529 -10.35347
 Alpha  occ. eigenvalues --  -10.34894 -10.34773 -10.34699 -10.33584 -10.33348
 Alpha  occ. eigenvalues --  -10.32923 -10.32881 -10.32730 -10.32683 -10.32607
 Alpha  occ. eigenvalues --  -10.32556 -10.32378 -10.32242 -10.32205 -10.32009
 Alpha  occ. eigenvalues --  -10.31798 -10.31212 -10.30987 -10.30804 -10.30783
 Alpha  occ. eigenvalues --  -10.30662 -10.30557 -10.30477 -10.30401 -10.30183
 Alpha  occ. eigenvalues --  -10.29756 -10.29673 -10.29608 -10.29541 -10.29267
 Alpha  occ. eigenvalues --  -10.29120 -10.29074 -10.28961 -10.28931 -10.28912
 Alpha  occ. eigenvalues --  -10.28898 -10.28887 -10.28774 -10.28457 -10.28273
 Alpha  occ. eigenvalues --  -10.28188 -10.28133 -10.28125 -10.28043 -10.27671
 Alpha  occ. eigenvalues --  -10.27556  -3.21976  -1.95582  -1.95050  -1.94966
 Alpha  occ. eigenvalues --   -1.19344  -1.17416  -1.11952  -1.11332  -1.10458
 Alpha  occ. eigenvalues --   -1.09226  -1.07171  -1.06328  -1.05445  -1.03204
 Alpha  occ. eigenvalues --   -0.95396  -0.92059  -0.91764  -0.91318  -0.90864
 Alpha  occ. eigenvalues --   -0.90660  -0.90538  -0.90009  -0.89498  -0.89460
 Alpha  occ. eigenvalues --   -0.88796  -0.87540  -0.86216  -0.85991  -0.85336
 Alpha  occ. eigenvalues --   -0.84609  -0.84103  -0.83492  -0.83058  -0.82425
 Alpha  occ. eigenvalues --   -0.81120  -0.80482  -0.79918  -0.79311  -0.78586
 Alpha  occ. eigenvalues --   -0.77773  -0.77510  -0.77015  -0.76486  -0.75730
 Alpha  occ. eigenvalues --   -0.75691  -0.74443  -0.73987  -0.72535  -0.71291
 Alpha  occ. eigenvalues --   -0.70816  -0.70338  -0.69784  -0.68501  -0.68230
 Alpha  occ. eigenvalues --   -0.67855  -0.67457  -0.66845  -0.66778  -0.65904
 Alpha  occ. eigenvalues --   -0.65460  -0.64659  -0.64578  -0.63908  -0.62676
 Alpha  occ. eigenvalues --   -0.62195  -0.62011  -0.61590  -0.60751  -0.60073
 Alpha  occ. eigenvalues --   -0.59595  -0.58954  -0.58857  -0.58080  -0.57788
 Alpha  occ. eigenvalues --   -0.57174  -0.56465  -0.56258  -0.55900  -0.55745
 Alpha  occ. eigenvalues --   -0.55436  -0.55383  -0.55325  -0.55082  -0.54569
 Alpha  occ. eigenvalues --   -0.54542  -0.54446  -0.54227  -0.54087  -0.53861
 Alpha  occ. eigenvalues --   -0.53726  -0.53433  -0.53401  -0.53015  -0.52811
 Alpha  occ. eigenvalues --   -0.52604  -0.52366  -0.52142  -0.52025  -0.51753
 Alpha  occ. eigenvalues --   -0.51292  -0.50978  -0.50919  -0.50862  -0.50677
 Alpha  occ. eigenvalues --   -0.50304  -0.50160  -0.50049  -0.49984  -0.49726
 Alpha  occ. eigenvalues --   -0.49529  -0.49474  -0.49285  -0.49119  -0.48942
 Alpha  occ. eigenvalues --   -0.48737  -0.48619  -0.48412  -0.48118  -0.47782
 Alpha  occ. eigenvalues --   -0.47591  -0.47400  -0.47323  -0.47103  -0.46856
 Alpha  occ. eigenvalues --   -0.46660  -0.46318  -0.46051  -0.46019  -0.45739
 Alpha  occ. eigenvalues --   -0.45630  -0.45470  -0.45280  -0.45204  -0.45046
 Alpha  occ. eigenvalues --   -0.44914  -0.44613  -0.44566  -0.44327  -0.44269
 Alpha  occ. eigenvalues --   -0.44046  -0.43720  -0.43455  -0.43314  -0.43208
 Alpha  occ. eigenvalues --   -0.42972  -0.42840  -0.42731  -0.42574  -0.42288
 Alpha  occ. eigenvalues --   -0.41797  -0.41624  -0.41192  -0.40851  -0.40792
 Alpha  occ. eigenvalues --   -0.40570  -0.40470  -0.40323  -0.39828  -0.39319
 Alpha  occ. eigenvalues --   -0.39177  -0.38993  -0.38539  -0.38448  -0.37682
 Alpha  occ. eigenvalues --   -0.37503  -0.37238  -0.36896  -0.36633  -0.36054
 Alpha  occ. eigenvalues --   -0.35916  -0.35501  -0.35176  -0.34275  -0.34024
 Alpha  occ. eigenvalues --   -0.33192  -0.32797  -0.32026  -0.31312  -0.26931
 Alpha  occ. eigenvalues --   -0.23790
 Alpha virt. eigenvalues --   -0.07850  -0.00137   0.01788   0.03535   0.05430
 Alpha virt. eigenvalues --    0.06434   0.06629   0.06810   0.07900   0.08824
 Alpha virt. eigenvalues --    0.10039   0.10949   0.11544   0.12189   0.12202

 Mulliken charges:
               1
     1  Mg   0.945056
     2  C    0.030594
     3  C   -0.103087
     4  C   -0.093194
     5  C   -0.095274
     6  N   -0.341147
     7  C   -0.078818
     8  C   -0.030996
     9  C   -0.152610
    10  C    0.089798
    11  C    0.028238
    12  C    0.015862
    13  C    0.012981
    14  C    0.229945
    15  O   -0.250844
    16  O   -0.394288
    17  N   -0.471263
    18  C    0.205119
    19  C   -0.172286
    20  C   -0.078251
    21  C    0.169550
    22  C    0.096788
    23  C    0.070401
    24  O   -0.249521
    25  C   -0.024548
    26  N   -0.442498
    27  C    0.078426
    28  C   -0.081091
    29  C   -0.082969
    30  C    0.098039
    31  C    0.022517
    32  C   -0.050087
    33  C   -0.045958
    34  N   -0.386425
    35  C    0.148949
    36  C   -0.205732
    37  C    0.015321
    38  C    0.089259
    39  C    0.074803
    40  C    0.158465
    41  O   -0.224870
    42  C   -0.051196
    43  C    0.219175
    44  O   -0.229814
    45  O   -0.362459
    46  C    0.142532
    47  C    0.305225
    48  C   -0.180742
    49  C   -0.133009
    50  C    0.031230
    51  C   -0.011458
    52  C   -0.016759
    53  C    0.019737
    54  C   -0.232302
    55  C   -0.005742
    56  C    0.006404
    57  C   -0.015757
    58  C    0.025621
    59  C   -0.183076
    60  C    0.002140
    61  C   -0.009027
    62  C   -0.041212
    63  C    0.002660
    64  C   -0.207821
    65  C   -0.003086
    66  C    0.005501
    67  H    0.003937
    68  H   -0.024230
    69  H   -0.012952
    70  H    0.025801
    71  H    0.047910
    72  H    0.028612
    73  H    0.043600
    74  H    0.049442
    75  H    0.043669
    76  H    0.028887
    77  H    0.073925
    78  H    0.077293
    79  H    0.069838
    80  H    0.057890
    81  H    0.028866
    82  H    0.053314
    83  H    0.073571
    84  H    0.061676
    85  H    0.045145
    86  H    0.036053
    87  H    0.037693
    88  H    0.035225
    89  H    0.050965
    90  H    0.036575
    91  H    0.027464
    92  H    0.044253
    93  H    0.042287
    94  H    0.031955
    95  H    0.056572
    96  H    0.038346
    97  H    0.055165
    98  H    0.046640
    99  H    0.039008
   100  H    0.059808
   101  H    0.056830
   102  H    0.049413
   103  H    0.030502
   104  H    0.020954
   105  H    0.065698
   106  H    0.039540
   107  H    0.026440
   108  H    0.025715
   109  H    0.014819
   110  H    0.009003
   111  H    0.022411
   112  H    0.016324
   113  H    0.013217
   114  H    0.015751
   115  H    0.032589
   116  H    0.027281
   117  H    0.029414
   118  H    0.007894
   119  H    0.012302
   120  H    0.024226
   121  H    0.029240
   122  H    0.031633
   123  H    0.011544
   124  H    0.009062
   125  H    0.034101
   126  H    0.023246
   127  H    0.025095
   128  H    0.017277
   129  H    0.004070
   130  H    0.030080
   131  H    0.024408
   132  H    0.013374
   133  H    0.012260
   134  H    0.035692
   135  H    0.011097
   136  H    0.017558
   137  H    0.036939
   138  H    0.024927
   139  H    0.041657
   140  H    0.011096
 Sum of Mulliken charges =  -0.00000

 Dipole moment (field-independent basis, Debye):
    X=              2.8239    Y=              4.8425    Z=              0.1806  Tot=              5.6086
 Quadrupole moment (field-independent basis, Debye-Ang):
   XX=           -365.8413   YY=           -459.7163   ZZ=           -379.8992
   XY=              9.0421   XZ=             12.7313   YZ=             28.0359

 Normal termination of Gaussian 16 at Wed Apr 27 09:11:35 2022.
