 Gaussian 16, Revision A.03,
 Gaussian 16:  ES64L-G16RevA.03 25-Dec-2016

 --------------------
 #p ZINDO=(nstates=5)
 --------------------

 -----------------------------
 step_1101_chromophore_5 ZINDO
 -----------------------------
 Symbolic Z-matrix:
 Charge =  0 Multiplicity = 1

                         Standard orientation:
 ---------------------------------------------------------------------
 Center     Atomic      Atomic             Coordinates (Angstroms)
 Number     Number       Type             X           Y           Z
 ---------------------------------------------------------------------
      1         12           0        5.520206    0.456890   -0.328150
      2          6           0        3.768728   -2.669468   -0.272572
      3          6           0        3.201027    1.572958   -2.533413
      4          6           0        6.525947    3.534088    0.370362
      5          6           0        7.393526   -0.852427    2.400492
      6          7           0        3.685823   -0.504481   -1.243578
      7          6           0        3.205254   -1.773481   -1.113295
      8          6           0        1.882092   -1.932168   -1.909149
      9          6           0        1.952950   -0.600343   -2.810398
     10          6           0        3.084787    0.201309   -2.260790
     11          6           0        2.169115   -0.942027   -4.326581
     12          6           0        0.621407   -2.155068   -1.044638
     13          6           0       -0.343117   -3.346674   -1.351710
     14          6           0       -1.868262   -2.895796   -1.357361
     15          8           0       -2.817736   -3.568885   -1.004059
     16          8           0       -2.114186   -1.634582   -1.946193
     17          7           0        5.061884    2.311737   -1.091087
     18          6           0        4.007381    2.550607   -2.004095
     19          6           0        4.012579    3.956733   -2.248665
     20          6           0        4.997226    4.583053   -1.470368
     21          6           0        5.546246    3.470379   -0.697110
     22          6           0        2.990426    4.630601   -3.149895
     23          6           0        5.388812    6.077465   -1.562230
     24          8           0        4.829078    6.882093   -2.332232
     25          6           0        6.541904    6.589327   -0.740280
     26          7           0        6.902965    1.232354    1.091219
     27          6           0        7.047069    2.589347    1.215471
     28          6           0        7.873766    2.916440    2.447909
     29          6           0        8.226808    1.517990    3.113954
     30          6           0        7.561146    0.471065    2.132666
     31          6           0        9.169767    3.747153    2.166232
     32          6           0        7.683615    1.334076    4.609861
     33          6           0        8.591820    0.552163    5.540350
     34          7           0        5.827652   -1.483337    0.657901
     35          6           0        6.533140   -1.788613    1.792770
     36          6           0        6.370447   -3.192346    2.104710
     37          6           0        5.336688   -3.627785    1.280704
     38          6           0        4.941940   -2.512440    0.515634
     39          6           0        7.118097   -3.900622    3.171435
     40          6           0        4.453625   -4.698461    0.913655
     41          8           0        4.367086   -5.898532    1.238358
     42          6           0        3.357490   -4.091280   -0.103787
     43          6           0        3.198821   -4.860100   -1.423439
     44          8           0        2.182416   -5.362104   -1.835933
     45          8           0        4.419514   -4.951470   -2.068366
     46          6           0        4.359856   -5.485324   -3.409412
     47          6           0       -3.491360   -1.187535   -2.010657
     48          6           0       -3.591707   -0.170485   -0.952613
     49          6           0       -4.534249   -0.158938    0.033557
     50          6           0       -5.484247   -1.252113    0.470148
     51          6           0       -4.444809    0.991122    0.964086
     52          6           0       -5.141765    2.386199    0.605471
     53          6           0       -6.633575    2.457509    0.965753
     54          6           0       -7.547704    2.678008   -0.255001
     55          6           0       -7.599431    4.211210   -0.748398
     56          6           0       -8.959285    2.170326    0.032276
     57          6           0       -9.125167    0.639933   -0.126312
     58          6           0       -9.463978   -0.091926    1.237231
     59          6           0      -10.777570   -0.897773    1.131794
     60          6           0      -10.737075   -2.427055    1.293047
     61          6           0      -11.880121   -0.254038    1.974520
     62          6           0      -13.366822   -0.711618    1.773180
     63          6           0      -14.462353    0.492035    1.881963
     64          6           0      -15.284495    0.496661    0.595715
     65          6           0      -14.939647    1.797825   -0.052625
     66          6           0      -16.796177    0.564798    0.891398
     67          1           0        2.479143    1.875250   -3.294512
     68          1           0        6.757924    4.533096    0.746549
     69          1           0        8.004918   -1.162789    3.250064
     70          1           0        2.003122   -2.814790   -2.536422
     71          1           0        1.036724   -0.013862   -2.744397
     72          1           0        2.877831   -0.190078   -4.674326
     73          1           0        1.227075   -0.724460   -4.829726
     74          1           0        2.519468   -1.959287   -4.496910
     75          1           0        0.125334   -1.192295   -0.920602
     76          1           0        1.023751   -2.338553   -0.048108
     77          1           0       -0.112972   -4.141669   -0.642827
     78          1           0       -0.108972   -3.768378   -2.328821
     79          1           0        3.547626    5.368070   -3.727941
     80          1           0        2.326635    5.201191   -2.500989
     81          1           0        2.400691    3.901320   -3.704191
     82          1           0        7.380905    5.894421   -0.718453
     83          1           0        6.274254    6.731355    0.306434
     84          1           0        6.845744    7.515079   -1.227889
     85          1           0        7.200682    3.477968    3.095583
     86          1           0        9.294584    1.317045    3.198096
     87          1           0        9.070602    4.362205    1.271731
     88          1           0        9.983027    3.070753    1.900296
     89          1           0        9.350243    4.239846    3.121000
     90          1           0        6.755291    0.762249    4.622887
     91          1           0        7.399902    2.302321    5.023619
     92          1           0        8.113536   -0.415650    5.692133
     93          1           0        8.692604    0.994602    6.530848
     94          1           0        9.535595    0.504701    4.996607
     95          1           0        6.725795   -3.732696    4.174925
     96          1           0        8.153467   -3.564236    3.112696
     97          1           0        7.110698   -4.974758    2.982538
     98          1           0        2.319208   -4.100163    0.227969
     99          1           0        3.576440   -5.011954   -4.001997
    100          1           0        4.153750   -6.555530   -3.426154
    101          1           0        5.332299   -5.238257   -3.834117
    102          1           0       -4.324150   -1.870274   -1.839958
    103          1           0       -3.539261   -0.608560   -2.933164
    104          1           0       -2.979100    0.713137   -1.133127
    105          1           0       -4.956971   -1.888414    1.181138
    106          1           0       -5.850365   -1.967503   -0.266838
    107          1           0       -6.385274   -0.860434    0.942053
    108          1           0       -3.440569    1.353506    1.183572
    109          1           0       -4.811601    0.762563    1.964963
    110          1           0       -5.046668    2.497287   -0.474575
    111          1           0       -4.649864    3.254800    1.045091
    112          1           0       -6.804164    3.334105    1.589913
    113          1           0       -6.908769    1.543873    1.493940
    114          1           0       -7.213971    2.099044   -1.116398
    115          1           0       -7.282601    4.222967   -1.791539
    116          1           0       -6.940851    4.873624   -0.186685
    117          1           0       -8.625860    4.572747   -0.682758
    118          1           0       -9.536569    2.758726   -0.681303
    119          1           0       -9.213022    2.611145    0.997106
    120          1           0       -8.264515    0.113588   -0.537712
    121          1           0       -9.922097    0.520987   -0.860957
    122          1           0       -9.459617    0.653372    2.032619
    123          1           0       -8.700341   -0.862143    1.351482
    124          1           0      -11.207331   -0.863662    0.130709
    125          1           0      -11.566461   -2.871564    0.742521
    126          1           0      -10.746469   -2.709493    2.344900
    127          1           0       -9.826892   -2.817825    0.838730
    128          1           0      -11.751038    0.823660    2.071569
    129          1           0      -11.580651   -0.640656    2.948973
    130          1           0      -13.624781   -1.294313    2.658499
    131          1           0      -13.604831   -1.179837    0.818328
    132          1           0      -13.926525    1.420010    2.081066
    133          1           0      -14.982100    0.353969    2.830428
    134          1           0      -15.049812   -0.362279   -0.033842
    135          1           0      -15.231126    1.749224   -1.102091
    136          1           0      -13.866588    1.961238   -0.155870
    137          1           0      -15.425004    2.676419    0.372780
    138          1           0      -17.101901   -0.335982    0.358735
    139          1           0      -17.431749    1.439529    0.752604
    140          1           0      -16.961137    0.335722    1.944209
 ---------------------------------------------------------------------

 SCF Done:  E(RZINDO/S) =  -474.194353768     A.U. after   19 cycles

 Excitation energies and oscillator strengths:

 Excited State   1:      Singlet-A      1.2769 eV  970.97 nm  f=0.5990  <S**2>=0.000
     175 ->178        -0.16535
     176 ->177         0.67028
 This state for optimization and/or second-order correction.
 Total Energy, E(CIS/TDA) =  -474.147428152
 Copying the excited state density for this state as the 1-particle RhoCI density.

 Excited State   2:      Singlet-A      2.0073 eV  617.67 nm  f=0.0412  <S**2>=0.000
     175 ->177         0.54465
     176 ->178         0.41850

 Excited State   3:      Singlet-A      2.9693 eV  417.56 nm  f=0.6468  <S**2>=0.000
     175 ->177        -0.32720
     176 ->178         0.45154
     176 ->179         0.24799
     176 ->180         0.24688

 Excited State   4:      Singlet-A      3.0047 eV  412.63 nm  f=0.0302  <S**2>=0.000
     169 ->180         0.10280
     170 ->177         0.29361
     170 ->178         0.15858
     170 ->179         0.25525
     170 ->180         0.41103
     170 ->185         0.14266
     170 ->187        -0.15497
     170 ->201        -0.11199

 Excited State   5:      Singlet-A      3.0214 eV  410.35 nm  f=0.0039  <S**2>=0.000
     167 ->179        -0.14781
     168 ->177         0.27703
     168 ->179        -0.46322
     168 ->180         0.25047
     168 ->185        -0.21947

 The electronic state is 1-A.
 Alpha  occ. eigenvalues --   -1.83965  -1.83118  -1.78303  -1.72679  -1.72148
 Alpha  occ. eigenvalues --   -1.70533  -1.64869  -1.61359  -1.58611  -1.57109
 Alpha  occ. eigenvalues --   -1.55823  -1.51346  -1.48994  -1.47625  -1.46740
 Alpha  occ. eigenvalues --   -1.45605  -1.44109  -1.40437  -1.40162  -1.37450
 Alpha  occ. eigenvalues --   -1.37000  -1.34065  -1.32905  -1.31357  -1.28927
 Alpha  occ. eigenvalues --   -1.27709  -1.26412  -1.23506  -1.20731  -1.18872
 Alpha  occ. eigenvalues --   -1.16793  -1.15444  -1.15090  -1.13951  -1.12727
 Alpha  occ. eigenvalues --   -1.10792  -1.10663  -1.10398  -1.05760  -1.05341
 Alpha  occ. eigenvalues --   -1.02016  -1.01420  -0.99063  -0.98220  -0.97487
 Alpha  occ. eigenvalues --   -0.95696  -0.94534  -0.93872  -0.93000  -0.92714
 Alpha  occ. eigenvalues --   -0.92075  -0.90841  -0.89084  -0.88325  -0.86735
 Alpha  occ. eigenvalues --   -0.86192  -0.84435  -0.83690  -0.83120  -0.81376
 Alpha  occ. eigenvalues --   -0.80660  -0.79833  -0.77468  -0.77260  -0.76458
 Alpha  occ. eigenvalues --   -0.75642  -0.74940  -0.74528  -0.74114  -0.73696
 Alpha  occ. eigenvalues --   -0.72945  -0.71544  -0.71465  -0.70864  -0.70469
 Alpha  occ. eigenvalues --   -0.70096  -0.69541  -0.69139  -0.68188  -0.67671
 Alpha  occ. eigenvalues --   -0.67012  -0.66453  -0.66122  -0.66013  -0.65705
 Alpha  occ. eigenvalues --   -0.65383  -0.64992  -0.64691  -0.64155  -0.63741
 Alpha  occ. eigenvalues --   -0.63412  -0.62973  -0.62891  -0.62188  -0.62068
 Alpha  occ. eigenvalues --   -0.61802  -0.61105  -0.60696  -0.60617  -0.60131
 Alpha  occ. eigenvalues --   -0.59968  -0.59243  -0.59036  -0.58418  -0.58231
 Alpha  occ. eigenvalues --   -0.57879  -0.57728  -0.57226  -0.56666  -0.56659
 Alpha  occ. eigenvalues --   -0.56192  -0.55843  -0.55438  -0.54999  -0.54858
 Alpha  occ. eigenvalues --   -0.54499  -0.54313  -0.53826  -0.52985  -0.52765
 Alpha  occ. eigenvalues --   -0.52733  -0.52497  -0.52164  -0.52046  -0.51744
 Alpha  occ. eigenvalues --   -0.51682  -0.51271  -0.51141  -0.51070  -0.50503
 Alpha  occ. eigenvalues --   -0.49985  -0.49717  -0.49408  -0.49294  -0.48921
 Alpha  occ. eigenvalues --   -0.48777  -0.48590  -0.48210  -0.47721  -0.47704
 Alpha  occ. eigenvalues --   -0.47504  -0.47375  -0.47052  -0.46895  -0.46611
 Alpha  occ. eigenvalues --   -0.46303  -0.46169  -0.45829  -0.45661  -0.45398
 Alpha  occ. eigenvalues --   -0.45070  -0.44863  -0.44614  -0.44531  -0.44250
 Alpha  occ. eigenvalues --   -0.43618  -0.43145  -0.42779  -0.42597  -0.42192
 Alpha  occ. eigenvalues --   -0.41998  -0.40657  -0.40363  -0.39795  -0.39158
 Alpha  occ. eigenvalues --   -0.38661  -0.37765  -0.36998  -0.35312  -0.35152
 Alpha  occ. eigenvalues --   -0.34597  -0.33285  -0.32296  -0.31657  -0.27872
 Alpha  occ. eigenvalues --   -0.22539
 Alpha virt. eigenvalues --   -0.09256  -0.02485  -0.01050   0.00614   0.01416
 Alpha virt. eigenvalues --    0.01863   0.02104   0.02463   0.03967   0.04625
 Alpha virt. eigenvalues --    0.05803   0.06080   0.06332   0.07178   0.07515

 Mulliken charges:
               1
     1  Mg   0.428126
     2  C   -0.010040
     3  C   -0.037682
     4  C   -0.127804
     5  C   -0.053521
     6  N   -0.270198
     7  C    0.090449
     8  C   -0.004370
     9  C    0.001897
    10  C    0.147553
    11  C   -0.053598
    12  C   -0.026794
    13  C    0.015075
    14  C    0.454022
    15  O   -0.498553
    16  O   -0.278566
    17  N   -0.325232
    18  C    0.107049
    19  C    0.066647
    20  C   -0.059138
    21  C    0.187902
    22  C   -0.044304
    23  C    0.332347
    24  O   -0.520809
    25  C   -0.028475
    26  N   -0.320202
    27  C    0.181546
    28  C    0.005706
    29  C   -0.005887
    30  C    0.081110
    31  C   -0.053486
    32  C   -0.036611
    33  C   -0.059187
    34  N   -0.321251
    35  C    0.089521
    36  C    0.012537
    37  C   -0.043448
    38  C    0.087953
    39  C   -0.036853
    40  C    0.330507
    41  O   -0.525931
    42  C    0.041857
    43  C    0.485299
    44  O   -0.514609
    45  O   -0.269446
    46  C    0.079529
    47  C    0.103577
    48  C   -0.082295
    49  C    0.001162
    50  C   -0.037481
    51  C   -0.024897
    52  C   -0.038420
    53  C   -0.031645
    54  C   -0.018902
    55  C   -0.066059
    56  C   -0.038132
    57  C   -0.037604
    58  C   -0.034724
    59  C   -0.012244
    60  C   -0.053046
    61  C   -0.040202
    62  C   -0.055754
    63  C   -0.045625
    64  C    0.002076
    65  C   -0.047856
    66  C   -0.067565
    67  H    0.029264
    68  H    0.013350
    69  H    0.022432
    70  H    0.035435
    71  H    0.033797
    72  H    0.019220
    73  H    0.021837
    74  H    0.036441
    75  H    0.028678
    76  H    0.017366
    77  H    0.055106
    78  H    0.053463
    79  H    0.051363
    80  H    0.038177
    81  H    0.027631
    82  H    0.031771
    83  H    0.044622
    84  H    0.040462
    85  H    0.033399
    86  H    0.034777
    87  H    0.026201
    88  H    0.022324
    89  H    0.028205
    90  H    0.018607
    91  H    0.014749
    92  H    0.022167
    93  H    0.021499
    94  H    0.025205
    95  H    0.034240
    96  H    0.021575
    97  H    0.028703
    98  H    0.055317
    99  H    0.035641
   100  H    0.049685
   101  H    0.028961
   102  H    0.068269
   103  H    0.033616
   104  H    0.029154
   105  H    0.034720
   106  H    0.023897
   107  H    0.023743
   108  H    0.014204
   109  H    0.010414
   110  H    0.014744
   111  H    0.019760
   112  H    0.017998
   113  H    0.022007
   114  H    0.016672
   115  H    0.016401
   116  H    0.020780
   117  H    0.022471
   118  H    0.012073
   119  H    0.020460
   120  H    0.023729
   121  H    0.018812
   122  H    0.032623
   123  H    0.019110
   124  H    0.009706
   125  H    0.020069
   126  H    0.020234
   127  H    0.013760
   128  H    0.022655
   129  H    0.005922
   130  H    0.020636
   131  H    0.034836
   132  H    0.017969
   133  H    0.016249
   134  H    0.036701
   135  H   -0.002150
   136  H    0.008031
   137  H    0.025885
   138  H    0.013894
   139  H    0.035279
   140  H    0.008000
 Sum of Mulliken charges =  -0.00000

 Dipole moment (field-independent basis, Debye):
    X=              2.9078    Y=              8.5503    Z=             -0.1078  Tot=              9.0319
 N-N= 4.342143375362D+03 E-N= 0.000000000000D+00  KE=-9.357985431187D+03
 Leave Link  601 at Wed Apr 27 09:25:08 2022, MaxMem=  6710886400 cpu:               2.8 elap:               0.1
 (Enter /sw/apps/gaussian-16.0/g16/l9999.exe)
 1\1\GINC-BP1-COMPUTE174\SP\RZINDO CIS\STO-3G\C55H74Mg1N4O6\OF15641\27-
 Apr-2022\0\\#p ZINDO=(nstates=5)\\step_1101_chromophore_5 ZINDO\\0,1\M
 g,0,24.459,-7.578,46.115\C,0,26.635,-5.127,44.665\C,0,21.951,-6.274,44
 .245\C,0,22.763,-10.366,46.68\C,0,27.423,-9.024,47.454\N,0,24.386,-5.8
 86,44.612\C,0,25.362,-5.017,44.224\C,0,24.826,-4.062,43.124\C,0,23.248
 ,-4.341,43.276\C,0,23.13,-5.515,44.189\C,0,22.494,-3.088,43.845\C,0,25
 .463,-4.248,41.729\C,0,26.045,-3.018,40.959\C,0,25.578,-2.988,39.439\O

 Normal termination of Gaussian 16 at Wed Apr 27 09:25:08 2022.
