 Gaussian 16, Revision A.03,
 Gaussian 16:  ES64L-G16RevA.03 25-Dec-2016

 ------------------------------
 #p blyp/Def2SVP td=(nstates=5)
 ------------------------------

 --------------------------------------------------
 step_451_chromophore_16 TDDFT with blyp functional
 --------------------------------------------------
 Symbolic Z-matrix:
 Charge =  0 Multiplicity = 1

                         Standard orientation:
 ---------------------------------------------------------------------
 Center     Atomic      Atomic             Coordinates (Angstroms)
 Number     Number       Type             X           Y           Z
 ---------------------------------------------------------------------
      1         12           0        6.086477    0.571513    0.307910
      2          6           0        3.754056   -2.191552    0.044863
      3          6           0        3.452203    2.664324   -0.160060
      4          6           0        8.303055    2.965880   -0.079907
      5          6           0        8.657353   -1.898341    0.222863
      6          7           0        3.783491    0.211187   -0.035970
      7          6           0        3.092710   -0.949533   -0.003047
      8          6           0        1.603619   -0.640439   -0.344250
      9          6           0        1.554859    0.946669   -0.266724
     10          6           0        3.027619    1.354020   -0.158685
     11          6           0        0.708716    1.458344   -1.401118
     12          6           0        0.642473   -1.322665    0.716211
     13          6           0       -0.783618   -0.719070    0.958807
     14          6           0       -1.972251   -1.628601    1.272103
     15          8           0       -2.365410   -1.858352    2.427077
     16          8           0       -2.411692   -2.332496    0.154852
     17          7           0        5.912493    2.609416    0.099524
     18          6           0        4.730024    3.221814   -0.131989
     19          6           0        5.038561    4.630820   -0.389288
     20          6           0        6.488861    4.823329   -0.391555
     21          6           0        6.974057    3.417780   -0.138474
     22          6           0        3.923652    5.585109   -0.653861
     23          6           0        7.335181    6.079318   -0.702371
     24          8           0        8.553107    6.133057   -0.598437
     25          6           0        6.579673    7.318124   -1.138670
     26          7           0        8.123712    0.485785    0.042514
     27          6           0        8.837686    1.651566    0.081254
     28          6           0       10.332785    1.415905    0.166493
     29          6           0       10.386625    0.008514    0.749086
     30          6           0        8.952594   -0.488393    0.296738
     31          6           0       11.112126    1.635988   -1.191693
     32          6           0       10.591829   -0.209464    2.296160
     33          6           0        9.862751    0.666354    3.308223
     34          7           0        6.258492   -1.552567    0.152616
     35          6           0        7.308968   -2.402945    0.166994
     36          6           0        6.926031   -3.746812    0.055813
     37          6           0        5.559615   -3.707589    0.024168
     38          6           0        5.169962   -2.418784    0.058475
     39          6           0        7.861150   -4.934325   -0.145604
     40          6           0        4.342663   -4.541449   -0.073131
     41          8           0        4.236736   -5.749227   -0.099545
     42          6           0        3.149650   -3.588906   -0.066386
     43          6           0        2.298225   -3.852584   -1.300239
     44          8           0        2.633752   -3.498920   -2.393877
     45          8           0        1.098345   -4.388700   -1.003702
     46          6           0        0.267535   -4.661462   -2.097693
     47          6           0       -3.417165   -3.287305    0.264640
     48          6           0       -4.593497   -2.688105   -0.399744
     49          6           0       -5.844614   -3.073883   -0.022614
     50          6           0       -6.158570   -4.138346    1.030528
     51          6           0       -7.051809   -2.248674   -0.542110
     52          6           0       -7.578699   -1.165351    0.433582
     53          6           0       -7.931430    0.065756   -0.410288
     54          6           0       -9.041725    0.921977    0.149076
     55          6           0       -9.021311    1.020339    1.688222
     56          6           0      -10.436601    0.550261   -0.415474
     57          6           0      -10.619116    1.018065   -1.853642
     58          6           0      -11.993824    1.858323   -2.028286
     59          6           0      -13.205732    0.900214   -2.143965
     60          6           0      -13.685519    0.788327   -3.562887
     61          6           0      -14.421068    1.322237   -1.208174
     62          6           0      -14.253764    0.809474    0.219728
     63          6           0      -14.776953    1.780997    1.316404
     64          6           0      -13.570757    2.136593    2.227001
     65          6           0      -13.520567    3.643728    2.557824
     66          6           0      -13.416329    1.191164    3.398609
     67          1           0        2.637770    3.373663   -0.318052
     68          1           0        9.008557    3.783332   -0.240639
     69          1           0        9.512358   -2.576486    0.276381
     70          1           0        1.269679   -0.869896   -1.356076
     71          1           0        0.997353    1.303252    0.599454
     72          1           0       -0.152873    0.865492   -1.706622
     73          1           0        1.471259    1.581782   -2.170337
     74          1           0        0.375098    2.447339   -1.086318
     75          1           0        1.085163   -1.360801    1.712395
     76          1           0        0.602450   -2.382717    0.465187
     77          1           0       -1.106333   -0.130631    0.099815
     78          1           0       -0.700897    0.016527    1.759252
     79          1           0        3.504825    5.302986   -1.620010
     80          1           0        4.198477    6.639457   -0.631741
     81          1           0        3.034595    5.597637   -0.021839
     82          1           0        5.892262    7.061473   -1.945263
     83          1           0        7.233438    8.070382   -1.579748
     84          1           0        6.045952    7.735154   -0.283733
     85          1           0       10.736286    2.153929    0.858791
     86          1           0       11.105193   -0.691692    0.322783
     87          1           0       11.406969    0.738813   -1.733870
     88          1           0       11.942266    2.341498   -1.220154
     89          1           0       10.449495    2.028143   -1.962942
     90          1           0       11.632484    0.026251    2.517762
     91          1           0       10.455060   -1.235169    2.637985
     92          1           0        9.162485    0.001708    3.812458
     93          1           0        9.278949    1.421625    2.781747
     94          1           0       10.566802    1.066510    4.037979
     95          1           0        8.808832   -4.783381   -0.663674
     96          1           0        7.184261   -5.540012   -0.749294
     97          1           0        8.063911   -5.407416    0.814757
     98          1           0        2.681180   -3.863434    0.878830
     99          1           0        0.820716   -5.000612   -2.973220
    100          1           0       -0.381282   -3.841141   -2.407211
    101          1           0       -0.299972   -5.512854   -1.721892
    102          1           0       -3.575274   -3.552138    1.310814
    103          1           0       -3.105606   -4.204001   -0.236203
    104          1           0       -4.465967   -1.783865   -0.995468
    105          1           0       -6.087043   -3.623115    1.988626
    106          1           0       -5.445024   -4.961441    1.009368
    107          1           0       -7.205721   -4.441897    1.043246
    108          1           0       -7.860475   -2.913098   -0.843933
    109          1           0       -6.567563   -1.735242   -1.373234
    110          1           0       -6.781544   -0.850913    1.107292
    111          1           0       -8.471644   -1.597599    0.885260
    112          1           0       -8.082235   -0.151897   -1.467816
    113          1           0       -7.034308    0.675593   -0.310123
    114          1           0       -8.884020    1.936146   -0.219027
    115          1           0       -9.787373    0.323240    2.025775
    116          1           0       -9.242770    1.994486    2.124548
    117          1           0       -8.014648    0.796756    2.040769
    118          1           0      -11.203939    0.977357    0.229245
    119          1           0      -10.575743   -0.527532   -0.507605
    120          1           0      -10.627728    0.247326   -2.623721
    121          1           0       -9.832023    1.739156   -2.073285
    122          1           0      -11.908685    2.588380   -2.834335
    123          1           0      -12.056066    2.335089   -1.050511
    124          1           0      -12.989379   -0.121638   -1.830806
    125          1           0      -13.819960   -0.269073   -3.789569
    126          1           0      -13.090567    1.372638   -4.264700
    127          1           0      -14.665547    1.261207   -3.634232
    128          1           0      -15.378650    0.889061   -1.497767
    129          1           0      -14.478265    2.402806   -1.074591
    130          1           0      -13.225200    0.485104    0.371629
    131          1           0      -14.794990   -0.134820    0.279835
    132          1           0      -15.472054    1.233526    1.952469
    133          1           0      -15.426185    2.582285    0.963348
    134          1           0      -12.579447    2.037510    1.783664
    135          1           0      -12.725653    4.184620    2.043670
    136          1           0      -13.388925    3.671588    3.639339
    137          1           0      -14.488959    4.127460    2.436720
    138          1           0      -13.004590    1.681686    4.280749
    139          1           0      -12.555489    0.573195    3.142747
    140          1           0      -14.358936    0.733138    3.696611
 ---------------------------------------------------------------------

 SCF Done:  E(RB-LYP) =  -3007.35391901     A.U. after   20 cycles

 Excitation energies and oscillator strengths:

 Excited State   1:      Singlet-A      1.8440 eV  672.36 nm  f=0.2879  <S**2>=0.000
     245 -> 248       -0.20483
     246 -> 247        0.68232
     246 <- 247       -0.13983
 This state for optimization and/or second-order correction.
 Total Energy, E(TD-HF/TD-DFT) =  -3007.28615275
 Copying the excited state density for this state as the 1-particle RhoCI density.

 Excited State   2:      Singlet-A      2.0057 eV  618.17 nm  f=0.0660  <S**2>=0.000
     244 -> 247        0.23189
     245 -> 247        0.61637
     246 -> 248        0.22259

 Excited State   3:      Singlet-A      2.0851 eV  594.63 nm  f=0.0090  <S**2>=0.000
     244 -> 247        0.66707
     245 -> 247       -0.20349

 Excited State   4:      Singlet-A      2.1522 eV  576.09 nm  f=0.0011  <S**2>=0.000
     243 -> 247        0.70587

 Excited State   5:      Singlet-A      2.2256 eV  557.08 nm  f=0.0000  <S**2>=0.000
     242 -> 247        0.70710

 The electronic state is 1-A.
 Alpha  occ. eigenvalues --  -46.27971 -18.82903 -18.82093 -18.77028 -18.76990
 Alpha  occ. eigenvalues --  -18.76366 -18.76043 -14.03577 -14.03244 -14.01704
 Alpha  occ. eigenvalues --  -14.00404 -10.04752 -10.04241 -10.00774  -9.99737
 Alpha  occ. eigenvalues --   -9.97462  -9.97222  -9.96944  -9.96814  -9.96633
 Alpha  occ. eigenvalues --   -9.96502  -9.96351  -9.95839  -9.94712  -9.94618
 Alpha  occ. eigenvalues --   -9.94585  -9.94382  -9.94208  -9.94171  -9.94092
 Alpha  occ. eigenvalues --   -9.94019  -9.93936  -9.93781  -9.93675  -9.93558
 Alpha  occ. eigenvalues --   -9.93077  -9.92991  -9.92915  -9.92775  -9.92745
 Alpha  occ. eigenvalues --   -9.92702  -9.92556  -9.92443  -9.92405  -9.92377
 Alpha  occ. eigenvalues --   -9.92205  -9.92164  -9.91764  -9.91726  -9.91683
 Alpha  occ. eigenvalues --   -9.91658  -9.91570  -9.91434  -9.91427  -9.91231
 Alpha  occ. eigenvalues --   -9.91138  -9.91070  -9.91047  -9.91041  -9.91023
 Alpha  occ. eigenvalues --   -9.90607  -9.90574  -9.90396  -9.90305  -9.90209
 Alpha  occ. eigenvalues --   -9.90159  -2.92553  -1.72970  -1.72464  -1.72248
 Alpha  occ. eigenvalues --   -1.00304  -0.98155  -0.92307  -0.92003  -0.91699
 Alpha  occ. eigenvalues --   -0.89926  -0.88080  -0.86405  -0.86149  -0.85194
 Alpha  occ. eigenvalues --   -0.75808  -0.73960  -0.72971  -0.72681  -0.72342
 Alpha  occ. eigenvalues --   -0.72295  -0.72107  -0.71102  -0.70915  -0.70182
 Alpha  occ. eigenvalues --   -0.69838  -0.69391  -0.68246  -0.67845  -0.67432
 Alpha  occ. eigenvalues --   -0.66580  -0.66073  -0.65575  -0.65357  -0.64684
 Alpha  occ. eigenvalues --   -0.64181  -0.62533  -0.62380  -0.62045  -0.61134
 Alpha  occ. eigenvalues --   -0.60493  -0.60291  -0.60168  -0.59367  -0.58980
 Alpha  occ. eigenvalues --   -0.58298  -0.57847  -0.57192  -0.55881  -0.55104
 Alpha  occ. eigenvalues --   -0.53807  -0.53541  -0.52732  -0.52515  -0.51449
 Alpha  occ. eigenvalues --   -0.51286  -0.50943  -0.50766  -0.50445  -0.49915
 Alpha  occ. eigenvalues --   -0.49494  -0.49132  -0.48886  -0.47593  -0.47078
 Alpha  occ. eigenvalues --   -0.46469  -0.46279  -0.45913  -0.45708  -0.45368
 Alpha  occ. eigenvalues --   -0.44553  -0.43999  -0.43408  -0.43212  -0.43082
 Alpha  occ. eigenvalues --   -0.42490  -0.42260  -0.42054  -0.41567  -0.41353
 Alpha  occ. eigenvalues --   -0.41285  -0.40999  -0.40740  -0.40532  -0.40234
 Alpha  occ. eigenvalues --   -0.40001  -0.39973  -0.39854  -0.39662  -0.39304
 Alpha  occ. eigenvalues --   -0.38891  -0.38760  -0.38662  -0.38478  -0.38212
 Alpha  occ. eigenvalues --   -0.38188  -0.38075  -0.37758  -0.37338  -0.37253
 Alpha  occ. eigenvalues --   -0.37075  -0.37020  -0.36919  -0.36860  -0.36739
 Alpha  occ. eigenvalues --   -0.36589  -0.36430  -0.36006  -0.35841  -0.35769
 Alpha  occ. eigenvalues --   -0.35575  -0.35517  -0.35264  -0.35210  -0.34980
 Alpha  occ. eigenvalues --   -0.34874  -0.34664  -0.34623  -0.34363  -0.34222
 Alpha  occ. eigenvalues --   -0.33959  -0.33853  -0.33675  -0.33592  -0.33375
 Alpha  occ. eigenvalues --   -0.33179  -0.32951  -0.32878  -0.32584  -0.32428
 Alpha  occ. eigenvalues --   -0.32108  -0.31915  -0.31780  -0.31450  -0.31375
 Alpha  occ. eigenvalues --   -0.31261  -0.31041  -0.30905  -0.30666  -0.30570
 Alpha  occ. eigenvalues --   -0.30490  -0.30354  -0.30310  -0.30119  -0.29604
 Alpha  occ. eigenvalues --   -0.29522  -0.29445  -0.29344  -0.29189  -0.28994
 Alpha  occ. eigenvalues --   -0.28813  -0.28778  -0.28018  -0.27914  -0.27890
 Alpha  occ. eigenvalues --   -0.27438  -0.27342  -0.27275  -0.26662  -0.26625
 Alpha  occ. eigenvalues --   -0.26400  -0.26169  -0.25752  -0.25237  -0.25226
 Alpha  occ. eigenvalues --   -0.25162  -0.24293  -0.24161  -0.23938  -0.23454
 Alpha  occ. eigenvalues --   -0.23211  -0.22687  -0.22146  -0.21800  -0.20948
 Alpha  occ. eigenvalues --   -0.20498  -0.19769  -0.19421  -0.19124  -0.17288
 Alpha  occ. eigenvalues --   -0.16062
 Alpha virt. eigenvalues --   -0.11590  -0.07308  -0.06299  -0.04533  -0.03908
 Alpha virt. eigenvalues --   -0.02887  -0.02355  -0.01923  -0.01667  -0.00427
 Alpha virt. eigenvalues --    0.00875   0.01336   0.01656   0.02235   0.02912

 Mulliken charges:
               1
     1  Mg   0.688298
     2  C    0.010340
     3  C   -0.049635
     4  C   -0.040799
     5  C   -0.087114
     6  N   -0.185600
     7  C   -0.079777
     8  C   -0.000694
     9  C   -0.008067
    10  C    0.025369
    11  C    0.095890
    12  C    0.075026
    13  C    0.146121
    14  C    0.084700
    15  O   -0.200525
    16  O   -0.266534
    17  N   -0.297481
    18  C    0.157702
    19  C   -0.122614
    20  C    0.014325
    21  C    0.065218
    22  C    0.152798
    23  C   -0.054092
    24  O   -0.150279
    25  C    0.112876
    26  N   -0.192707
    27  C    0.043966
    28  C    0.060388
    29  C    0.054701
    30  C   -0.001990
    31  C    0.126320
    32  C    0.060422
    33  C    0.051845
    34  N   -0.228935
    35  C    0.108266
    36  C   -0.210644
    37  C    0.117091
    38  C    0.074230
    39  C    0.165874
    40  C   -0.099140
    41  O   -0.116319
    42  C    0.104173
    43  C    0.107958
    44  O   -0.159379
    45  O   -0.225574
    46  C    0.205604
    47  C    0.310910
    48  C   -0.104680
    49  C   -0.183875
    50  C    0.148068
    51  C    0.120002
    52  C    0.096494
    53  C    0.080814
    54  C   -0.072656
    55  C    0.116958
    56  C    0.092611
    57  C    0.037701
    58  C    0.100191
    59  C   -0.092987
    60  C    0.141788
    61  C    0.100599
    62  C    0.047161
    63  C    0.146418
    64  C   -0.131492
    65  C    0.108584
    66  C    0.120598
    67  H   -0.075557
    68  H   -0.046288
    69  H   -0.059650
    70  H   -0.001279
    71  H   -0.023408
    72  H    0.017380
    73  H   -0.004823
    74  H   -0.015582
    75  H   -0.022016
    76  H   -0.000774
    77  H   -0.025589
    78  H   -0.005438
    79  H    0.000805
    80  H   -0.024559
    81  H   -0.005020
    82  H    0.008279
    83  H   -0.010129
    84  H    0.028852
    85  H   -0.028688
    86  H   -0.042406
    87  H   -0.017466
    88  H    0.002160
    89  H   -0.019554
    90  H   -0.024912
    91  H   -0.020341
    92  H   -0.010833
    93  H    0.009264
    94  H   -0.002499
    95  H   -0.002069
    96  H    0.015997
    97  H    0.002827
    98  H   -0.000455
    99  H    0.013679
   100  H    0.016849
   101  H    0.010178
   102  H   -0.004382
   103  H   -0.005709
   104  H   -0.032793
   105  H    0.010740
   106  H    0.006176
   107  H   -0.017576
   108  H   -0.023589
   109  H   -0.032199
   110  H   -0.016149
   111  H   -0.023650
   112  H   -0.021493
   113  H   -0.041955
   114  H   -0.049757
   115  H   -0.008969
   116  H   -0.018418
   117  H   -0.020430
   118  H   -0.003316
   119  H   -0.035648
   120  H   -0.022291
   121  H   -0.036530
   122  H   -0.023434
   123  H   -0.035753
   124  H   -0.036174
   125  H   -0.016794
   126  H   -0.025732
   127  H   -0.030613
   128  H   -0.031634
   129  H   -0.032019
   130  H   -0.037862
   131  H   -0.048907
   132  H   -0.049153
   133  H   -0.028059
   134  H   -0.027662
   135  H   -0.002996
   136  H   -0.041417
   137  H   -0.027912
   138  H   -0.036316
   139  H   -0.015909
   140  H   -0.005459
 Sum of Mulliken charges =  -0.00000

 Dipole moment (field-independent basis, Debye):
    X=             -1.5191    Y=              2.3820    Z=              0.2499  Tot=              2.8362
 Quadrupole moment (field-independent basis, Debye-Ang):
   XX=           -385.3455   YY=           -423.4219   ZZ=           -414.7633
   XY=             -0.4735   XZ=             15.4979   YZ=             -1.7747

 Normal termination of Gaussian 16 at Wed May  4 22:59:04 2022.
