 Gaussian 16, Revision A.03,
 Gaussian 16:  ES64L-G16RevA.03 25-Dec-2016

 -----------------------------------
 #p cam-b3lyp/Def2SVP td=(nstates=5)
 -----------------------------------

 -------------------------------------------------------
 step_451_chromophore_16 TDDFT with cam-b3lyp functional
 -------------------------------------------------------
 Symbolic Z-matrix:
 Charge =  0 Multiplicity = 1

                         Standard orientation:
 ---------------------------------------------------------------------
 Center     Atomic      Atomic             Coordinates (Angstroms)
 Number     Number       Type             X           Y           Z
 ---------------------------------------------------------------------
      1         12           0        6.086477    0.571513    0.307910
      2          6           0        3.754056   -2.191552    0.044863
      3          6           0        3.452203    2.664324   -0.160060
      4          6           0        8.303055    2.965880   -0.079907
      5          6           0        8.657353   -1.898341    0.222863
      6          7           0        3.783491    0.211187   -0.035970
      7          6           0        3.092710   -0.949533   -0.003047
      8          6           0        1.603619   -0.640439   -0.344250
      9          6           0        1.554859    0.946669   -0.266724
     10          6           0        3.027619    1.354020   -0.158685
     11          6           0        0.708716    1.458344   -1.401118
     12          6           0        0.642473   -1.322665    0.716211
     13          6           0       -0.783618   -0.719070    0.958807
     14          6           0       -1.972251   -1.628601    1.272103
     15          8           0       -2.365410   -1.858352    2.427077
     16          8           0       -2.411692   -2.332496    0.154852
     17          7           0        5.912493    2.609416    0.099524
     18          6           0        4.730024    3.221814   -0.131989
     19          6           0        5.038561    4.630820   -0.389288
     20          6           0        6.488861    4.823329   -0.391555
     21          6           0        6.974057    3.417780   -0.138474
     22          6           0        3.923652    5.585109   -0.653861
     23          6           0        7.335181    6.079318   -0.702371
     24          8           0        8.553107    6.133057   -0.598437
     25          6           0        6.579673    7.318124   -1.138670
     26          7           0        8.123712    0.485785    0.042514
     27          6           0        8.837686    1.651566    0.081254
     28          6           0       10.332785    1.415905    0.166493
     29          6           0       10.386625    0.008514    0.749086
     30          6           0        8.952594   -0.488393    0.296738
     31          6           0       11.112126    1.635988   -1.191693
     32          6           0       10.591829   -0.209464    2.296160
     33          6           0        9.862751    0.666354    3.308223
     34          7           0        6.258492   -1.552567    0.152616
     35          6           0        7.308968   -2.402945    0.166994
     36          6           0        6.926031   -3.746812    0.055813
     37          6           0        5.559615   -3.707589    0.024168
     38          6           0        5.169962   -2.418784    0.058475
     39          6           0        7.861150   -4.934325   -0.145604
     40          6           0        4.342663   -4.541449   -0.073131
     41          8           0        4.236736   -5.749227   -0.099545
     42          6           0        3.149650   -3.588906   -0.066386
     43          6           0        2.298225   -3.852584   -1.300239
     44          8           0        2.633752   -3.498920   -2.393877
     45          8           0        1.098345   -4.388700   -1.003702
     46          6           0        0.267535   -4.661462   -2.097693
     47          6           0       -3.417165   -3.287305    0.264640
     48          6           0       -4.593497   -2.688105   -0.399744
     49          6           0       -5.844614   -3.073883   -0.022614
     50          6           0       -6.158570   -4.138346    1.030528
     51          6           0       -7.051809   -2.248674   -0.542110
     52          6           0       -7.578699   -1.165351    0.433582
     53          6           0       -7.931430    0.065756   -0.410288
     54          6           0       -9.041725    0.921977    0.149076
     55          6           0       -9.021311    1.020339    1.688222
     56          6           0      -10.436601    0.550261   -0.415474
     57          6           0      -10.619116    1.018065   -1.853642
     58          6           0      -11.993824    1.858323   -2.028286
     59          6           0      -13.205732    0.900214   -2.143965
     60          6           0      -13.685519    0.788327   -3.562887
     61          6           0      -14.421068    1.322237   -1.208174
     62          6           0      -14.253764    0.809474    0.219728
     63          6           0      -14.776953    1.780997    1.316404
     64          6           0      -13.570757    2.136593    2.227001
     65          6           0      -13.520567    3.643728    2.557824
     66          6           0      -13.416329    1.191164    3.398609
     67          1           0        2.637770    3.373663   -0.318052
     68          1           0        9.008557    3.783332   -0.240639
     69          1           0        9.512358   -2.576486    0.276381
     70          1           0        1.269679   -0.869896   -1.356076
     71          1           0        0.997353    1.303252    0.599454
     72          1           0       -0.152873    0.865492   -1.706622
     73          1           0        1.471259    1.581782   -2.170337
     74          1           0        0.375098    2.447339   -1.086318
     75          1           0        1.085163   -1.360801    1.712395
     76          1           0        0.602450   -2.382717    0.465187
     77          1           0       -1.106333   -0.130631    0.099815
     78          1           0       -0.700897    0.016527    1.759252
     79          1           0        3.504825    5.302986   -1.620010
     80          1           0        4.198477    6.639457   -0.631741
     81          1           0        3.034595    5.597637   -0.021839
     82          1           0        5.892262    7.061473   -1.945263
     83          1           0        7.233438    8.070382   -1.579748
     84          1           0        6.045952    7.735154   -0.283733
     85          1           0       10.736286    2.153929    0.858791
     86          1           0       11.105193   -0.691692    0.322783
     87          1           0       11.406969    0.738813   -1.733870
     88          1           0       11.942266    2.341498   -1.220154
     89          1           0       10.449495    2.028143   -1.962942
     90          1           0       11.632484    0.026251    2.517762
     91          1           0       10.455060   -1.235169    2.637985
     92          1           0        9.162485    0.001708    3.812458
     93          1           0        9.278949    1.421625    2.781747
     94          1           0       10.566802    1.066510    4.037979
     95          1           0        8.808832   -4.783381   -0.663674
     96          1           0        7.184261   -5.540012   -0.749294
     97          1           0        8.063911   -5.407416    0.814757
     98          1           0        2.681180   -3.863434    0.878830
     99          1           0        0.820716   -5.000612   -2.973220
    100          1           0       -0.381282   -3.841141   -2.407211
    101          1           0       -0.299972   -5.512854   -1.721892
    102          1           0       -3.575274   -3.552138    1.310814
    103          1           0       -3.105606   -4.204001   -0.236203
    104          1           0       -4.465967   -1.783865   -0.995468
    105          1           0       -6.087043   -3.623115    1.988626
    106          1           0       -5.445024   -4.961441    1.009368
    107          1           0       -7.205721   -4.441897    1.043246
    108          1           0       -7.860475   -2.913098   -0.843933
    109          1           0       -6.567563   -1.735242   -1.373234
    110          1           0       -6.781544   -0.850913    1.107292
    111          1           0       -8.471644   -1.597599    0.885260
    112          1           0       -8.082235   -0.151897   -1.467816
    113          1           0       -7.034308    0.675593   -0.310123
    114          1           0       -8.884020    1.936146   -0.219027
    115          1           0       -9.787373    0.323240    2.025775
    116          1           0       -9.242770    1.994486    2.124548
    117          1           0       -8.014648    0.796756    2.040769
    118          1           0      -11.203939    0.977357    0.229245
    119          1           0      -10.575743   -0.527532   -0.507605
    120          1           0      -10.627728    0.247326   -2.623721
    121          1           0       -9.832023    1.739156   -2.073285
    122          1           0      -11.908685    2.588380   -2.834335
    123          1           0      -12.056066    2.335089   -1.050511
    124          1           0      -12.989379   -0.121638   -1.830806
    125          1           0      -13.819960   -0.269073   -3.789569
    126          1           0      -13.090567    1.372638   -4.264700
    127          1           0      -14.665547    1.261207   -3.634232
    128          1           0      -15.378650    0.889061   -1.497767
    129          1           0      -14.478265    2.402806   -1.074591
    130          1           0      -13.225200    0.485104    0.371629
    131          1           0      -14.794990   -0.134820    0.279835
    132          1           0      -15.472054    1.233526    1.952469
    133          1           0      -15.426185    2.582285    0.963348
    134          1           0      -12.579447    2.037510    1.783664
    135          1           0      -12.725653    4.184620    2.043670
    136          1           0      -13.388925    3.671588    3.639339
    137          1           0      -14.488959    4.127460    2.436720
    138          1           0      -13.004590    1.681686    4.280749
    139          1           0      -12.555489    0.573195    3.142747
    140          1           0      -14.358936    0.733138    3.696611
 ---------------------------------------------------------------------

 SCF Done:  E(RCAM-B3LYP) =  -3007.15774523     A.U. after   18 cycles

 Excitation energies and oscillator strengths:

 Excited State   1:      Singlet-A      1.7442 eV  710.82 nm  f=0.3636  <S**2>=0.000
     245 -> 248       -0.19460
     246 -> 247        0.68075
     245 <- 248       -0.10915
 This state for optimization and/or second-order correction.
 Total Energy, E(TD-HF/TD-DFT) =  -3007.09364554
 Copying the excited state density for this state as the 1-particle RhoCI density.

 Excited State   2:      Singlet-A      2.2146 eV  559.86 nm  f=0.1080  <S**2>=0.000
     245 -> 247        0.63539
     246 -> 248        0.29845

 Excited State   3:      Singlet-A      3.3868 eV  366.08 nm  f=0.0513  <S**2>=0.000
     242 -> 247        0.10910
     243 -> 247        0.63321
     246 -> 248       -0.25411

 Excited State   4:      Singlet-A      3.5060 eV  353.63 nm  f=0.4908  <S**2>=0.000
     242 -> 247       -0.26548
     243 -> 247        0.28191
     245 -> 247       -0.24440
     246 -> 248        0.53124

 Excited State   5:      Singlet-A      3.6732 eV  337.53 nm  f=0.0054  <S**2>=0.000
     240 -> 247        0.11934
     241 -> 247        0.57019
     241 -> 249        0.24246
     241 -> 251       -0.27043

 The electronic state is 1-A.
 Alpha  occ. eigenvalues --  -46.89560 -19.25820 -19.24934 -19.20121 -19.20097
 Alpha  occ. eigenvalues --  -19.19622 -19.19349 -14.42385 -14.42133 -14.40194
 Alpha  occ. eigenvalues --  -14.38747 -10.40233 -10.39619 -10.36045 -10.35066
 Alpha  occ. eigenvalues --  -10.31448 -10.31310 -10.31302 -10.31097 -10.31076
 Alpha  occ. eigenvalues --  -10.30904 -10.30796 -10.30130 -10.29297 -10.28877
 Alpha  occ. eigenvalues --  -10.28760 -10.28505 -10.28359 -10.28311 -10.28279
 Alpha  occ. eigenvalues --  -10.28258 -10.28180 -10.28112 -10.27696 -10.27559
 Alpha  occ. eigenvalues --  -10.27224 -10.27013 -10.26999 -10.26960 -10.26924
 Alpha  occ. eigenvalues --  -10.26638 -10.26410 -10.26259 -10.26183 -10.26043
 Alpha  occ. eigenvalues --  -10.26028 -10.25917 -10.25512 -10.25352 -10.25347
 Alpha  occ. eigenvalues --  -10.25288 -10.25251 -10.25152 -10.25124 -10.25023
 Alpha  occ. eigenvalues --  -10.24930 -10.24719 -10.24714 -10.24712 -10.24638
 Alpha  occ. eigenvalues --  -10.24504 -10.24241 -10.24196 -10.23964 -10.23810
 Alpha  occ. eigenvalues --  -10.23708  -3.18042  -1.92934  -1.92520  -1.92325
 Alpha  occ. eigenvalues --   -1.18899  -1.16587  -1.10811  -1.10447  -1.09773
 Alpha  occ. eigenvalues --   -1.07906  -1.05814  -1.04072  -1.03774  -1.02778
 Alpha  occ. eigenvalues --   -0.92991  -0.90854  -0.89789  -0.89461  -0.89087
 Alpha  occ. eigenvalues --   -0.88888  -0.88839  -0.87706  -0.87530  -0.86819
 Alpha  occ. eigenvalues --   -0.86314  -0.85775  -0.84512  -0.83969  -0.83557
 Alpha  occ. eigenvalues --   -0.82612  -0.82186  -0.81544  -0.81203  -0.80594
 Alpha  occ. eigenvalues --   -0.79933  -0.78221  -0.78071  -0.77590  -0.76546
 Alpha  occ. eigenvalues --   -0.75840  -0.75580  -0.75555  -0.74635  -0.74240
 Alpha  occ. eigenvalues --   -0.73339  -0.72871  -0.72122  -0.70756  -0.69669
 Alpha  occ. eigenvalues --   -0.68376  -0.68098  -0.67222  -0.66954  -0.65489
 Alpha  occ. eigenvalues --   -0.65329  -0.65232  -0.64820  -0.64416  -0.63782
 Alpha  occ. eigenvalues --   -0.63487  -0.62945  -0.62827  -0.61330  -0.60775
 Alpha  occ. eigenvalues --   -0.60199  -0.59906  -0.59512  -0.59249  -0.58808
 Alpha  occ. eigenvalues --   -0.58044  -0.57351  -0.56633  -0.56436  -0.56153
 Alpha  occ. eigenvalues --   -0.55613  -0.55323  -0.55226  -0.54903  -0.54575
 Alpha  occ. eigenvalues --   -0.54104  -0.53763  -0.53653  -0.53306  -0.52763
 Alpha  occ. eigenvalues --   -0.52694  -0.52589  -0.52459  -0.52422  -0.52185
 Alpha  occ. eigenvalues --   -0.51630  -0.51302  -0.51150  -0.50846  -0.50569
 Alpha  occ. eigenvalues --   -0.50453  -0.50389  -0.50172  -0.49982  -0.49797
 Alpha  occ. eigenvalues --   -0.49543  -0.49413  -0.49370  -0.49180  -0.48973
 Alpha  occ. eigenvalues --   -0.48831  -0.48788  -0.48442  -0.48007  -0.47882
 Alpha  occ. eigenvalues --   -0.47768  -0.47599  -0.47323  -0.47083  -0.46825
 Alpha  occ. eigenvalues --   -0.46749  -0.46632  -0.46495  -0.46247  -0.46110
 Alpha  occ. eigenvalues --   -0.45795  -0.45610  -0.45512  -0.45227  -0.45151
 Alpha  occ. eigenvalues --   -0.44924  -0.44680  -0.44468  -0.44355  -0.44041
 Alpha  occ. eigenvalues --   -0.43653  -0.43531  -0.43357  -0.43175  -0.42914
 Alpha  occ. eigenvalues --   -0.42783  -0.42649  -0.42445  -0.42230  -0.41909
 Alpha  occ. eigenvalues --   -0.41863  -0.41807  -0.41608  -0.41526  -0.41245
 Alpha  occ. eigenvalues --   -0.40783  -0.40573  -0.40522  -0.40447  -0.40224
 Alpha  occ. eigenvalues --   -0.39895  -0.39802  -0.39052  -0.38986  -0.38833
 Alpha  occ. eigenvalues --   -0.38421  -0.38283  -0.38116  -0.37947  -0.37463
 Alpha  occ. eigenvalues --   -0.37147  -0.36999  -0.36913  -0.36164  -0.36044
 Alpha  occ. eigenvalues --   -0.35772  -0.35128  -0.35007  -0.34531  -0.34362
 Alpha  occ. eigenvalues --   -0.33974  -0.33686  -0.33451  -0.31687  -0.31371
 Alpha  occ. eigenvalues --   -0.31243  -0.30331  -0.29812  -0.29311  -0.23946
 Alpha  occ. eigenvalues --   -0.21405
 Alpha virt. eigenvalues --   -0.08665  -0.02142   0.00151   0.02128   0.02564
 Alpha virt. eigenvalues --    0.03907   0.05310   0.05454   0.05602   0.06644
 Alpha virt. eigenvalues --    0.07442   0.07727   0.08360   0.08482   0.09054

 Mulliken charges:
               1
     1  Mg   0.819901
     2  C   -0.015218
     3  C   -0.066497
     4  C   -0.054504
     5  C   -0.087215
     6  N   -0.255283
     7  C   -0.031647
     8  C   -0.051612
     9  C   -0.061672
    10  C    0.047253
    11  C    0.037589
    12  C    0.031982
    13  C    0.074284
    14  C    0.170190
    15  O   -0.240905
    16  O   -0.331887
    17  N   -0.386592
    18  C    0.167450
    19  C   -0.131292
    20  C   -0.047070
    21  C    0.089959
    22  C    0.086459
    23  C    0.025254
    24  O   -0.191325
    25  C    0.029859
    26  N   -0.263442
    27  C    0.051623
    28  C   -0.001407
    29  C   -0.000805
    30  C    0.009538
    31  C    0.068207
    32  C    0.012596
    33  C   -0.008965
    34  N   -0.317265
    35  C    0.112099
    36  C   -0.203793
    37  C    0.029007
    38  C    0.109328
    39  C    0.116962
    40  C    0.008821
    41  O   -0.153917
    42  C    0.026419
    43  C    0.187623
    44  O   -0.195135
    45  O   -0.287326
    46  C    0.164683
    47  C    0.272980
    48  C   -0.125219
    49  C   -0.198975
    50  C    0.080693
    51  C    0.064843
    52  C    0.037779
    53  C    0.027355
    54  C   -0.123743
    55  C    0.055569
    56  C    0.041083
    57  C   -0.012706
    58  C    0.050499
    59  C   -0.151255
    60  C    0.080441
    61  C    0.049206
    62  C   -0.001394
    63  C    0.082173
    64  C   -0.190257
    65  C    0.053125
    66  C    0.064688
    67  H   -0.039003
    68  H   -0.005844
    69  H   -0.023442
    70  H    0.031815
    71  H    0.008619
    72  H    0.039958
    73  H    0.021763
    74  H    0.008515
    75  H    0.010488
    76  H    0.027220
    77  H    0.004362
    78  H    0.027444
    79  H    0.028945
    80  H    0.004695
    81  H    0.023672
    82  H    0.035701
    83  H    0.025081
    84  H    0.054143
    85  H    0.009035
    86  H   -0.005230
    87  H    0.008291
    88  H    0.027077
    89  H    0.007215
    90  H    0.003454
    91  H    0.008457
    92  H    0.012711
    93  H    0.027659
    94  H    0.021834
    95  H    0.022999
    96  H    0.040419
    97  H    0.029290
    98  H    0.042823
    99  H    0.039183
   100  H    0.036878
   101  H    0.032715
   102  H    0.029228
   103  H    0.020078
   104  H    0.001655
   105  H    0.035164
   106  H    0.029660
   107  H    0.009375
   108  H    0.005137
   109  H   -0.002448
   110  H    0.012317
   111  H    0.003619
   112  H    0.006752
   113  H   -0.011911
   114  H   -0.015768
   115  H    0.011475
   116  H    0.007299
   117  H    0.005048
   118  H    0.014387
   119  H   -0.008136
   120  H    0.004221
   121  H   -0.007376
   122  H    0.005436
   123  H   -0.010172
   124  H   -0.004418
   125  H    0.007704
   126  H   -0.000569
   127  H   -0.004478
   128  H   -0.001939
   129  H   -0.004224
   130  H   -0.013107
   131  H   -0.018372
   132  H   -0.018198
   133  H    0.001472
   134  H   -0.000146
   135  H    0.019565
   136  H   -0.016258
   137  H   -0.003563
   138  H   -0.009621
   139  H    0.005436
   140  H    0.017538
 Sum of Mulliken charges =  -0.00000

 Dipole moment (field-independent basis, Debye):
    X=             -1.6846    Y=              2.8976    Z=              0.1891  Tot=              3.3570
 Quadrupole moment (field-independent basis, Debye-Ang):
   XX=           -384.2421   YY=           -419.2578   ZZ=           -415.1338
   XY=              0.5635   XZ=             15.1978   YZ=             -2.6624

 Normal termination of Gaussian 16 at Wed May  4 21:22:10 2022.
