 Gaussian 16, Revision A.03,
 Gaussian 16:  ES64L-G16RevA.03 25-Dec-2016

 ---------------------------------
 #p PBE1PBE/Def2SVP td=(nstates=5)
 ---------------------------------

 -----------------------------------------------------
 step_451_chromophore_16 TDDFT with PBE1PBE functional
 -----------------------------------------------------
 Symbolic Z-matrix:
 Charge =  0 Multiplicity = 1

                         Standard orientation:
 ---------------------------------------------------------------------
 Center     Atomic      Atomic             Coordinates (Angstroms)
 Number     Number       Type             X           Y           Z
 ---------------------------------------------------------------------
      1         12           0        6.086477    0.571513    0.307910
      2          6           0        3.754056   -2.191552    0.044863
      3          6           0        3.452203    2.664324   -0.160060
      4          6           0        8.303055    2.965880   -0.079907
      5          6           0        8.657353   -1.898341    0.222863
      6          7           0        3.783491    0.211187   -0.035970
      7          6           0        3.092710   -0.949533   -0.003047
      8          6           0        1.603619   -0.640439   -0.344250
      9          6           0        1.554859    0.946669   -0.266724
     10          6           0        3.027619    1.354020   -0.158685
     11          6           0        0.708716    1.458344   -1.401118
     12          6           0        0.642473   -1.322665    0.716211
     13          6           0       -0.783618   -0.719070    0.958807
     14          6           0       -1.972251   -1.628601    1.272103
     15          8           0       -2.365410   -1.858352    2.427077
     16          8           0       -2.411692   -2.332496    0.154852
     17          7           0        5.912493    2.609416    0.099524
     18          6           0        4.730024    3.221814   -0.131989
     19          6           0        5.038561    4.630820   -0.389288
     20          6           0        6.488861    4.823329   -0.391555
     21          6           0        6.974057    3.417780   -0.138474
     22          6           0        3.923652    5.585109   -0.653861
     23          6           0        7.335181    6.079318   -0.702371
     24          8           0        8.553107    6.133057   -0.598437
     25          6           0        6.579673    7.318124   -1.138670
     26          7           0        8.123712    0.485785    0.042514
     27          6           0        8.837686    1.651566    0.081254
     28          6           0       10.332785    1.415905    0.166493
     29          6           0       10.386625    0.008514    0.749086
     30          6           0        8.952594   -0.488393    0.296738
     31          6           0       11.112126    1.635988   -1.191693
     32          6           0       10.591829   -0.209464    2.296160
     33          6           0        9.862751    0.666354    3.308223
     34          7           0        6.258492   -1.552567    0.152616
     35          6           0        7.308968   -2.402945    0.166994
     36          6           0        6.926031   -3.746812    0.055813
     37          6           0        5.559615   -3.707589    0.024168
     38          6           0        5.169962   -2.418784    0.058475
     39          6           0        7.861150   -4.934325   -0.145604
     40          6           0        4.342663   -4.541449   -0.073131
     41          8           0        4.236736   -5.749227   -0.099545
     42          6           0        3.149650   -3.588906   -0.066386
     43          6           0        2.298225   -3.852584   -1.300239
     44          8           0        2.633752   -3.498920   -2.393877
     45          8           0        1.098345   -4.388700   -1.003702
     46          6           0        0.267535   -4.661462   -2.097693
     47          6           0       -3.417165   -3.287305    0.264640
     48          6           0       -4.593497   -2.688105   -0.399744
     49          6           0       -5.844614   -3.073883   -0.022614
     50          6           0       -6.158570   -4.138346    1.030528
     51          6           0       -7.051809   -2.248674   -0.542110
     52          6           0       -7.578699   -1.165351    0.433582
     53          6           0       -7.931430    0.065756   -0.410288
     54          6           0       -9.041725    0.921977    0.149076
     55          6           0       -9.021311    1.020339    1.688222
     56          6           0      -10.436601    0.550261   -0.415474
     57          6           0      -10.619116    1.018065   -1.853642
     58          6           0      -11.993824    1.858323   -2.028286
     59          6           0      -13.205732    0.900214   -2.143965
     60          6           0      -13.685519    0.788327   -3.562887
     61          6           0      -14.421068    1.322237   -1.208174
     62          6           0      -14.253764    0.809474    0.219728
     63          6           0      -14.776953    1.780997    1.316404
     64          6           0      -13.570757    2.136593    2.227001
     65          6           0      -13.520567    3.643728    2.557824
     66          6           0      -13.416329    1.191164    3.398609
     67          1           0        2.637770    3.373663   -0.318052
     68          1           0        9.008557    3.783332   -0.240639
     69          1           0        9.512358   -2.576486    0.276381
     70          1           0        1.269679   -0.869896   -1.356076
     71          1           0        0.997353    1.303252    0.599454
     72          1           0       -0.152873    0.865492   -1.706622
     73          1           0        1.471259    1.581782   -2.170337
     74          1           0        0.375098    2.447339   -1.086318
     75          1           0        1.085163   -1.360801    1.712395
     76          1           0        0.602450   -2.382717    0.465187
     77          1           0       -1.106333   -0.130631    0.099815
     78          1           0       -0.700897    0.016527    1.759252
     79          1           0        3.504825    5.302986   -1.620010
     80          1           0        4.198477    6.639457   -0.631741
     81          1           0        3.034595    5.597637   -0.021839
     82          1           0        5.892262    7.061473   -1.945263
     83          1           0        7.233438    8.070382   -1.579748
     84          1           0        6.045952    7.735154   -0.283733
     85          1           0       10.736286    2.153929    0.858791
     86          1           0       11.105193   -0.691692    0.322783
     87          1           0       11.406969    0.738813   -1.733870
     88          1           0       11.942266    2.341498   -1.220154
     89          1           0       10.449495    2.028143   -1.962942
     90          1           0       11.632484    0.026251    2.517762
     91          1           0       10.455060   -1.235169    2.637985
     92          1           0        9.162485    0.001708    3.812458
     93          1           0        9.278949    1.421625    2.781747
     94          1           0       10.566802    1.066510    4.037979
     95          1           0        8.808832   -4.783381   -0.663674
     96          1           0        7.184261   -5.540012   -0.749294
     97          1           0        8.063911   -5.407416    0.814757
     98          1           0        2.681180   -3.863434    0.878830
     99          1           0        0.820716   -5.000612   -2.973220
    100          1           0       -0.381282   -3.841141   -2.407211
    101          1           0       -0.299972   -5.512854   -1.721892
    102          1           0       -3.575274   -3.552138    1.310814
    103          1           0       -3.105606   -4.204001   -0.236203
    104          1           0       -4.465967   -1.783865   -0.995468
    105          1           0       -6.087043   -3.623115    1.988626
    106          1           0       -5.445024   -4.961441    1.009368
    107          1           0       -7.205721   -4.441897    1.043246
    108          1           0       -7.860475   -2.913098   -0.843933
    109          1           0       -6.567563   -1.735242   -1.373234
    110          1           0       -6.781544   -0.850913    1.107292
    111          1           0       -8.471644   -1.597599    0.885260
    112          1           0       -8.082235   -0.151897   -1.467816
    113          1           0       -7.034308    0.675593   -0.310123
    114          1           0       -8.884020    1.936146   -0.219027
    115          1           0       -9.787373    0.323240    2.025775
    116          1           0       -9.242770    1.994486    2.124548
    117          1           0       -8.014648    0.796756    2.040769
    118          1           0      -11.203939    0.977357    0.229245
    119          1           0      -10.575743   -0.527532   -0.507605
    120          1           0      -10.627728    0.247326   -2.623721
    121          1           0       -9.832023    1.739156   -2.073285
    122          1           0      -11.908685    2.588380   -2.834335
    123          1           0      -12.056066    2.335089   -1.050511
    124          1           0      -12.989379   -0.121638   -1.830806
    125          1           0      -13.819960   -0.269073   -3.789569
    126          1           0      -13.090567    1.372638   -4.264700
    127          1           0      -14.665547    1.261207   -3.634232
    128          1           0      -15.378650    0.889061   -1.497767
    129          1           0      -14.478265    2.402806   -1.074591
    130          1           0      -13.225200    0.485104    0.371629
    131          1           0      -14.794990   -0.134820    0.279835
    132          1           0      -15.472054    1.233526    1.952469
    133          1           0      -15.426185    2.582285    0.963348
    134          1           0      -12.579447    2.037510    1.783664
    135          1           0      -12.725653    4.184620    2.043670
    136          1           0      -13.388925    3.671588    3.639339
    137          1           0      -14.488959    4.127460    2.436720
    138          1           0      -13.004590    1.681686    4.280749
    139          1           0      -12.555489    0.573195    3.142747
    140          1           0      -14.358936    0.733138    3.696611
 ---------------------------------------------------------------------

 SCF Done:  E(RPBE1PBE) =  -3005.34768989     A.U. after   15 cycles

 Excitation energies and oscillator strengths:

 Excited State   1:      Singlet-A      1.9007 eV  652.32 nm  f=0.3524  <S**2>=0.000
     245 -> 248       -0.18721
     246 -> 247        0.68700
 This state for optimization and/or second-order correction.
 Total Energy, E(TD-HF/TD-DFT) =  -3005.27784170
 Copying the excited state density for this state as the 1-particle RhoCI density.

 Excited State   2:      Singlet-A      2.2304 eV  555.87 nm  f=0.1050  <S**2>=0.000
     245 -> 247        0.64746
     246 -> 248        0.26991

 Excited State   3:      Singlet-A      3.0906 eV  401.16 nm  f=0.0037  <S**2>=0.000
     241 -> 247        0.12767
     243 -> 247        0.67198
     246 -> 248       -0.13513

 Excited State   4:      Singlet-A      3.1537 eV  393.14 nm  f=0.0010  <S**2>=0.000
     241 -> 247        0.64753
     241 -> 249        0.13405
     241 -> 250       -0.11835
     242 -> 247        0.14008
     243 -> 247       -0.15228

 Excited State   5:      Singlet-A      3.2511 eV  381.36 nm  f=0.0723  <S**2>=0.000
     241 -> 247       -0.15515
     242 -> 247        0.54079
     245 -> 247        0.10648
     246 -> 248       -0.38221

 The electronic state is 1-A.
 Alpha  occ. eigenvalues --  -46.92948 -19.26433 -19.25648 -19.20407 -19.20285
 Alpha  occ. eigenvalues --  -19.19814 -19.19536 -14.41887 -14.41626 -14.39809
 Alpha  occ. eigenvalues --  -14.38448 -10.37276 -10.36601 -10.33167 -10.32210
 Alpha  occ. eigenvalues --  -10.29184 -10.29056 -10.28782 -10.28662 -10.28511
 Alpha  occ. eigenvalues --  -10.28491 -10.28471 -10.27814 -10.26962 -10.26574
 Alpha  occ. eigenvalues --  -10.26569 -10.26202 -10.26148 -10.26077 -10.26040
 Alpha  occ. eigenvalues --  -10.25956 -10.25916 -10.25681 -10.25343 -10.25316
 Alpha  occ. eigenvalues --  -10.24810 -10.24698 -10.24694 -10.24653 -10.24349
 Alpha  occ. eigenvalues --  -10.24312 -10.24056 -10.23654 -10.23554 -10.23531
 Alpha  occ. eigenvalues --  -10.23421 -10.23355 -10.23088 -10.23059 -10.22982
 Alpha  occ. eigenvalues --  -10.22910 -10.22818 -10.22744 -10.22655 -10.22605
 Alpha  occ. eigenvalues --  -10.22502 -10.22303 -10.22293 -10.22275 -10.22169
 Alpha  occ. eigenvalues --  -10.22051 -10.21806 -10.21593 -10.21515 -10.21206
 Alpha  occ. eigenvalues --  -10.21077  -3.15013  -1.87845  -1.87409  -1.87219
 Alpha  occ. eigenvalues --   -1.13682  -1.11431  -1.05535  -1.05167  -1.04576
 Alpha  occ. eigenvalues --   -1.02759  -1.00460  -0.98749  -0.98439  -0.97411
 Alpha  occ. eigenvalues --   -0.87348  -0.84958  -0.83930  -0.83635  -0.83368
 Alpha  occ. eigenvalues --   -0.83180  -0.83014  -0.81895  -0.81764  -0.81063
 Alpha  occ. eigenvalues --   -0.80671  -0.80023  -0.78718  -0.78255  -0.77822
 Alpha  occ. eigenvalues --   -0.76822  -0.76374  -0.75797  -0.75475  -0.74860
 Alpha  occ. eigenvalues --   -0.74156  -0.72506  -0.72342  -0.71896  -0.70869
 Alpha  occ. eigenvalues --   -0.70059  -0.69912  -0.69659  -0.68782  -0.68412
 Alpha  occ. eigenvalues --   -0.67690  -0.67266  -0.66556  -0.65046  -0.64060
 Alpha  occ. eigenvalues --   -0.62756  -0.62463  -0.61665  -0.61148  -0.60022
 Alpha  occ. eigenvalues --   -0.59818  -0.59385  -0.59251  -0.58923  -0.58215
 Alpha  occ. eigenvalues --   -0.57661  -0.57493  -0.56995  -0.55566  -0.55300
 Alpha  occ. eigenvalues --   -0.54670  -0.54351  -0.53992  -0.53772  -0.53379
 Alpha  occ. eigenvalues --   -0.52611  -0.51794  -0.51193  -0.50864  -0.50467
 Alpha  occ. eigenvalues --   -0.50177  -0.49874  -0.49742  -0.49524  -0.49208
 Alpha  occ. eigenvalues --   -0.48606  -0.48362  -0.48140  -0.47762  -0.47321
 Alpha  occ. eigenvalues --   -0.47212  -0.46950  -0.46938  -0.46919  -0.46703
 Alpha  occ. eigenvalues --   -0.46171  -0.45823  -0.45720  -0.45519  -0.45098
 Alpha  occ. eigenvalues --   -0.44986  -0.44962  -0.44731  -0.44584  -0.44344
 Alpha  occ. eigenvalues --   -0.44103  -0.44025  -0.43968  -0.43809  -0.43524
 Alpha  occ. eigenvalues --   -0.43491  -0.43394  -0.43034  -0.42707  -0.42500
 Alpha  occ. eigenvalues --   -0.42415  -0.42212  -0.42010  -0.41639  -0.41463
 Alpha  occ. eigenvalues --   -0.41425  -0.41337  -0.41086  -0.40964  -0.40842
 Alpha  occ. eigenvalues --   -0.40530  -0.40303  -0.40239  -0.39928  -0.39893
 Alpha  occ. eigenvalues --   -0.39711  -0.39468  -0.39183  -0.39139  -0.38818
 Alpha  occ. eigenvalues --   -0.38467  -0.38342  -0.38134  -0.37918  -0.37759
 Alpha  occ. eigenvalues --   -0.37445  -0.37427  -0.37265  -0.37018  -0.36692
 Alpha  occ. eigenvalues --   -0.36622  -0.36578  -0.36455  -0.36273  -0.36058
 Alpha  occ. eigenvalues --   -0.35667  -0.35420  -0.35363  -0.35294  -0.34971
 Alpha  occ. eigenvalues --   -0.34701  -0.34601  -0.33937  -0.33788  -0.33631
 Alpha  occ. eigenvalues --   -0.33379  -0.33130  -0.32933  -0.32898  -0.32331
 Alpha  occ. eigenvalues --   -0.32096  -0.32077  -0.31706  -0.31215  -0.30954
 Alpha  occ. eigenvalues --   -0.30650  -0.30079  -0.29835  -0.29647  -0.29334
 Alpha  occ. eigenvalues --   -0.29070  -0.28811  -0.28585  -0.27068  -0.26427
 Alpha  occ. eigenvalues --   -0.26080  -0.25934  -0.25443  -0.24623  -0.20927
 Alpha  occ. eigenvalues --   -0.19015
 Alpha virt. eigenvalues --   -0.11146  -0.05640  -0.04040  -0.01901  -0.00857
 Alpha virt. eigenvalues --   -0.00570   0.00818   0.01061   0.01140   0.02574
 Alpha virt. eigenvalues --    0.03979   0.04150   0.04270   0.05033   0.05853

 Mulliken charges:
               1
     1  Mg   0.963786
     2  C   -0.025445
     3  C   -0.060302
     4  C   -0.039743
     5  C   -0.065644
     6  N   -0.361186
     7  C    0.052214
     8  C   -0.134148
     9  C   -0.134277
    10  C    0.090793
    11  C   -0.022892
    12  C   -0.011223
    13  C   -0.008256
    14  C    0.237011
    15  O   -0.273456
    16  O   -0.363358
    17  N   -0.507480
    18  C    0.194035
    19  C   -0.169085
    20  C   -0.079722
    21  C    0.119024
    22  C    0.026838
    23  C    0.072369
    24  O   -0.229772
    25  C   -0.043879
    26  N   -0.367360
    27  C    0.065854
    28  C   -0.079078
    29  C   -0.074185
    30  C    0.045277
    31  C    0.017367
    32  C   -0.043004
    33  C   -0.083040
    34  N   -0.439180
    35  C    0.129028
    36  C   -0.217369
    37  C   -0.030704
    38  C    0.156605
    39  C    0.062221
    40  C    0.118511
    41  O   -0.202122
    42  C   -0.085447
    43  C    0.276625
    44  O   -0.230591
    45  O   -0.323546
    46  C    0.110549
    47  C    0.235795
    48  C   -0.139257
    49  C   -0.232699
    50  C    0.014994
    51  C   -0.000861
    52  C   -0.026469
    53  C   -0.028733
    54  C   -0.205238
    55  C   -0.011353
    56  C   -0.028767
    57  C   -0.071337
    58  C   -0.010525
    59  C   -0.236925
    60  C    0.023994
    61  C   -0.007187
    62  C   -0.064496
    63  C    0.024784
    64  C   -0.296014
    65  C   -0.004690
    66  C    0.007359
    67  H   -0.007066
    68  H    0.025918
    69  H    0.006940
    70  H    0.067666
    71  H    0.047073
    72  H    0.065373
    73  H    0.051717
    74  H    0.036434
    75  H    0.042734
    76  H    0.065921
    77  H    0.039509
    78  H    0.058940
    79  H    0.057829
    80  H    0.032590
    81  H    0.050484
    82  H    0.062920
    83  H    0.053039
    84  H    0.080214
    85  H    0.045891
    86  H    0.031081
    87  H    0.035420
    88  H    0.053517
    89  H    0.034988
    90  H    0.037349
    91  H    0.040547
    92  H    0.040973
    93  H    0.059252
    94  H    0.049204
    95  H    0.048820
    96  H    0.068466
    97  H    0.057721
    98  H    0.079445
    99  H    0.060803
   100  H    0.058552
   101  H    0.054662
   102  H    0.054270
   103  H    0.047670
   104  H    0.030591
   105  H    0.062986
   106  H    0.056342
   107  H    0.036974
   108  H    0.037896
   109  H    0.031305
   110  H    0.044596
   111  H    0.037009
   112  H    0.038217
   113  H    0.023460
   114  H    0.023701
   115  H    0.040320
   116  H    0.035698
   117  H    0.033984
   118  H    0.054924
   119  H    0.025281
   120  H    0.036895
   121  H    0.025485
   122  H    0.036194
   123  H    0.026917
   124  H    0.033971
   125  H    0.035006
   126  H    0.026421
   127  H    0.023625
   128  H    0.030734
   129  H    0.029233
   130  H    0.024482
   131  H    0.015616
   132  H    0.015754
   133  H    0.030765
   134  H    0.048061
   135  H    0.045387
   136  H    0.011646
   137  H    0.024333
   138  H    0.017705
   139  H    0.033381
   140  H    0.043249
 Sum of Mulliken charges =  -0.00000

 Dipole moment (field-independent basis, Debye):
    X=             -1.6237    Y=              2.8503    Z=              0.2393  Tot=              3.2890
 Quadrupole moment (field-independent basis, Debye-Ang):
   XX=           -377.8420   YY=           -416.8269   ZZ=           -412.6548
   XY=             -0.3043   XZ=             15.3651   YZ=             -2.8948

 Normal termination of Gaussian 16 at Wed May  4 22:02:11 2022.
