 Gaussian 16, Revision A.03,
 Gaussian 16:  ES64L-G16RevA.03 25-Dec-2016

 --------------------------------
 #p wB97XD/Def2SVP td=(nstates=5)
 --------------------------------

 ----------------------------------------------------
 step_451_chromophore_16 TDDFT with wB97XD functional
 ----------------------------------------------------
 Symbolic Z-matrix:
 Charge =  0 Multiplicity = 1

                         Standard orientation:
 ---------------------------------------------------------------------
 Center     Atomic      Atomic             Coordinates (Angstroms)
 Number     Number       Type             X           Y           Z
 ---------------------------------------------------------------------
      1         12           0        6.086477    0.571513    0.307910
      2          6           0        3.754056   -2.191552    0.044863
      3          6           0        3.452203    2.664324   -0.160060
      4          6           0        8.303055    2.965880   -0.079907
      5          6           0        8.657353   -1.898341    0.222863
      6          7           0        3.783491    0.211187   -0.035970
      7          6           0        3.092710   -0.949533   -0.003047
      8          6           0        1.603619   -0.640439   -0.344250
      9          6           0        1.554859    0.946669   -0.266724
     10          6           0        3.027619    1.354020   -0.158685
     11          6           0        0.708716    1.458344   -1.401118
     12          6           0        0.642473   -1.322665    0.716211
     13          6           0       -0.783618   -0.719070    0.958807
     14          6           0       -1.972251   -1.628601    1.272103
     15          8           0       -2.365410   -1.858352    2.427077
     16          8           0       -2.411692   -2.332496    0.154852
     17          7           0        5.912493    2.609416    0.099524
     18          6           0        4.730024    3.221814   -0.131989
     19          6           0        5.038561    4.630820   -0.389288
     20          6           0        6.488861    4.823329   -0.391555
     21          6           0        6.974057    3.417780   -0.138474
     22          6           0        3.923652    5.585109   -0.653861
     23          6           0        7.335181    6.079318   -0.702371
     24          8           0        8.553107    6.133057   -0.598437
     25          6           0        6.579673    7.318124   -1.138670
     26          7           0        8.123712    0.485785    0.042514
     27          6           0        8.837686    1.651566    0.081254
     28          6           0       10.332785    1.415905    0.166493
     29          6           0       10.386625    0.008514    0.749086
     30          6           0        8.952594   -0.488393    0.296738
     31          6           0       11.112126    1.635988   -1.191693
     32          6           0       10.591829   -0.209464    2.296160
     33          6           0        9.862751    0.666354    3.308223
     34          7           0        6.258492   -1.552567    0.152616
     35          6           0        7.308968   -2.402945    0.166994
     36          6           0        6.926031   -3.746812    0.055813
     37          6           0        5.559615   -3.707589    0.024168
     38          6           0        5.169962   -2.418784    0.058475
     39          6           0        7.861150   -4.934325   -0.145604
     40          6           0        4.342663   -4.541449   -0.073131
     41          8           0        4.236736   -5.749227   -0.099545
     42          6           0        3.149650   -3.588906   -0.066386
     43          6           0        2.298225   -3.852584   -1.300239
     44          8           0        2.633752   -3.498920   -2.393877
     45          8           0        1.098345   -4.388700   -1.003702
     46          6           0        0.267535   -4.661462   -2.097693
     47          6           0       -3.417165   -3.287305    0.264640
     48          6           0       -4.593497   -2.688105   -0.399744
     49          6           0       -5.844614   -3.073883   -0.022614
     50          6           0       -6.158570   -4.138346    1.030528
     51          6           0       -7.051809   -2.248674   -0.542110
     52          6           0       -7.578699   -1.165351    0.433582
     53          6           0       -7.931430    0.065756   -0.410288
     54          6           0       -9.041725    0.921977    0.149076
     55          6           0       -9.021311    1.020339    1.688222
     56          6           0      -10.436601    0.550261   -0.415474
     57          6           0      -10.619116    1.018065   -1.853642
     58          6           0      -11.993824    1.858323   -2.028286
     59          6           0      -13.205732    0.900214   -2.143965
     60          6           0      -13.685519    0.788327   -3.562887
     61          6           0      -14.421068    1.322237   -1.208174
     62          6           0      -14.253764    0.809474    0.219728
     63          6           0      -14.776953    1.780997    1.316404
     64          6           0      -13.570757    2.136593    2.227001
     65          6           0      -13.520567    3.643728    2.557824
     66          6           0      -13.416329    1.191164    3.398609
     67          1           0        2.637770    3.373663   -0.318052
     68          1           0        9.008557    3.783332   -0.240639
     69          1           0        9.512358   -2.576486    0.276381
     70          1           0        1.269679   -0.869896   -1.356076
     71          1           0        0.997353    1.303252    0.599454
     72          1           0       -0.152873    0.865492   -1.706622
     73          1           0        1.471259    1.581782   -2.170337
     74          1           0        0.375098    2.447339   -1.086318
     75          1           0        1.085163   -1.360801    1.712395
     76          1           0        0.602450   -2.382717    0.465187
     77          1           0       -1.106333   -0.130631    0.099815
     78          1           0       -0.700897    0.016527    1.759252
     79          1           0        3.504825    5.302986   -1.620010
     80          1           0        4.198477    6.639457   -0.631741
     81          1           0        3.034595    5.597637   -0.021839
     82          1           0        5.892262    7.061473   -1.945263
     83          1           0        7.233438    8.070382   -1.579748
     84          1           0        6.045952    7.735154   -0.283733
     85          1           0       10.736286    2.153929    0.858791
     86          1           0       11.105193   -0.691692    0.322783
     87          1           0       11.406969    0.738813   -1.733870
     88          1           0       11.942266    2.341498   -1.220154
     89          1           0       10.449495    2.028143   -1.962942
     90          1           0       11.632484    0.026251    2.517762
     91          1           0       10.455060   -1.235169    2.637985
     92          1           0        9.162485    0.001708    3.812458
     93          1           0        9.278949    1.421625    2.781747
     94          1           0       10.566802    1.066510    4.037979
     95          1           0        8.808832   -4.783381   -0.663674
     96          1           0        7.184261   -5.540012   -0.749294
     97          1           0        8.063911   -5.407416    0.814757
     98          1           0        2.681180   -3.863434    0.878830
     99          1           0        0.820716   -5.000612   -2.973220
    100          1           0       -0.381282   -3.841141   -2.407211
    101          1           0       -0.299972   -5.512854   -1.721892
    102          1           0       -3.575274   -3.552138    1.310814
    103          1           0       -3.105606   -4.204001   -0.236203
    104          1           0       -4.465967   -1.783865   -0.995468
    105          1           0       -6.087043   -3.623115    1.988626
    106          1           0       -5.445024   -4.961441    1.009368
    107          1           0       -7.205721   -4.441897    1.043246
    108          1           0       -7.860475   -2.913098   -0.843933
    109          1           0       -6.567563   -1.735242   -1.373234
    110          1           0       -6.781544   -0.850913    1.107292
    111          1           0       -8.471644   -1.597599    0.885260
    112          1           0       -8.082235   -0.151897   -1.467816
    113          1           0       -7.034308    0.675593   -0.310123
    114          1           0       -8.884020    1.936146   -0.219027
    115          1           0       -9.787373    0.323240    2.025775
    116          1           0       -9.242770    1.994486    2.124548
    117          1           0       -8.014648    0.796756    2.040769
    118          1           0      -11.203939    0.977357    0.229245
    119          1           0      -10.575743   -0.527532   -0.507605
    120          1           0      -10.627728    0.247326   -2.623721
    121          1           0       -9.832023    1.739156   -2.073285
    122          1           0      -11.908685    2.588380   -2.834335
    123          1           0      -12.056066    2.335089   -1.050511
    124          1           0      -12.989379   -0.121638   -1.830806
    125          1           0      -13.819960   -0.269073   -3.789569
    126          1           0      -13.090567    1.372638   -4.264700
    127          1           0      -14.665547    1.261207   -3.634232
    128          1           0      -15.378650    0.889061   -1.497767
    129          1           0      -14.478265    2.402806   -1.074591
    130          1           0      -13.225200    0.485104    0.371629
    131          1           0      -14.794990   -0.134820    0.279835
    132          1           0      -15.472054    1.233526    1.952469
    133          1           0      -15.426185    2.582285    0.963348
    134          1           0      -12.579447    2.037510    1.783664
    135          1           0      -12.725653    4.184620    2.043670
    136          1           0      -13.388925    3.671588    3.639339
    137          1           0      -14.488959    4.127460    2.436720
    138          1           0      -13.004590    1.681686    4.280749
    139          1           0      -12.555489    0.573195    3.142747
    140          1           0      -14.358936    0.733138    3.696611
 ---------------------------------------------------------------------

 SCF Done:  E(RwB97XD) =  -3007.86058551     A.U. after   19 cycles

 Excitation energies and oscillator strengths:

 Excited State   1:      Singlet-A      1.6855 eV  735.60 nm  f=0.3616  <S**2>=0.000
     245 -> 248       -0.20043
     246 -> 247        0.67872
     245 <- 248       -0.11900
 This state for optimization and/or second-order correction.
 Total Energy, E(TD-HF/TD-DFT) =  -3007.79864489
 Copying the excited state density for this state as the 1-particle RhoCI density.

 Excited State   2:      Singlet-A      2.1579 eV  574.56 nm  f=0.1054  <S**2>=0.000
     245 -> 247        0.63348
     246 -> 248        0.30111

 Excited State   3:      Singlet-A      3.3932 eV  365.39 nm  f=0.0596  <S**2>=0.000
     242 -> 247        0.12634
     243 -> 247        0.61922
     246 -> 248       -0.27113

 Excited State   4:      Singlet-A      3.5276 eV  351.47 nm  f=0.5122  <S**2>=0.000
     242 -> 247       -0.25662
     243 -> 247        0.30163
     245 -> 247       -0.24656
     246 -> 248        0.52376
     245 <- 247        0.10050

 Excited State   5:      Singlet-A      3.7003 eV  335.06 nm  f=0.0078  <S**2>=0.000
     241 -> 247        0.56666
     241 -> 249        0.26720
     241 -> 250       -0.28327

 The electronic state is 1-A.
 Alpha  occ. eigenvalues --  -46.95899 -19.31036 -19.30204 -19.25111 -19.25027
 Alpha  occ. eigenvalues --  -19.24639 -19.24406 -14.46956 -14.46730 -14.44767
 Alpha  occ. eigenvalues --  -14.43375 -10.44098 -10.43465 -10.40014 -10.39091
 Alpha  occ. eigenvalues --  -10.35500 -10.35340 -10.35102 -10.35021 -10.34975
 Alpha  occ. eigenvalues --  -10.34922 -10.34831 -10.34150 -10.33455 -10.32897
 Alpha  occ. eigenvalues --  -10.32845 -10.32543 -10.32498 -10.32405 -10.32374
 Alpha  occ. eigenvalues --  -10.32299 -10.32166 -10.32147 -10.31714 -10.31595
 Alpha  occ. eigenvalues --  -10.31265 -10.31127 -10.31071 -10.30987 -10.30870
 Alpha  occ. eigenvalues --  -10.30690 -10.30342 -10.30121 -10.30068 -10.29899
 Alpha  occ. eigenvalues --  -10.29872 -10.29807 -10.29469 -10.29336 -10.29294
 Alpha  occ. eigenvalues --  -10.29262 -10.29090 -10.29074 -10.29052 -10.28969
 Alpha  occ. eigenvalues --  -10.28861 -10.28663 -10.28648 -10.28647 -10.28535
 Alpha  occ. eigenvalues --  -10.28473 -10.28168 -10.28007 -10.27879 -10.27618
 Alpha  occ. eigenvalues --  -10.27511  -3.21836  -1.95414  -1.94980  -1.94787
 Alpha  occ. eigenvalues --   -1.21085  -1.18816  -1.13053  -1.12657  -1.11967
 Alpha  occ. eigenvalues --   -1.10132  -1.07817  -1.06124  -1.05805  -1.04805
 Alpha  occ. eigenvalues --   -0.94992  -0.92630  -0.91598  -0.91282  -0.91005
 Alpha  occ. eigenvalues --   -0.90739  -0.90664  -0.89528  -0.89406  -0.88745
 Alpha  occ. eigenvalues --   -0.88271  -0.87676  -0.86369  -0.85889  -0.85445
 Alpha  occ. eigenvalues --   -0.84470  -0.84076  -0.83468  -0.83109  -0.82509
 Alpha  occ. eigenvalues --   -0.81809  -0.80167  -0.80002  -0.79519  -0.78473
 Alpha  occ. eigenvalues --   -0.77703  -0.77513  -0.77343  -0.76458  -0.76071
 Alpha  occ. eigenvalues --   -0.75282  -0.74843  -0.74092  -0.72682  -0.71595
 Alpha  occ. eigenvalues --   -0.70329  -0.70058  -0.69228  -0.68810  -0.67478
 Alpha  occ. eigenvalues --   -0.67292  -0.67058  -0.66769  -0.66391  -0.65731
 Alpha  occ. eigenvalues --   -0.65308  -0.64918  -0.64643  -0.63182  -0.62759
 Alpha  occ. eigenvalues --   -0.62165  -0.61859  -0.61472  -0.61233  -0.60785
 Alpha  occ. eigenvalues --   -0.60038  -0.59263  -0.58611  -0.58336  -0.58001
 Alpha  occ. eigenvalues --   -0.57602  -0.57274  -0.57170  -0.56910  -0.56549
 Alpha  occ. eigenvalues --   -0.56008  -0.55698  -0.55556  -0.55183  -0.54691
 Alpha  occ. eigenvalues --   -0.54595  -0.54488  -0.54331  -0.54309  -0.54121
 Alpha  occ. eigenvalues --   -0.53595  -0.53207  -0.53056  -0.52772  -0.52472
 Alpha  occ. eigenvalues --   -0.52374  -0.52278  -0.52135  -0.51908  -0.51718
 Alpha  occ. eigenvalues --   -0.51447  -0.51335  -0.51323  -0.51093  -0.50842
 Alpha  occ. eigenvalues --   -0.50757  -0.50679  -0.50320  -0.49945  -0.49785
 Alpha  occ. eigenvalues --   -0.49673  -0.49495  -0.49262  -0.48925  -0.48711
 Alpha  occ. eigenvalues --   -0.48682  -0.48556  -0.48351  -0.48170  -0.48046
 Alpha  occ. eigenvalues --   -0.47731  -0.47480  -0.47435  -0.47108  -0.47070
 Alpha  occ. eigenvalues --   -0.46846  -0.46647  -0.46356  -0.46278  -0.45952
 Alpha  occ. eigenvalues --   -0.45567  -0.45439  -0.45264  -0.45121  -0.44887
 Alpha  occ. eigenvalues --   -0.44645  -0.44626  -0.44379  -0.44186  -0.43783
 Alpha  occ. eigenvalues --   -0.43726  -0.43684  -0.43535  -0.43389  -0.43206
 Alpha  occ. eigenvalues --   -0.42689  -0.42512  -0.42403  -0.42342  -0.42082
 Alpha  occ. eigenvalues --   -0.41737  -0.41666  -0.40937  -0.40821  -0.40696
 Alpha  occ. eigenvalues --   -0.40342  -0.40148  -0.39956  -0.39873  -0.39328
 Alpha  occ. eigenvalues --   -0.39169  -0.39132  -0.38751  -0.38076  -0.37971
 Alpha  occ. eigenvalues --   -0.37617  -0.37023  -0.36961  -0.36512  -0.36226
 Alpha  occ. eigenvalues --   -0.35949  -0.35683  -0.35512  -0.33677  -0.33548
 Alpha  occ. eigenvalues --   -0.33230  -0.32504  -0.32008  -0.31361  -0.25865
 Alpha  occ. eigenvalues --   -0.23221
 Alpha virt. eigenvalues --   -0.07019  -0.00237   0.02221   0.04627   0.05247
 Alpha virt. eigenvalues --    0.06078   0.07607   0.07748   0.07840   0.09217
 Alpha virt. eigenvalues --    0.10417   0.10775   0.10999   0.11729   0.12615

 Mulliken charges:
               1
     1  Mg   0.955065
     2  C   -0.029712
     3  C   -0.073917
     4  C   -0.059010
     5  C   -0.089121
     6  N   -0.323382
     7  C    0.016014
     8  C   -0.105782
     9  C   -0.105594
    10  C    0.072849
    11  C   -0.013492
    12  C    0.001124
    13  C    0.012340
    14  C    0.227215
    15  O   -0.270801
    16  O   -0.362111
    17  N   -0.472483
    18  C    0.182612
    19  C   -0.153447
    20  C   -0.081150
    21  C    0.112367
    22  C    0.037384
    23  C    0.070478
    24  O   -0.223898
    25  C   -0.032162
    26  N   -0.335260
    27  C    0.060900
    28  C   -0.056632
    29  C   -0.046694
    30  C    0.029143
    31  C    0.023468
    32  C   -0.033423
    33  C   -0.063044
    34  N   -0.404498
    35  C    0.124979
    36  C   -0.214802
    37  C   -0.021988
    38  C    0.142203
    39  C    0.073271
    40  C    0.093823
    41  O   -0.191331
    42  C   -0.044409
    43  C    0.251881
    44  O   -0.224830
    45  O   -0.320009
    46  C    0.124717
    47  C    0.249245
    48  C   -0.149134
    49  C   -0.220972
    50  C    0.026524
    51  C    0.023159
    52  C   -0.012624
    53  C   -0.012346
    54  C   -0.175501
    55  C    0.005719
    56  C    0.004716
    57  C   -0.058157
    58  C    0.012636
    59  C   -0.207754
    60  C    0.032988
    61  C    0.008833
    62  C   -0.041634
    63  C    0.037533
    64  C   -0.255708
    65  C    0.008017
    66  C    0.018574
    67  H   -0.015190
    68  H    0.020909
    69  H    0.003326
    70  H    0.058384
    71  H    0.033641
    72  H    0.060385
    73  H    0.044401
    74  H    0.031221
    75  H    0.036137
    76  H    0.050025
    77  H    0.028652
    78  H    0.053808
    79  H    0.052432
    80  H    0.027249
    81  H    0.046523
    82  H    0.056285
    83  H    0.051795
    84  H    0.074988
    85  H    0.037224
    86  H    0.022743
    87  H    0.029963
    88  H    0.049399
    89  H    0.028184
    90  H    0.029240
    91  H    0.033184
    92  H    0.034873
    93  H    0.045788
    94  H    0.044990
    95  H    0.044700
    96  H    0.062970
    97  H    0.053249
    98  H    0.073596
    99  H    0.056420
   100  H    0.055274
   101  H    0.051064
   102  H    0.048193
   103  H    0.043560
   104  H    0.027644
   105  H    0.056748
   106  H    0.051632
   107  H    0.032794
   108  H    0.031164
   109  H    0.018808
   110  H    0.035085
   111  H    0.027071
   112  H    0.028320
   113  H    0.014261
   114  H    0.010982
   115  H    0.031700
   116  H    0.030977
   117  H    0.026380
   118  H    0.023553
   119  H    0.015580
   120  H    0.028284
   121  H    0.015888
   122  H    0.030121
   123  H    0.010891
   124  H    0.020039
   125  H    0.030510
   126  H    0.020773
   127  H    0.016834
   128  H    0.023111
   129  H    0.017887
   130  H    0.005253
   131  H    0.008397
   132  H    0.006395
   133  H    0.023666
   134  H    0.028259
   135  H    0.040922
   136  H    0.003908
   137  H    0.017869
   138  H    0.011275
   139  H    0.026950
   140  H    0.037517
 Sum of Mulliken charges =  -0.00000

 Dipole moment (field-independent basis, Debye):
    X=             -1.7289    Y=              2.9352    Z=              0.2056  Tot=              3.4127
 Quadrupole moment (field-independent basis, Debye-Ang):
   XX=           -379.3037   YY=           -415.0366   ZZ=           -412.3287
   XY=              0.2647   XZ=             15.4316   YZ=             -2.9714

 Normal termination of Gaussian 16 at Wed May  4 22:40:56 2022.
