 Gaussian 16, Revision A.03,
 Gaussian 16:  ES64L-G16RevA.03 25-Dec-2016

 --------------------
 #p ZINDO=(nstates=5)
 --------------------

 -----------------------------
 step_451_chromophore_16 ZINDO
 -----------------------------
 Symbolic Z-matrix:
 Charge =  0 Multiplicity = 1

                         Standard orientation:
 ---------------------------------------------------------------------
 Center     Atomic      Atomic             Coordinates (Angstroms)
 Number     Number       Type             X           Y           Z
 ---------------------------------------------------------------------
      1         12           0        6.086477    0.571513    0.307910
      2          6           0        3.754056   -2.191552    0.044863
      3          6           0        3.452203    2.664324   -0.160060
      4          6           0        8.303055    2.965880   -0.079907
      5          6           0        8.657353   -1.898341    0.222863
      6          7           0        3.783491    0.211187   -0.035970
      7          6           0        3.092710   -0.949533   -0.003047
      8          6           0        1.603619   -0.640439   -0.344250
      9          6           0        1.554859    0.946669   -0.266724
     10          6           0        3.027619    1.354020   -0.158685
     11          6           0        0.708716    1.458344   -1.401118
     12          6           0        0.642473   -1.322665    0.716211
     13          6           0       -0.783618   -0.719070    0.958807
     14          6           0       -1.972251   -1.628601    1.272103
     15          8           0       -2.365410   -1.858352    2.427077
     16          8           0       -2.411692   -2.332496    0.154852
     17          7           0        5.912493    2.609416    0.099524
     18          6           0        4.730024    3.221814   -0.131989
     19          6           0        5.038561    4.630820   -0.389288
     20          6           0        6.488861    4.823329   -0.391555
     21          6           0        6.974057    3.417780   -0.138474
     22          6           0        3.923652    5.585109   -0.653861
     23          6           0        7.335181    6.079318   -0.702371
     24          8           0        8.553107    6.133057   -0.598437
     25          6           0        6.579673    7.318124   -1.138670
     26          7           0        8.123712    0.485785    0.042514
     27          6           0        8.837686    1.651566    0.081254
     28          6           0       10.332785    1.415905    0.166493
     29          6           0       10.386625    0.008514    0.749086
     30          6           0        8.952594   -0.488393    0.296738
     31          6           0       11.112126    1.635988   -1.191693
     32          6           0       10.591829   -0.209464    2.296160
     33          6           0        9.862751    0.666354    3.308223
     34          7           0        6.258492   -1.552567    0.152616
     35          6           0        7.308968   -2.402945    0.166994
     36          6           0        6.926031   -3.746812    0.055813
     37          6           0        5.559615   -3.707589    0.024168
     38          6           0        5.169962   -2.418784    0.058475
     39          6           0        7.861150   -4.934325   -0.145604
     40          6           0        4.342663   -4.541449   -0.073131
     41          8           0        4.236736   -5.749227   -0.099545
     42          6           0        3.149650   -3.588906   -0.066386
     43          6           0        2.298225   -3.852584   -1.300239
     44          8           0        2.633752   -3.498920   -2.393877
     45          8           0        1.098345   -4.388700   -1.003702
     46          6           0        0.267535   -4.661462   -2.097693
     47          6           0       -3.417165   -3.287305    0.264640
     48          6           0       -4.593497   -2.688105   -0.399744
     49          6           0       -5.844614   -3.073883   -0.022614
     50          6           0       -6.158570   -4.138346    1.030528
     51          6           0       -7.051809   -2.248674   -0.542110
     52          6           0       -7.578699   -1.165351    0.433582
     53          6           0       -7.931430    0.065756   -0.410288
     54          6           0       -9.041725    0.921977    0.149076
     55          6           0       -9.021311    1.020339    1.688222
     56          6           0      -10.436601    0.550261   -0.415474
     57          6           0      -10.619116    1.018065   -1.853642
     58          6           0      -11.993824    1.858323   -2.028286
     59          6           0      -13.205732    0.900214   -2.143965
     60          6           0      -13.685519    0.788327   -3.562887
     61          6           0      -14.421068    1.322237   -1.208174
     62          6           0      -14.253764    0.809474    0.219728
     63          6           0      -14.776953    1.780997    1.316404
     64          6           0      -13.570757    2.136593    2.227001
     65          6           0      -13.520567    3.643728    2.557824
     66          6           0      -13.416329    1.191164    3.398609
     67          1           0        2.637770    3.373663   -0.318052
     68          1           0        9.008557    3.783332   -0.240639
     69          1           0        9.512358   -2.576486    0.276381
     70          1           0        1.269679   -0.869896   -1.356076
     71          1           0        0.997353    1.303252    0.599454
     72          1           0       -0.152873    0.865492   -1.706622
     73          1           0        1.471259    1.581782   -2.170337
     74          1           0        0.375098    2.447339   -1.086318
     75          1           0        1.085163   -1.360801    1.712395
     76          1           0        0.602450   -2.382717    0.465187
     77          1           0       -1.106333   -0.130631    0.099815
     78          1           0       -0.700897    0.016527    1.759252
     79          1           0        3.504825    5.302986   -1.620010
     80          1           0        4.198477    6.639457   -0.631741
     81          1           0        3.034595    5.597637   -0.021839
     82          1           0        5.892262    7.061473   -1.945263
     83          1           0        7.233438    8.070382   -1.579748
     84          1           0        6.045952    7.735154   -0.283733
     85          1           0       10.736286    2.153929    0.858791
     86          1           0       11.105193   -0.691692    0.322783
     87          1           0       11.406969    0.738813   -1.733870
     88          1           0       11.942266    2.341498   -1.220154
     89          1           0       10.449495    2.028143   -1.962942
     90          1           0       11.632484    0.026251    2.517762
     91          1           0       10.455060   -1.235169    2.637985
     92          1           0        9.162485    0.001708    3.812458
     93          1           0        9.278949    1.421625    2.781747
     94          1           0       10.566802    1.066510    4.037979
     95          1           0        8.808832   -4.783381   -0.663674
     96          1           0        7.184261   -5.540012   -0.749294
     97          1           0        8.063911   -5.407416    0.814757
     98          1           0        2.681180   -3.863434    0.878830
     99          1           0        0.820716   -5.000612   -2.973220
    100          1           0       -0.381282   -3.841141   -2.407211
    101          1           0       -0.299972   -5.512854   -1.721892
    102          1           0       -3.575274   -3.552138    1.310814
    103          1           0       -3.105606   -4.204001   -0.236203
    104          1           0       -4.465967   -1.783865   -0.995468
    105          1           0       -6.087043   -3.623115    1.988626
    106          1           0       -5.445024   -4.961441    1.009368
    107          1           0       -7.205721   -4.441897    1.043246
    108          1           0       -7.860475   -2.913098   -0.843933
    109          1           0       -6.567563   -1.735242   -1.373234
    110          1           0       -6.781544   -0.850913    1.107292
    111          1           0       -8.471644   -1.597599    0.885260
    112          1           0       -8.082235   -0.151897   -1.467816
    113          1           0       -7.034308    0.675593   -0.310123
    114          1           0       -8.884020    1.936146   -0.219027
    115          1           0       -9.787373    0.323240    2.025775
    116          1           0       -9.242770    1.994486    2.124548
    117          1           0       -8.014648    0.796756    2.040769
    118          1           0      -11.203939    0.977357    0.229245
    119          1           0      -10.575743   -0.527532   -0.507605
    120          1           0      -10.627728    0.247326   -2.623721
    121          1           0       -9.832023    1.739156   -2.073285
    122          1           0      -11.908685    2.588380   -2.834335
    123          1           0      -12.056066    2.335089   -1.050511
    124          1           0      -12.989379   -0.121638   -1.830806
    125          1           0      -13.819960   -0.269073   -3.789569
    126          1           0      -13.090567    1.372638   -4.264700
    127          1           0      -14.665547    1.261207   -3.634232
    128          1           0      -15.378650    0.889061   -1.497767
    129          1           0      -14.478265    2.402806   -1.074591
    130          1           0      -13.225200    0.485104    0.371629
    131          1           0      -14.794990   -0.134820    0.279835
    132          1           0      -15.472054    1.233526    1.952469
    133          1           0      -15.426185    2.582285    0.963348
    134          1           0      -12.579447    2.037510    1.783664
    135          1           0      -12.725653    4.184620    2.043670
    136          1           0      -13.388925    3.671588    3.639339
    137          1           0      -14.488959    4.127460    2.436720
    138          1           0      -13.004590    1.681686    4.280749
    139          1           0      -12.555489    0.573195    3.142747
    140          1           0      -14.358936    0.733138    3.696611
 ---------------------------------------------------------------------

 SCF Done:  E(RZINDO/S) =  -474.571966431     A.U. after   20 cycles

 Excitation energies and oscillator strengths:

 Excited State   1:      Singlet-A      1.2742 eV  973.07 nm  f=0.5766  <S**2>=0.000
     175 ->178        -0.20868
     176 ->177         0.65726
 This state for optimization and/or second-order correction.
 Total Energy, E(CIS/TDA) =  -474.525142182
 Copying the excited state density for this state as the 1-particle RhoCI density.

 Excited State   2:      Singlet-A      1.8847 eV  657.84 nm  f=0.0391  <S**2>=0.000
     175 ->177         0.54385
     176 ->178         0.42855

 Excited State   3:      Singlet-A      2.9923 eV  414.34 nm  f=0.8761  <S**2>=0.000
     175 ->177        -0.34334
     176 ->178         0.46866
     176 ->179         0.28865

 Excited State   4:      Singlet-A      3.0322 eV  408.89 nm  f=0.0123  <S**2>=0.000
     169 ->177         0.15523
     169 ->179        -0.17339
     169 ->181        -0.16188
     169 ->185        -0.11136
     170 ->177         0.27184
     170 ->179        -0.26741
     170 ->181        -0.29393
     170 ->183         0.11947
     170 ->185        -0.17478
     176 ->179         0.18248

 Excited State   5:      Singlet-A      3.1005 eV  399.89 nm  f=0.4434  <S**2>=0.000
     168 ->179         0.13948
     172 ->177        -0.10797
     175 ->177         0.20764
     176 ->178        -0.24656
     176 ->179         0.52287

 The electronic state is 1-A.
 Alpha  occ. eigenvalues --   -1.86170  -1.82660  -1.79809  -1.76231  -1.74437
 Alpha  occ. eigenvalues --   -1.71625  -1.67487  -1.62057  -1.61434  -1.57934
 Alpha  occ. eigenvalues --   -1.55311  -1.52092  -1.49812  -1.48342  -1.46169
 Alpha  occ. eigenvalues --   -1.45097  -1.44276  -1.40591  -1.39297  -1.38921
 Alpha  occ. eigenvalues --   -1.36120  -1.33731  -1.33565  -1.31761  -1.29423
 Alpha  occ. eigenvalues --   -1.28488  -1.24974  -1.22441  -1.20036  -1.17848
 Alpha  occ. eigenvalues --   -1.16941  -1.15727  -1.14716  -1.14254  -1.13862
 Alpha  occ. eigenvalues --   -1.12072  -1.11715  -1.10720  -1.05820  -1.04060
 Alpha  occ. eigenvalues --   -1.03438  -1.00961  -0.98714  -0.98399  -0.96112
 Alpha  occ. eigenvalues --   -0.95831  -0.94688  -0.93232  -0.92845  -0.92343
 Alpha  occ. eigenvalues --   -0.90136  -0.89687  -0.88072  -0.87530  -0.85952
 Alpha  occ. eigenvalues --   -0.85072  -0.84381  -0.83807  -0.82117  -0.80711
 Alpha  occ. eigenvalues --   -0.80528  -0.80367  -0.79311  -0.77789  -0.76670
 Alpha  occ. eigenvalues --   -0.76104  -0.75736  -0.74961  -0.74695  -0.73793
 Alpha  occ. eigenvalues --   -0.73166  -0.72918  -0.72227  -0.71377  -0.71011
 Alpha  occ. eigenvalues --   -0.70219  -0.69923  -0.69313  -0.68602  -0.67948
 Alpha  occ. eigenvalues --   -0.67623  -0.67180  -0.66461  -0.66250  -0.65848
 Alpha  occ. eigenvalues --   -0.64953  -0.64560  -0.64296  -0.64048  -0.63144
 Alpha  occ. eigenvalues --   -0.63010  -0.62782  -0.62377  -0.62197  -0.62076
 Alpha  occ. eigenvalues --   -0.61683  -0.61350  -0.61127  -0.60768  -0.60326
 Alpha  occ. eigenvalues --   -0.60115  -0.59788  -0.59342  -0.59051  -0.58364
 Alpha  occ. eigenvalues --   -0.57793  -0.57640  -0.57402  -0.57264  -0.56165
 Alpha  occ. eigenvalues --   -0.55512  -0.55309  -0.55050  -0.54679  -0.54620
 Alpha  occ. eigenvalues --   -0.54097  -0.53291  -0.53208  -0.52824  -0.52644
 Alpha  occ. eigenvalues --   -0.52533  -0.52200  -0.51982  -0.51534  -0.51223
 Alpha  occ. eigenvalues --   -0.50990  -0.50882  -0.50281  -0.50041  -0.49915
 Alpha  occ. eigenvalues --   -0.49504  -0.49341  -0.49304  -0.48924  -0.48770
 Alpha  occ. eigenvalues --   -0.48404  -0.48231  -0.48113  -0.47847  -0.47688
 Alpha  occ. eigenvalues --   -0.47556  -0.47402  -0.47322  -0.46883  -0.46730
 Alpha  occ. eigenvalues --   -0.46422  -0.46218  -0.45811  -0.45605  -0.45494
 Alpha  occ. eigenvalues --   -0.45278  -0.45116  -0.44562  -0.44082  -0.43628
 Alpha  occ. eigenvalues --   -0.43019  -0.42999  -0.42834  -0.42229  -0.41902
 Alpha  occ. eigenvalues --   -0.41456  -0.40875  -0.40359  -0.39165  -0.39062
 Alpha  occ. eigenvalues --   -0.38510  -0.37152  -0.35881  -0.35159  -0.34969
 Alpha  occ. eigenvalues --   -0.33196  -0.32799  -0.32409  -0.31651  -0.26409
 Alpha  occ. eigenvalues --   -0.21926
 Alpha virt. eigenvalues --   -0.08444  -0.02425  -0.00504   0.00901   0.01510
 Alpha virt. eigenvalues --    0.01738   0.02866   0.03043   0.04476   0.04479
 Alpha virt. eigenvalues --    0.05848   0.06570   0.07082   0.07975   0.08213

 Mulliken charges:
               1
     1  Mg   0.434272
     2  C   -0.044230
     3  C   -0.066961
     4  C   -0.068129
     5  C   -0.092864
     6  N   -0.288694
     7  C    0.121132
     8  C    0.001175
     9  C   -0.004243
    10  C    0.122913
    11  C   -0.054487
    12  C   -0.024340
    13  C    0.006486
    14  C    0.464795
    15  O   -0.516286
    16  O   -0.271599
    17  N   -0.304997
    18  C    0.106783
    19  C    0.011189
    20  C   -0.071197
    21  C    0.131671
    22  C   -0.045614
    23  C    0.338137
    24  O   -0.515015
    25  C   -0.027967
    26  N   -0.239903
    27  C    0.129898
    28  C    0.024714
    29  C    0.006082
    30  C    0.133041
    31  C   -0.057560
    32  C   -0.031044
    33  C   -0.056269
    34  N   -0.348696
    35  C    0.116035
    36  C    0.030616
    37  C   -0.031216
    38  C    0.108904
    39  C   -0.046715
    40  C    0.336178
    41  O   -0.517680
    42  C    0.054162
    43  C    0.495395
    44  O   -0.517205
    45  O   -0.254634
    46  C    0.081321
    47  C    0.114699
    48  C   -0.097829
    49  C   -0.017939
    50  C   -0.044013
    51  C   -0.034943
    52  C   -0.028337
    53  C   -0.028900
    54  C   -0.010105
    55  C   -0.060936
    56  C   -0.031761
    57  C   -0.045814
    58  C   -0.043520
    59  C   -0.009924
    60  C   -0.059364
    61  C   -0.043387
    62  C   -0.044534
    63  C   -0.032003
    64  C   -0.012816
    65  C   -0.065237
    66  C   -0.058216
    67  H    0.022899
    68  H    0.043401
    69  H    0.033153
    70  H    0.050068
    71  H    0.024749
    72  H    0.031759
    73  H    0.023975
    74  H    0.009595
    75  H    0.024529
    76  H    0.024240
    77  H    0.030115
    78  H    0.034481
    79  H    0.030312
    80  H    0.019815
    81  H    0.026566
    82  H    0.029927
    83  H    0.033611
    84  H    0.043633
    85  H    0.028273
    86  H    0.025618
    87  H    0.021737
    88  H    0.030924
    89  H    0.016684
    90  H    0.008598
    91  H    0.024892
    92  H    0.016194
    93  H    0.026606
    94  H    0.026238
    95  H    0.031308
    96  H    0.035122
    97  H    0.033779
    98  H    0.055317
    99  H    0.046512
   100  H    0.041108
   101  H    0.026439
   102  H    0.053753
   103  H    0.035434
   104  H    0.042342
   105  H    0.030367
   106  H    0.031153
   107  H    0.023185
   108  H    0.026629
   109  H    0.019717
   110  H    0.034938
   111  H    0.026458
   112  H    0.023347
   113  H    0.008748
   114  H    0.009681
   115  H    0.020742
   116  H    0.017135
   117  H    0.020045
   118  H    0.026253
   119  H    0.016874
   120  H    0.023322
   121  H    0.012241
   122  H    0.028923
   123  H    0.016515
   124  H    0.021957
   125  H    0.020677
   126  H    0.021322
   127  H    0.010451
   128  H    0.022521
   129  H    0.022369
   130  H    0.022031
   131  H    0.005990
   132  H    0.009768
   133  H    0.030123
   134  H    0.017199
   135  H    0.025561
   136  H    0.012142
   137  H    0.015486
   138  H    0.009882
   139  H    0.020804
   140  H    0.029261
 Sum of Mulliken charges =  -0.00000

 Dipole moment (field-independent basis, Debye):
    X=             -3.0430    Y=              4.0246    Z=              0.4889  Tot=              5.0691
 N-N= 4.277243628375D+03 E-N= 0.000000000000D+00  KE=-9.228937103226D+03
 Leave Link  601 at Wed May  4 22:59:11 2022, MaxMem=  6710886400 cpu:               0.7 elap:               0.0
 (Enter /sw/apps/gaussian-16.0/g16/l9999.exe)
 1\1\GINC-BP1-COMPUTE168\SP\RZINDO CIS\STO-3G\C55H74Mg1N4O6\OF15641\04-
 May-2022\0\\#p ZINDO=(nstates=5)\\step_451_chromophore_16 ZINDO\\0,1\M
 g,0,40.405,41.3,26.79\C,0,39.532,43.623,29.433\C,0,41.017,38.991,29.20
 5\C,0,41.776,39.473,24.428\C,0,40.204,44.097,24.587\N,0,40.275,41.355,
 29.142\C,0,39.817,42.342,29.943\C,0,39.995,41.89,31.424\C,0,40.351,40.
 348,31.273\C,0,40.589,40.172,29.77\C,0,41.437,40.006,32.257\C,0,38.652
 ,42.119,32.235\C,0,38.367,41.25,33.508\C,0,37.635,41.846,34.711\O,0,36

 Normal termination of Gaussian 16 at Wed May  4 22:59:11 2022.
