 Gaussian 16, Revision A.03,
 Gaussian 16:  ES64L-G16RevA.03 25-Dec-2016

 ------------------------------
 #p blyp/Def2SVP td=(nstates=5)
 ------------------------------

 --------------------------------------------------
 step_1551_chromophore_6 TDDFT with blyp functional
 --------------------------------------------------
 Symbolic Z-matrix:
 Charge =  0 Multiplicity = 1

                         Standard orientation:
 ---------------------------------------------------------------------
 Center     Atomic      Atomic             Coordinates (Angstroms)
 Number     Number       Type             X           Y           Z
 ---------------------------------------------------------------------
      1         12           0        5.125156    1.015613    0.019391
      2          6           0        4.397508   -2.415974    0.177324
      3          6           0        1.723435    1.619214   -0.102207
      4          6           0        5.909810    4.186646   -0.145744
      5          6           0        8.491915    0.170942   -0.360952
      6          7           0        3.314505   -0.249937    0.108253
      7          6           0        3.265517   -1.569113    0.270834
      8          6           0        1.851835   -2.104407    0.281718
      9          6           0        0.997923   -0.889591   -0.180022
     10          6           0        2.061488    0.250837   -0.057611
     11          6           0        0.231380   -0.874653   -1.605808
     12          6           0        1.488182   -2.707393    1.649908
     13          6           0        0.916019   -4.137006    1.703421
     14          6           0       -0.265707   -4.267246    0.676398
     15          8           0       -0.167321   -4.777207   -0.440492
     16          8           0       -1.446341   -3.866812    1.287130
     17          7           0        4.037001    2.677200   -0.026530
     18          6           0        2.628122    2.727695   -0.117414
     19          6           0        2.235648    4.170836   -0.027661
     20          6           0        3.432840    4.985529    0.024502
     21          6           0        4.537725    3.982355   -0.066935
     22          6           0        0.769957    4.648343   -0.244106
     23          6           0        3.621612    6.448570    0.144723
     24          8           0        4.705813    6.957598    0.338530
     25          6           0        2.470776    7.368722    0.118872
     26          7           0        6.987014    2.001846   -0.268350
     27          6           0        7.011647    3.373930   -0.230150
     28          6           0        8.388875    3.933502   -0.557597
     29          6           0        9.319668    2.683863   -0.475737
     30          6           0        8.233445    1.550145   -0.480557
     31          6           0        8.379598    4.632268   -1.958152
     32          6           0       10.310316    2.626305    0.643493
     33          6           0        9.900027    2.025677    2.049054
     34          7           0        6.286771   -0.706612   -0.091687
     35          6           0        7.633141   -0.901448   -0.171971
     36          6           0        7.916467   -2.292668   -0.190669
     37          6           0        6.634770   -2.996629   -0.023170
     38          6           0        5.728837   -1.988198    0.066147
     39          6           0        9.209127   -2.948096   -0.661624
     40          6           0        5.970377   -4.278272    0.049956
     41          8           0        6.403173   -5.424490    0.087128
     42          6           0        4.424163   -3.996777    0.202621
     43          6           0        3.708025   -4.599234   -0.919204
     44          8           0        3.575697   -4.077179   -2.013743
     45          8           0        3.314763   -5.840954   -0.590985
     46          6           0        2.848729   -6.607701   -1.787250
     47          6           0       -2.642326   -4.169157    0.515405
     48          6           0       -3.404941   -2.877543    0.012338
     49          6           0       -4.697324   -2.493182    0.252180
     50          6           0       -5.709137   -3.424522    0.871398
     51          6           0       -5.103976   -1.081943   -0.109618
     52          6           0       -5.179273   -0.079919    1.055049
     53          6           0       -6.581181    0.268138    1.623726
     54          6           0       -7.160067    1.661238    1.144607
     55          6           0       -6.753899    2.731995    2.245487
     56          6           0       -8.749094    1.704639    0.816814
     57          6           0       -9.264302    0.846733   -0.341035
     58          6           0      -10.167067   -0.364264   -0.051541
     59          6           0      -11.460011    0.107935    0.591707
     60          6           0      -11.445756   -0.253783    2.079668
     61          6           0      -12.846335   -0.453977    0.014853
     62          6           0      -13.252016    0.389305   -1.246828
     63          6           0      -14.856905    0.448346   -1.428133
     64          6           0      -15.359906    1.843366   -1.731009
     65          6           0      -16.817565    1.955854   -2.183753
     66          6           0      -15.106305    2.772915   -0.489433
     67          1           0        0.666793    1.888513   -0.158446
     68          1           0        6.281580    5.212512   -0.098871
     69          1           0        9.553844   -0.076702   -0.419922
     70          1           0        1.844948   -2.792218   -0.563091
     71          1           0        0.158794   -0.651505    0.472452
     72          1           0        0.389485    0.088620   -2.090595
     73          1           0       -0.844792   -0.971307   -1.461783
     74          1           0        0.520933   -1.723873   -2.223915
     75          1           0        0.783733   -2.042305    2.149431
     76          1           0        2.417519   -2.725342    2.218856
     77          1           0        0.563159   -4.282611    2.723934
     78          1           0        1.677691   -4.904713    1.561999
     79          1           0        0.497739    5.405024    0.491568
     80          1           0        0.044722    3.851634   -0.081947
     81          1           0        0.522224    5.091017   -1.208109
     82          1           0        1.820349    7.155248   -0.729149
     83          1           0        2.776162    8.395913    0.319958
     84          1           0        1.874236    7.181832    1.011726
     85          1           0        8.712741    4.662215    0.185689
     86          1           0        9.898366    2.545584   -1.389820
     87          1           0        8.583831    5.695795   -1.834264
     88          1           0        7.491611    4.273820   -2.478910
     89          1           0        9.202154    4.251473   -2.562739
     90          1           0       10.695724    3.631138    0.815293
     91          1           0       11.120082    1.920758    0.460202
     92          1           0        8.832139    1.851203    2.186037
     93          1           0       10.253417    2.680933    2.845430
     94          1           0       10.274965    1.037852    2.317215
     95          1           0        9.777973   -3.198841    0.233574
     96          1           0        9.709764   -2.308655   -1.388400
     97          1           0        9.032999   -3.847691   -1.252285
     98          1           0        3.946107   -4.338499    1.120670
     99          1           0        3.653232   -6.953393   -2.437747
    100          1           0        2.178389   -6.026581   -2.420485
    101          1           0        2.359115   -7.528748   -1.470630
    102          1           0       -3.363408   -4.660633    1.168103
    103          1           0       -2.607448   -4.797559   -0.375439
    104          1           0       -2.690466   -2.118532   -0.309219
    105          1           0       -6.600526   -3.488900    0.246359
    106          1           0       -6.181360   -3.013006    1.764187
    107          1           0       -5.276126   -4.347714    1.257775
    108          1           0       -6.093566   -1.091927   -0.567867
    109          1           0       -4.329990   -0.680232   -0.763498
    110          1           0       -4.595448    0.825904    0.894793
    111          1           0       -4.697089   -0.502055    1.936832
    112          1           0       -6.584131    0.206033    2.712239
    113          1           0       -7.301263   -0.514810    1.383297
    114          1           0       -6.572034    1.849739    0.246093
    115          1           0       -7.576901    3.424956    2.423357
    116          1           0       -5.860402    3.304386    1.995021
    117          1           0       -6.458991    2.293421    3.198234
    118          1           0       -9.146269    2.713238    0.706716
    119          1           0       -9.155083    1.400560    1.781961
    120          1           0       -8.462067    0.537261   -1.010321
    121          1           0       -9.851473    1.509427   -0.976403
    122          1           0       -9.586153   -1.123962    0.471626
    123          1           0      -10.596433   -0.847395   -0.929425
    124          1           0      -11.437005    1.197166    0.547947
    125          1           0      -10.661288   -0.976726    2.303650
    126          1           0      -12.388600   -0.482440    2.576534
    127          1           0      -11.102590    0.660250    2.565432
    128          1           0      -13.565276   -0.538583    0.829803
    129          1           0      -12.652202   -1.463220   -0.349035
    130          1           0      -12.842922   -0.183583   -2.079719
    131          1           0      -12.825558    1.392836   -1.243809
    132          1           0      -15.297977    0.099658   -0.493274
    133          1           0      -15.333627   -0.136359   -2.214287
    134          1           0      -14.842987    2.148605   -2.641528
    135          1           0      -16.736256    1.964547   -3.271322
    136          1           0      -17.308010    2.870541   -1.852312
    137          1           0      -17.425788    1.108122   -1.867112
    138          1           0      -16.059321    2.947211    0.011460
    139          1           0      -14.690065    3.744634   -0.753962
    140          1           0      -14.435666    2.249687    0.191283
 ---------------------------------------------------------------------

 SCF Done:  E(RB-LYP) =  -3007.38326439     A.U. after   21 cycles

 Excitation energies and oscillator strengths:

 Excited State   1:      Singlet-A      1.8410 eV  673.47 nm  f=0.2845  <S**2>=0.000
     245 -> 248        0.20524
     246 -> 247        0.67531
     246 <- 247       -0.13998
 This state for optimization and/or second-order correction.
 Total Energy, E(TD-HF/TD-DFT) =  -3007.31560967
 Copying the excited state density for this state as the 1-particle RhoCI density.

 Excited State   2:      Singlet-A      1.9318 eV  641.81 nm  f=0.0142  <S**2>=0.000
     244 -> 247        0.66181
     245 -> 247        0.21848

 Excited State   3:      Singlet-A      1.9824 eV  625.41 nm  f=0.0555  <S**2>=0.000
     243 -> 247       -0.28328
     244 -> 247       -0.22590
     245 -> 247        0.56637
     246 -> 248       -0.17853

 Excited State   4:      Singlet-A      2.0659 eV  600.16 nm  f=0.0188  <S**2>=0.000
     243 -> 247        0.64301
     245 -> 247        0.24891
     246 -> 248       -0.10633

 Excited State   5:      Singlet-A      2.4692 eV  502.12 nm  f=0.0074  <S**2>=0.000
     241 -> 247       -0.22670
     242 -> 247        0.64569

 The electronic state is 1-A.
 Alpha  occ. eigenvalues --  -46.25932 -18.83770 -18.82295 -18.78056 -18.75806
 Alpha  occ. eigenvalues --  -18.75724 -18.75052 -14.03269 -14.02648 -14.01448
 Alpha  occ. eigenvalues --  -14.00178 -10.05195 -10.03044 -10.00018  -9.99307
 Alpha  occ. eigenvalues --   -9.98432  -9.96834  -9.96588  -9.96474  -9.96204
 Alpha  occ. eigenvalues --   -9.96119  -9.96105  -9.95653  -9.95031  -9.94827
 Alpha  occ. eigenvalues --   -9.94160  -9.94094  -9.94038  -9.93860  -9.93815
 Alpha  occ. eigenvalues --   -9.93736  -9.93731  -9.93711  -9.93572  -9.93474
 Alpha  occ. eigenvalues --   -9.93377  -9.93346  -9.93295  -9.93221  -9.93197
 Alpha  occ. eigenvalues --   -9.92935  -9.92839  -9.92688  -9.92492  -9.92381
 Alpha  occ. eigenvalues --   -9.92194  -9.92191  -9.92127  -9.92081  -9.92009
 Alpha  occ. eigenvalues --   -9.91997  -9.91833  -9.91740  -9.91716  -9.91673
 Alpha  occ. eigenvalues --   -9.91584  -9.91569  -9.91386  -9.91385  -9.91374
 Alpha  occ. eigenvalues --   -9.91303  -9.91263  -9.91166  -9.90728  -9.90678
 Alpha  occ. eigenvalues --   -9.90323  -2.90750  -1.71182  -1.70639  -1.70456
 Alpha  occ. eigenvalues --   -0.98272  -0.97977  -0.91986  -0.91121  -0.90648
 Alpha  occ. eigenvalues --   -0.89335  -0.86851  -0.86128  -0.84822  -0.83452
 Alpha  occ. eigenvalues --   -0.75301  -0.73791  -0.73270  -0.72862  -0.72154
 Alpha  occ. eigenvalues --   -0.71809  -0.71676  -0.70813  -0.70459  -0.69699
 Alpha  occ. eigenvalues --   -0.68901  -0.68731  -0.67922  -0.67577  -0.66972
 Alpha  occ. eigenvalues --   -0.66222  -0.65684  -0.65192  -0.64819  -0.64382
 Alpha  occ. eigenvalues --   -0.64173  -0.62458  -0.62167  -0.61415  -0.61307
 Alpha  occ. eigenvalues --   -0.60646  -0.60044  -0.59946  -0.59723  -0.59060
 Alpha  occ. eigenvalues --   -0.58342  -0.57332  -0.56590  -0.55772  -0.55231
 Alpha  occ. eigenvalues --   -0.54196  -0.53971  -0.52982  -0.52840  -0.52031
 Alpha  occ. eigenvalues --   -0.51422  -0.50894  -0.50736  -0.50247  -0.50124
 Alpha  occ. eigenvalues --   -0.49978  -0.49231  -0.48371  -0.47958  -0.46740
 Alpha  occ. eigenvalues --   -0.46404  -0.45906  -0.45579  -0.44735  -0.44388
 Alpha  occ. eigenvalues --   -0.44030  -0.43588  -0.42792  -0.42590  -0.42412
 Alpha  occ. eigenvalues --   -0.42072  -0.41657  -0.41461  -0.41371  -0.41066
 Alpha  occ. eigenvalues --   -0.40783  -0.40498  -0.40427  -0.40065  -0.39994
 Alpha  occ. eigenvalues --   -0.39762  -0.39607  -0.39569  -0.39342  -0.39254
 Alpha  occ. eigenvalues --   -0.39096  -0.38784  -0.38303  -0.38253  -0.38226
 Alpha  occ. eigenvalues --   -0.38043  -0.37458  -0.37421  -0.37257  -0.37130
 Alpha  occ. eigenvalues --   -0.36968  -0.36792  -0.36476  -0.36422  -0.36252
 Alpha  occ. eigenvalues --   -0.36119  -0.36059  -0.35866  -0.35520  -0.35376
 Alpha  occ. eigenvalues --   -0.35191  -0.35059  -0.35020  -0.34812  -0.34704
 Alpha  occ. eigenvalues --   -0.34448  -0.34369  -0.34173  -0.33869  -0.33755
 Alpha  occ. eigenvalues --   -0.33656  -0.33501  -0.33366  -0.33010  -0.32974
 Alpha  occ. eigenvalues --   -0.32930  -0.32883  -0.32685  -0.32437  -0.32239
 Alpha  occ. eigenvalues --   -0.32184  -0.32135  -0.32081  -0.31616  -0.31353
 Alpha  occ. eigenvalues --   -0.31221  -0.30942  -0.30861  -0.30798  -0.30695
 Alpha  occ. eigenvalues --   -0.30585  -0.30373  -0.30281  -0.30040  -0.29955
 Alpha  occ. eigenvalues --   -0.29829  -0.29740  -0.29625  -0.29591  -0.29303
 Alpha  occ. eigenvalues --   -0.29091  -0.28432  -0.28325  -0.28292  -0.27829
 Alpha  occ. eigenvalues --   -0.27538  -0.26889  -0.26748  -0.26646  -0.26502
 Alpha  occ. eigenvalues --   -0.26343  -0.26240  -0.26132  -0.25994  -0.25763
 Alpha  occ. eigenvalues --   -0.25487  -0.25258  -0.24963  -0.24032  -0.23902
 Alpha  occ. eigenvalues --   -0.23582  -0.22711  -0.21962  -0.21273  -0.20764
 Alpha  occ. eigenvalues --   -0.20509  -0.19767  -0.18845  -0.18451  -0.17017
 Alpha  occ. eigenvalues --   -0.15862
 Alpha virt. eigenvalues --   -0.11420  -0.06964  -0.06327  -0.04740  -0.04092
 Alpha virt. eigenvalues --   -0.02751  -0.01976  -0.01359  -0.00650   0.00220
 Alpha virt. eigenvalues --    0.01296   0.01467   0.01932   0.02289   0.02588

 Mulliken charges:
               1
     1  Mg   0.702407
     2  C   -0.034876
     3  C   -0.049862
     4  C   -0.019580
     5  C   -0.093608
     6  N   -0.173454
     7  C   -0.086221
     8  C    0.015369
     9  C   -0.019309
    10  C    0.016564
    11  C    0.103410
    12  C    0.109853
    13  C    0.150406
    14  C    0.095217
    15  O   -0.190108
    16  O   -0.265301
    17  N   -0.370283
    18  C    0.152428
    19  C   -0.135216
    20  C    0.081480
    21  C    0.141963
    22  C    0.132772
    23  C   -0.111380
    24  O   -0.154376
    25  C    0.151606
    26  N   -0.208674
    27  C   -0.018347
    28  C   -0.005297
    29  C    0.105504
    30  C   -0.029558
    31  C    0.144785
    32  C    0.086991
    33  C    0.032124
    34  N   -0.285031
    35  C    0.177677
    36  C   -0.192831
    37  C    0.104552
    38  C    0.106081
    39  C    0.163361
    40  C   -0.055234
    41  O   -0.128511
    42  C    0.087105
    43  C    0.100404
    44  O   -0.196341
    45  O   -0.248018
    46  C    0.223256
    47  C    0.313384
    48  C   -0.123345
    49  C   -0.131804
    50  C    0.155769
    51  C    0.178979
    52  C    0.068987
    53  C    0.069381
    54  C   -0.052722
    55  C    0.094457
    56  C    0.076316
    57  C    0.074574
    58  C    0.141173
    59  C   -0.126139
    60  C    0.117140
    61  C    0.091839
    62  C    0.067034
    63  C    0.103940
    64  C   -0.125300
    65  C    0.112072
    66  C    0.103544
    67  H   -0.063365
    68  H   -0.050612
    69  H   -0.072770
    70  H    0.015688
    71  H   -0.032395
    72  H   -0.006475
    73  H   -0.010678
    74  H    0.016831
    75  H   -0.013572
    76  H   -0.013040
    77  H   -0.011324
    78  H    0.007379
    79  H   -0.013633
    80  H   -0.021014
    81  H    0.018127
    82  H    0.005237
    83  H   -0.013239
    84  H   -0.002494
    85  H   -0.023436
    86  H   -0.034692
    87  H    0.008897
    88  H    0.004254
    89  H   -0.025607
    90  H   -0.014732
    91  H   -0.012918
    92  H   -0.001944
    93  H   -0.012766
    94  H   -0.012995
    95  H    0.007771
    96  H   -0.005716
    97  H    0.003615
    98  H   -0.007291
    99  H    0.011553
   100  H    0.028426
   101  H    0.007017
   102  H   -0.025727
   103  H    0.017205
   104  H   -0.044764
   105  H   -0.004228
   106  H   -0.016908
   107  H   -0.014679
   108  H   -0.023178
   109  H   -0.032325
   110  H   -0.030869
   111  H   -0.035221
   112  H   -0.035407
   113  H   -0.047344
   114  H   -0.033175
   115  H   -0.015967
   116  H   -0.018367
   117  H   -0.020536
   118  H   -0.025866
   119  H   -0.027816
   120  H   -0.035281
   121  H   -0.036256
   122  H   -0.025942
   123  H   -0.051579
   124  H   -0.026815
   125  H   -0.024956
   126  H   -0.022904
   127  H   -0.026429
   128  H   -0.019305
   129  H   -0.031144
   130  H   -0.023012
   131  H   -0.006322
   132  H   -0.038084
   133  H   -0.040030
   134  H   -0.034862
   135  H   -0.020343
   136  H   -0.016032
   137  H   -0.019460
   138  H   -0.019149
   139  H   -0.013702
   140  H   -0.014480
 Sum of Mulliken charges =  -0.00000

 Dipole moment (field-independent basis, Debye):
    X=             -4.0766    Y=              1.9233    Z=              1.2208  Tot=              4.6699
 Quadrupole moment (field-independent basis, Debye-Ang):
   XX=           -383.6199   YY=           -429.3657   ZZ=           -406.2172
   XY=             17.3851   XZ=             -1.8535   YZ=             -7.6646

 Normal termination of Gaussian 16 at Wed May  4 10:29:50 2022.
