 Gaussian 16, Revision A.03,
 Gaussian 16:  ES64L-G16RevA.03 25-Dec-2016

 -----------------------------------
 #p cam-b3lyp/Def2SVP td=(nstates=5)
 -----------------------------------

 -------------------------------------------------------
 step_1551_chromophore_6 TDDFT with cam-b3lyp functional
 -------------------------------------------------------
 Symbolic Z-matrix:
 Charge =  0 Multiplicity = 1

                         Standard orientation:
 ---------------------------------------------------------------------
 Center     Atomic      Atomic             Coordinates (Angstroms)
 Number     Number       Type             X           Y           Z
 ---------------------------------------------------------------------
      1         12           0        5.125156    1.015613    0.019391
      2          6           0        4.397508   -2.415974    0.177324
      3          6           0        1.723435    1.619214   -0.102207
      4          6           0        5.909810    4.186646   -0.145744
      5          6           0        8.491915    0.170942   -0.360952
      6          7           0        3.314505   -0.249937    0.108253
      7          6           0        3.265517   -1.569113    0.270834
      8          6           0        1.851835   -2.104407    0.281718
      9          6           0        0.997923   -0.889591   -0.180022
     10          6           0        2.061488    0.250837   -0.057611
     11          6           0        0.231380   -0.874653   -1.605808
     12          6           0        1.488182   -2.707393    1.649908
     13          6           0        0.916019   -4.137006    1.703421
     14          6           0       -0.265707   -4.267246    0.676398
     15          8           0       -0.167321   -4.777207   -0.440492
     16          8           0       -1.446341   -3.866812    1.287130
     17          7           0        4.037001    2.677200   -0.026530
     18          6           0        2.628122    2.727695   -0.117414
     19          6           0        2.235648    4.170836   -0.027661
     20          6           0        3.432840    4.985529    0.024502
     21          6           0        4.537725    3.982355   -0.066935
     22          6           0        0.769957    4.648343   -0.244106
     23          6           0        3.621612    6.448570    0.144723
     24          8           0        4.705813    6.957598    0.338530
     25          6           0        2.470776    7.368722    0.118872
     26          7           0        6.987014    2.001846   -0.268350
     27          6           0        7.011647    3.373930   -0.230150
     28          6           0        8.388875    3.933502   -0.557597
     29          6           0        9.319668    2.683863   -0.475737
     30          6           0        8.233445    1.550145   -0.480557
     31          6           0        8.379598    4.632268   -1.958152
     32          6           0       10.310316    2.626305    0.643493
     33          6           0        9.900027    2.025677    2.049054
     34          7           0        6.286771   -0.706612   -0.091687
     35          6           0        7.633141   -0.901448   -0.171971
     36          6           0        7.916467   -2.292668   -0.190669
     37          6           0        6.634770   -2.996629   -0.023170
     38          6           0        5.728837   -1.988198    0.066147
     39          6           0        9.209127   -2.948096   -0.661624
     40          6           0        5.970377   -4.278272    0.049956
     41          8           0        6.403173   -5.424490    0.087128
     42          6           0        4.424163   -3.996777    0.202621
     43          6           0        3.708025   -4.599234   -0.919204
     44          8           0        3.575697   -4.077179   -2.013743
     45          8           0        3.314763   -5.840954   -0.590985
     46          6           0        2.848729   -6.607701   -1.787250
     47          6           0       -2.642326   -4.169157    0.515405
     48          6           0       -3.404941   -2.877543    0.012338
     49          6           0       -4.697324   -2.493182    0.252180
     50          6           0       -5.709137   -3.424522    0.871398
     51          6           0       -5.103976   -1.081943   -0.109618
     52          6           0       -5.179273   -0.079919    1.055049
     53          6           0       -6.581181    0.268138    1.623726
     54          6           0       -7.160067    1.661238    1.144607
     55          6           0       -6.753899    2.731995    2.245487
     56          6           0       -8.749094    1.704639    0.816814
     57          6           0       -9.264302    0.846733   -0.341035
     58          6           0      -10.167067   -0.364264   -0.051541
     59          6           0      -11.460011    0.107935    0.591707
     60          6           0      -11.445756   -0.253783    2.079668
     61          6           0      -12.846335   -0.453977    0.014853
     62          6           0      -13.252016    0.389305   -1.246828
     63          6           0      -14.856905    0.448346   -1.428133
     64          6           0      -15.359906    1.843366   -1.731009
     65          6           0      -16.817565    1.955854   -2.183753
     66          6           0      -15.106305    2.772915   -0.489433
     67          1           0        0.666793    1.888513   -0.158446
     68          1           0        6.281580    5.212512   -0.098871
     69          1           0        9.553844   -0.076702   -0.419922
     70          1           0        1.844948   -2.792218   -0.563091
     71          1           0        0.158794   -0.651505    0.472452
     72          1           0        0.389485    0.088620   -2.090595
     73          1           0       -0.844792   -0.971307   -1.461783
     74          1           0        0.520933   -1.723873   -2.223915
     75          1           0        0.783733   -2.042305    2.149431
     76          1           0        2.417519   -2.725342    2.218856
     77          1           0        0.563159   -4.282611    2.723934
     78          1           0        1.677691   -4.904713    1.561999
     79          1           0        0.497739    5.405024    0.491568
     80          1           0        0.044722    3.851634   -0.081947
     81          1           0        0.522224    5.091017   -1.208109
     82          1           0        1.820349    7.155248   -0.729149
     83          1           0        2.776162    8.395913    0.319958
     84          1           0        1.874236    7.181832    1.011726
     85          1           0        8.712741    4.662215    0.185689
     86          1           0        9.898366    2.545584   -1.389820
     87          1           0        8.583831    5.695795   -1.834264
     88          1           0        7.491611    4.273820   -2.478910
     89          1           0        9.202154    4.251473   -2.562739
     90          1           0       10.695724    3.631138    0.815293
     91          1           0       11.120082    1.920758    0.460202
     92          1           0        8.832139    1.851203    2.186037
     93          1           0       10.253417    2.680933    2.845430
     94          1           0       10.274965    1.037852    2.317215
     95          1           0        9.777973   -3.198841    0.233574
     96          1           0        9.709764   -2.308655   -1.388400
     97          1           0        9.032999   -3.847691   -1.252285
     98          1           0        3.946107   -4.338499    1.120670
     99          1           0        3.653232   -6.953393   -2.437747
    100          1           0        2.178389   -6.026581   -2.420485
    101          1           0        2.359115   -7.528748   -1.470630
    102          1           0       -3.363408   -4.660633    1.168103
    103          1           0       -2.607448   -4.797559   -0.375439
    104          1           0       -2.690466   -2.118532   -0.309219
    105          1           0       -6.600526   -3.488900    0.246359
    106          1           0       -6.181360   -3.013006    1.764187
    107          1           0       -5.276126   -4.347714    1.257775
    108          1           0       -6.093566   -1.091927   -0.567867
    109          1           0       -4.329990   -0.680232   -0.763498
    110          1           0       -4.595448    0.825904    0.894793
    111          1           0       -4.697089   -0.502055    1.936832
    112          1           0       -6.584131    0.206033    2.712239
    113          1           0       -7.301263   -0.514810    1.383297
    114          1           0       -6.572034    1.849739    0.246093
    115          1           0       -7.576901    3.424956    2.423357
    116          1           0       -5.860402    3.304386    1.995021
    117          1           0       -6.458991    2.293421    3.198234
    118          1           0       -9.146269    2.713238    0.706716
    119          1           0       -9.155083    1.400560    1.781961
    120          1           0       -8.462067    0.537261   -1.010321
    121          1           0       -9.851473    1.509427   -0.976403
    122          1           0       -9.586153   -1.123962    0.471626
    123          1           0      -10.596433   -0.847395   -0.929425
    124          1           0      -11.437005    1.197166    0.547947
    125          1           0      -10.661288   -0.976726    2.303650
    126          1           0      -12.388600   -0.482440    2.576534
    127          1           0      -11.102590    0.660250    2.565432
    128          1           0      -13.565276   -0.538583    0.829803
    129          1           0      -12.652202   -1.463220   -0.349035
    130          1           0      -12.842922   -0.183583   -2.079719
    131          1           0      -12.825558    1.392836   -1.243809
    132          1           0      -15.297977    0.099658   -0.493274
    133          1           0      -15.333627   -0.136359   -2.214287
    134          1           0      -14.842987    2.148605   -2.641528
    135          1           0      -16.736256    1.964547   -3.271322
    136          1           0      -17.308010    2.870541   -1.852312
    137          1           0      -17.425788    1.108122   -1.867112
    138          1           0      -16.059321    2.947211    0.011460
    139          1           0      -14.690065    3.744634   -0.753962
    140          1           0      -14.435666    2.249687    0.191283
 ---------------------------------------------------------------------

 SCF Done:  E(RCAM-B3LYP) =  -3007.16893391     A.U. after   16 cycles

 Excitation energies and oscillator strengths:

 Excited State   1:      Singlet-A      1.7480 eV  709.29 nm  f=0.3776  <S**2>=0.000
     245 -> 248        0.20011
     246 -> 247        0.67873
     245 <- 248        0.11016
 This state for optimization and/or second-order correction.
 Total Energy, E(TD-HF/TD-DFT) =  -3007.10469590
 Copying the excited state density for this state as the 1-particle RhoCI density.

 Excited State   2:      Singlet-A      2.2088 eV  561.32 nm  f=0.1238  <S**2>=0.000
     245 -> 247        0.64252
     246 -> 248       -0.27927

 Excited State   3:      Singlet-A      3.2538 eV  381.04 nm  f=0.0007  <S**2>=0.000
     244 -> 247        0.67846
     246 -> 248        0.11075

 Excited State   4:      Singlet-A      3.5105 eV  353.18 nm  f=0.5632  <S**2>=0.000
     241 -> 247       -0.14252
     242 -> 247        0.19799
     245 -> 247        0.25449
     246 -> 248        0.59366
     245 <- 247       -0.10424

 Excited State   5:      Singlet-A      3.5707 eV  347.22 nm  f=0.0191  <S**2>=0.000
     239 -> 247        0.11529
     241 -> 247        0.52161
     241 -> 249       -0.31902
     241 -> 250       -0.20948
     242 -> 247        0.15444
     246 -> 248        0.11325

 The electronic state is 1-A.
 Alpha  occ. eigenvalues --  -46.87329 -19.26648 -19.25240 -19.21052 -19.18881
 Alpha  occ. eigenvalues --  -19.18874 -19.18372 -14.42141 -14.41495 -14.40014
 Alpha  occ. eigenvalues --  -14.38397 -10.40587 -10.38416 -10.35335 -10.34518
 Alpha  occ. eigenvalues --  -10.32526 -10.31137 -10.31027 -10.30838 -10.30760
 Alpha  occ. eigenvalues --  -10.30494 -10.30425 -10.30101 -10.29938 -10.28823
 Alpha  occ. eigenvalues --  -10.28243 -10.28234 -10.28166 -10.28127 -10.28062
 Alpha  occ. eigenvalues --  -10.28051 -10.27750 -10.27640 -10.27609 -10.27603
 Alpha  occ. eigenvalues --  -10.27569 -10.27559 -10.27458 -10.27298 -10.27111
 Alpha  occ. eigenvalues --  -10.26614 -10.26547 -10.26490 -10.26437 -10.26157
 Alpha  occ. eigenvalues --  -10.26078 -10.25971 -10.25892 -10.25784 -10.25751
 Alpha  occ. eigenvalues --  -10.25672 -10.25607 -10.25596 -10.25512 -10.25444
 Alpha  occ. eigenvalues --  -10.25398 -10.25320 -10.25284 -10.25140 -10.25063
 Alpha  occ. eigenvalues --  -10.25053 -10.24980 -10.24955 -10.24347 -10.24277
 Alpha  occ. eigenvalues --  -10.23937  -3.16063  -1.90969  -1.90525  -1.90375
 Alpha  occ. eigenvalues --   -1.16681  -1.16526  -1.10529  -1.09474  -1.08515
 Alpha  occ. eigenvalues --   -1.07272  -1.04597  -1.03783  -1.02244  -1.00987
 Alpha  occ. eigenvalues --   -0.92379  -0.90691  -0.90114  -0.89646  -0.88750
 Alpha  occ. eigenvalues --   -0.88523  -0.88382  -0.87412  -0.87023  -0.86496
 Alpha  occ. eigenvalues --   -0.85257  -0.85024  -0.84178  -0.83768  -0.83106
 Alpha  occ. eigenvalues --   -0.82265  -0.81909  -0.81096  -0.80601  -0.80245
 Alpha  occ. eigenvalues --   -0.79948  -0.78278  -0.77756  -0.76842  -0.76751
 Alpha  occ. eigenvalues --   -0.76023  -0.75400  -0.75300  -0.74974  -0.74333
 Alpha  occ. eigenvalues --   -0.73353  -0.72273  -0.71494  -0.70607  -0.69836
 Alpha  occ. eigenvalues --   -0.68808  -0.68581  -0.67472  -0.67347  -0.66342
 Alpha  occ. eigenvalues --   -0.65560  -0.64881  -0.64685  -0.64290  -0.64048
 Alpha  occ. eigenvalues --   -0.63913  -0.63179  -0.62259  -0.61624  -0.60250
 Alpha  occ. eigenvalues --   -0.60077  -0.59538  -0.59087  -0.58096  -0.57942
 Alpha  occ. eigenvalues --   -0.57538  -0.56971  -0.55996  -0.55892  -0.55587
 Alpha  occ. eigenvalues --   -0.55166  -0.54744  -0.54464  -0.54196  -0.53852
 Alpha  occ. eigenvalues --   -0.53731  -0.53630  -0.53020  -0.52910  -0.52690
 Alpha  occ. eigenvalues --   -0.52524  -0.52481  -0.52223  -0.51917  -0.51719
 Alpha  occ. eigenvalues --   -0.51631  -0.51312  -0.50943  -0.50683  -0.50608
 Alpha  occ. eigenvalues --   -0.50486  -0.50025  -0.49725  -0.49607  -0.49535
 Alpha  occ. eigenvalues --   -0.49278  -0.49218  -0.48947  -0.48752  -0.48407
 Alpha  occ. eigenvalues --   -0.48314  -0.48156  -0.48016  -0.47958  -0.47431
 Alpha  occ. eigenvalues --   -0.47380  -0.47103  -0.46967  -0.46870  -0.46691
 Alpha  occ. eigenvalues --   -0.46368  -0.46264  -0.45924  -0.45580  -0.45473
 Alpha  occ. eigenvalues --   -0.45448  -0.45241  -0.45174  -0.44747  -0.44650
 Alpha  occ. eigenvalues --   -0.44576  -0.44556  -0.44312  -0.44203  -0.43944
 Alpha  occ. eigenvalues --   -0.43868  -0.43720  -0.43544  -0.43454  -0.42967
 Alpha  occ. eigenvalues --   -0.42901  -0.42464  -0.42365  -0.42183  -0.42111
 Alpha  occ. eigenvalues --   -0.42017  -0.41875  -0.41633  -0.41479  -0.41250
 Alpha  occ. eigenvalues --   -0.41029  -0.40974  -0.40893  -0.40716  -0.40520
 Alpha  occ. eigenvalues --   -0.40278  -0.39590  -0.39325  -0.39318  -0.38802
 Alpha  occ. eigenvalues --   -0.38378  -0.37983  -0.37705  -0.37469  -0.37155
 Alpha  occ. eigenvalues --   -0.37073  -0.36981  -0.36898  -0.36706  -0.36656
 Alpha  occ. eigenvalues --   -0.36494  -0.36115  -0.36006  -0.34695  -0.34503
 Alpha  occ. eigenvalues --   -0.34327  -0.33728  -0.33411  -0.31175  -0.30970
 Alpha  occ. eigenvalues --   -0.30815  -0.30174  -0.30103  -0.28802  -0.23652
 Alpha  occ. eigenvalues --   -0.21211
 Alpha virt. eigenvalues --   -0.08516  -0.01819   0.00073   0.02176   0.03610
 Alpha virt. eigenvalues --    0.04109   0.04616   0.05651   0.05999   0.06558
 Alpha virt. eigenvalues --    0.07742   0.08290   0.08403   0.08887   0.08974

 Mulliken charges:
               1
     1  Mg   0.837353
     2  C   -0.055756
     3  C   -0.064548
     4  C   -0.047304
     5  C   -0.100760
     6  N   -0.244846
     7  C   -0.036386
     8  C   -0.057168
     9  C   -0.059521
    10  C    0.031239
    11  C    0.053816
    12  C    0.059538
    13  C    0.085876
    14  C    0.168864
    15  O   -0.230986
    16  O   -0.328625
    17  N   -0.457755
    18  C    0.160636
    19  C   -0.137580
    20  C    0.010423
    21  C    0.167438
    22  C    0.078750
    23  C   -0.029211
    24  O   -0.194933
    25  C    0.065493
    26  N   -0.278024
    27  C    0.005621
    28  C   -0.065479
    29  C    0.052895
    30  C   -0.009570
    31  C    0.085455
    32  C    0.028646
    33  C   -0.025715
    34  N   -0.371660
    35  C    0.173344
    36  C   -0.174865
    37  C    0.020215
    38  C    0.137266
    39  C    0.105950
    40  C    0.040767
    41  O   -0.166608
    42  C    0.015276
    43  C    0.186246
    44  O   -0.232661
    45  O   -0.310135
    46  C    0.182196
    47  C    0.275219
    48  C   -0.132931
    49  C   -0.154310
    50  C    0.093575
    51  C    0.117762
    52  C    0.013321
    53  C    0.020232
    54  C   -0.103330
    55  C    0.036300
    56  C    0.026373
    57  C    0.015043
    58  C    0.090731
    59  C   -0.180101
    60  C    0.057417
    61  C    0.040582
    62  C    0.010627
    63  C    0.053993
    64  C   -0.180031
    65  C    0.050203
    66  C    0.042582
    67  H   -0.028575
    68  H   -0.009653
    69  H   -0.037113
    70  H    0.048828
    71  H    0.001838
    72  H    0.018932
    73  H    0.008202
    74  H    0.041001
    75  H    0.017998
    76  H    0.018935
    77  H    0.025019
    78  H    0.037262
    79  H    0.012585
    80  H    0.006711
    81  H    0.043800
    82  H    0.032221
    83  H    0.024072
    84  H    0.025919
    85  H    0.012061
    86  H    0.002623
    87  H    0.032649
    88  H    0.030461
    89  H    0.000184
    90  H    0.013332
    91  H    0.014942
    92  H    0.019986
    93  H    0.011673
    94  H    0.010880
    95  H    0.032942
    96  H    0.018637
    97  H    0.030589
    98  H    0.032913
    99  H    0.034652
   100  H    0.053572
   101  H    0.031448
   102  H    0.002453
   103  H    0.050085
   104  H   -0.020417
   105  H    0.020224
   106  H    0.007273
   107  H    0.010405
   108  H    0.003357
   109  H    0.000016
   110  H   -0.002794
   111  H   -0.003984
   112  H   -0.005908
   113  H   -0.024219
   114  H   -0.003087
   115  H    0.008304
   116  H    0.005649
   117  H    0.003064
   118  H    0.003504
   119  H   -0.003564
   120  H   -0.006467
   121  H   -0.006956
   122  H   -0.001036
   123  H   -0.020043
   124  H    0.002644
   125  H   -0.000841
   126  H    0.003821
   127  H   -0.002465
   128  H    0.007204
   129  H   -0.002644
   130  H    0.005266
   131  H    0.018137
   132  H   -0.010732
   133  H   -0.010573
   134  H   -0.004149
   135  H    0.003732
   136  H    0.009291
   137  H    0.004992
   138  H    0.005328
   139  H    0.011062
   140  H    0.006078
 Sum of Mulliken charges =  -0.00000

 Dipole moment (field-independent basis, Debye):
    X=             -4.6114    Y=              2.4271    Z=              1.3182  Tot=              5.3752
 Quadrupole moment (field-independent basis, Debye-Ang):
   XX=           -384.0351   YY=           -425.1327   ZZ=           -406.2284
   XY=             18.4983   XZ=             -2.1512   YZ=             -7.7914

 Normal termination of Gaussian 16 at Wed May  4 09:28:03 2022.
