 Gaussian 16, Revision A.03,
 Gaussian 16:  ES64L-G16RevA.03 25-Dec-2016

 ---------------------------------
 #p PBE1PBE/Def2SVP td=(nstates=5)
 ---------------------------------

 -----------------------------------------------------
 step_1551_chromophore_6 TDDFT with PBE1PBE functional
 -----------------------------------------------------
 Symbolic Z-matrix:
 Charge =  0 Multiplicity = 1

                         Standard orientation:
 ---------------------------------------------------------------------
 Center     Atomic      Atomic             Coordinates (Angstroms)
 Number     Number       Type             X           Y           Z
 ---------------------------------------------------------------------
      1         12           0        5.125156    1.015613    0.019391
      2          6           0        4.397508   -2.415974    0.177324
      3          6           0        1.723435    1.619214   -0.102207
      4          6           0        5.909810    4.186646   -0.145744
      5          6           0        8.491915    0.170942   -0.360952
      6          7           0        3.314505   -0.249937    0.108253
      7          6           0        3.265517   -1.569113    0.270834
      8          6           0        1.851835   -2.104407    0.281718
      9          6           0        0.997923   -0.889591   -0.180022
     10          6           0        2.061488    0.250837   -0.057611
     11          6           0        0.231380   -0.874653   -1.605808
     12          6           0        1.488182   -2.707393    1.649908
     13          6           0        0.916019   -4.137006    1.703421
     14          6           0       -0.265707   -4.267246    0.676398
     15          8           0       -0.167321   -4.777207   -0.440492
     16          8           0       -1.446341   -3.866812    1.287130
     17          7           0        4.037001    2.677200   -0.026530
     18          6           0        2.628122    2.727695   -0.117414
     19          6           0        2.235648    4.170836   -0.027661
     20          6           0        3.432840    4.985529    0.024502
     21          6           0        4.537725    3.982355   -0.066935
     22          6           0        0.769957    4.648343   -0.244106
     23          6           0        3.621612    6.448570    0.144723
     24          8           0        4.705813    6.957598    0.338530
     25          6           0        2.470776    7.368722    0.118872
     26          7           0        6.987014    2.001846   -0.268350
     27          6           0        7.011647    3.373930   -0.230150
     28          6           0        8.388875    3.933502   -0.557597
     29          6           0        9.319668    2.683863   -0.475737
     30          6           0        8.233445    1.550145   -0.480557
     31          6           0        8.379598    4.632268   -1.958152
     32          6           0       10.310316    2.626305    0.643493
     33          6           0        9.900027    2.025677    2.049054
     34          7           0        6.286771   -0.706612   -0.091687
     35          6           0        7.633141   -0.901448   -0.171971
     36          6           0        7.916467   -2.292668   -0.190669
     37          6           0        6.634770   -2.996629   -0.023170
     38          6           0        5.728837   -1.988198    0.066147
     39          6           0        9.209127   -2.948096   -0.661624
     40          6           0        5.970377   -4.278272    0.049956
     41          8           0        6.403173   -5.424490    0.087128
     42          6           0        4.424163   -3.996777    0.202621
     43          6           0        3.708025   -4.599234   -0.919204
     44          8           0        3.575697   -4.077179   -2.013743
     45          8           0        3.314763   -5.840954   -0.590985
     46          6           0        2.848729   -6.607701   -1.787250
     47          6           0       -2.642326   -4.169157    0.515405
     48          6           0       -3.404941   -2.877543    0.012338
     49          6           0       -4.697324   -2.493182    0.252180
     50          6           0       -5.709137   -3.424522    0.871398
     51          6           0       -5.103976   -1.081943   -0.109618
     52          6           0       -5.179273   -0.079919    1.055049
     53          6           0       -6.581181    0.268138    1.623726
     54          6           0       -7.160067    1.661238    1.144607
     55          6           0       -6.753899    2.731995    2.245487
     56          6           0       -8.749094    1.704639    0.816814
     57          6           0       -9.264302    0.846733   -0.341035
     58          6           0      -10.167067   -0.364264   -0.051541
     59          6           0      -11.460011    0.107935    0.591707
     60          6           0      -11.445756   -0.253783    2.079668
     61          6           0      -12.846335   -0.453977    0.014853
     62          6           0      -13.252016    0.389305   -1.246828
     63          6           0      -14.856905    0.448346   -1.428133
     64          6           0      -15.359906    1.843366   -1.731009
     65          6           0      -16.817565    1.955854   -2.183753
     66          6           0      -15.106305    2.772915   -0.489433
     67          1           0        0.666793    1.888513   -0.158446
     68          1           0        6.281580    5.212512   -0.098871
     69          1           0        9.553844   -0.076702   -0.419922
     70          1           0        1.844948   -2.792218   -0.563091
     71          1           0        0.158794   -0.651505    0.472452
     72          1           0        0.389485    0.088620   -2.090595
     73          1           0       -0.844792   -0.971307   -1.461783
     74          1           0        0.520933   -1.723873   -2.223915
     75          1           0        0.783733   -2.042305    2.149431
     76          1           0        2.417519   -2.725342    2.218856
     77          1           0        0.563159   -4.282611    2.723934
     78          1           0        1.677691   -4.904713    1.561999
     79          1           0        0.497739    5.405024    0.491568
     80          1           0        0.044722    3.851634   -0.081947
     81          1           0        0.522224    5.091017   -1.208109
     82          1           0        1.820349    7.155248   -0.729149
     83          1           0        2.776162    8.395913    0.319958
     84          1           0        1.874236    7.181832    1.011726
     85          1           0        8.712741    4.662215    0.185689
     86          1           0        9.898366    2.545584   -1.389820
     87          1           0        8.583831    5.695795   -1.834264
     88          1           0        7.491611    4.273820   -2.478910
     89          1           0        9.202154    4.251473   -2.562739
     90          1           0       10.695724    3.631138    0.815293
     91          1           0       11.120082    1.920758    0.460202
     92          1           0        8.832139    1.851203    2.186037
     93          1           0       10.253417    2.680933    2.845430
     94          1           0       10.274965    1.037852    2.317215
     95          1           0        9.777973   -3.198841    0.233574
     96          1           0        9.709764   -2.308655   -1.388400
     97          1           0        9.032999   -3.847691   -1.252285
     98          1           0        3.946107   -4.338499    1.120670
     99          1           0        3.653232   -6.953393   -2.437747
    100          1           0        2.178389   -6.026581   -2.420485
    101          1           0        2.359115   -7.528748   -1.470630
    102          1           0       -3.363408   -4.660633    1.168103
    103          1           0       -2.607448   -4.797559   -0.375439
    104          1           0       -2.690466   -2.118532   -0.309219
    105          1           0       -6.600526   -3.488900    0.246359
    106          1           0       -6.181360   -3.013006    1.764187
    107          1           0       -5.276126   -4.347714    1.257775
    108          1           0       -6.093566   -1.091927   -0.567867
    109          1           0       -4.329990   -0.680232   -0.763498
    110          1           0       -4.595448    0.825904    0.894793
    111          1           0       -4.697089   -0.502055    1.936832
    112          1           0       -6.584131    0.206033    2.712239
    113          1           0       -7.301263   -0.514810    1.383297
    114          1           0       -6.572034    1.849739    0.246093
    115          1           0       -7.576901    3.424956    2.423357
    116          1           0       -5.860402    3.304386    1.995021
    117          1           0       -6.458991    2.293421    3.198234
    118          1           0       -9.146269    2.713238    0.706716
    119          1           0       -9.155083    1.400560    1.781961
    120          1           0       -8.462067    0.537261   -1.010321
    121          1           0       -9.851473    1.509427   -0.976403
    122          1           0       -9.586153   -1.123962    0.471626
    123          1           0      -10.596433   -0.847395   -0.929425
    124          1           0      -11.437005    1.197166    0.547947
    125          1           0      -10.661288   -0.976726    2.303650
    126          1           0      -12.388600   -0.482440    2.576534
    127          1           0      -11.102590    0.660250    2.565432
    128          1           0      -13.565276   -0.538583    0.829803
    129          1           0      -12.652202   -1.463220   -0.349035
    130          1           0      -12.842922   -0.183583   -2.079719
    131          1           0      -12.825558    1.392836   -1.243809
    132          1           0      -15.297977    0.099658   -0.493274
    133          1           0      -15.333627   -0.136359   -2.214287
    134          1           0      -14.842987    2.148605   -2.641528
    135          1           0      -16.736256    1.964547   -3.271322
    136          1           0      -17.308010    2.870541   -1.852312
    137          1           0      -17.425788    1.108122   -1.867112
    138          1           0      -16.059321    2.947211    0.011460
    139          1           0      -14.690065    3.744634   -0.753962
    140          1           0      -14.435666    2.249687    0.191283
 ---------------------------------------------------------------------

 SCF Done:  E(RPBE1PBE) =  -3005.35781109     A.U. after   15 cycles

 Excitation energies and oscillator strengths:

 Excited State   1:      Singlet-A      1.9018 eV  651.94 nm  f=0.3637  <S**2>=0.000
     245 -> 248        0.19332
     246 -> 247        0.68514
 This state for optimization and/or second-order correction.
 Total Energy, E(TD-HF/TD-DFT) =  -3005.28792171
 Copying the excited state density for this state as the 1-particle RhoCI density.

 Excited State   2:      Singlet-A      2.2117 eV  560.58 nm  f=0.1167  <S**2>=0.000
     245 -> 247        0.65459
     246 -> 248       -0.24686

 Excited State   3:      Singlet-A      2.9513 eV  420.10 nm  f=0.0052  <S**2>=0.000
     244 -> 247        0.68590

 Excited State   4:      Singlet-A      3.0933 eV  400.81 nm  f=0.0011  <S**2>=0.000
     240 -> 247        0.37138
     240 -> 249       -0.10452
     241 -> 247        0.54134
     241 -> 249       -0.15442

 Excited State   5:      Singlet-A      3.1011 eV  399.81 nm  f=0.0002  <S**2>=0.000
     241 -> 247       -0.15841
     242 -> 247        0.64629
     242 -> 248        0.10140
     242 -> 249        0.15099
     242 -> 250       -0.10908

 The electronic state is 1-A.
 Alpha  occ. eigenvalues --  -46.90768 -19.27361 -19.25872 -19.21329 -19.19156
 Alpha  occ. eigenvalues --  -19.19114 -19.18508 -14.41617 -14.41013 -14.39677
 Alpha  occ. eigenvalues --  -14.38181 -10.37661 -10.35402 -10.32527 -10.31538
 Alpha  occ. eigenvalues --  -10.29973 -10.28830 -10.28697 -10.28397 -10.28263
 Alpha  occ. eigenvalues --  -10.28243 -10.28075 -10.27784 -10.27550 -10.26602
 Alpha  occ. eigenvalues --  -10.26051 -10.25991 -10.25876 -10.25828 -10.25724
 Alpha  occ. eigenvalues --  -10.25629 -10.25505 -10.25448 -10.25384 -10.25279
 Alpha  occ. eigenvalues --  -10.25237 -10.25174 -10.25111 -10.24936 -10.24856
 Alpha  occ. eigenvalues --  -10.24149 -10.24131 -10.24014 -10.23983 -10.23729
 Alpha  occ. eigenvalues --  -10.23646 -10.23544 -10.23462 -10.23365 -10.23253
 Alpha  occ. eigenvalues --  -10.23240 -10.23181 -10.23096 -10.23049 -10.22962
 Alpha  occ. eigenvalues --  -10.22945 -10.22945 -10.22935 -10.22888 -10.22620
 Alpha  occ. eigenvalues --  -10.22546 -10.22469 -10.22399 -10.21727 -10.21665
 Alpha  occ. eigenvalues --  -10.21364  -3.13077  -1.85926  -1.85458  -1.85315
 Alpha  occ. eigenvalues --   -1.11501  -1.11293  -1.05193  -1.04266  -1.03383
 Alpha  occ. eigenvalues --   -1.02081  -0.99211  -0.98408  -0.96988  -0.95580
 Alpha  occ. eigenvalues --   -0.86783  -0.84804  -0.84212  -0.83866  -0.83047
 Alpha  occ. eigenvalues --   -0.82707  -0.82610  -0.81530  -0.81353  -0.80653
 Alpha  occ. eigenvalues --   -0.79611  -0.79300  -0.78368  -0.78067  -0.77371
 Alpha  occ. eigenvalues --   -0.76443  -0.76051  -0.75364  -0.74886  -0.74523
 Alpha  occ. eigenvalues --   -0.74151  -0.72511  -0.72016  -0.71132  -0.70914
 Alpha  occ. eigenvalues --   -0.70317  -0.69520  -0.69389  -0.69345  -0.68491
 Alpha  occ. eigenvalues --   -0.67680  -0.66734  -0.65927  -0.64927  -0.64226
 Alpha  occ. eigenvalues --   -0.63205  -0.62926  -0.61882  -0.61604  -0.60559
 Alpha  occ. eigenvalues --   -0.60010  -0.59338  -0.59157  -0.58794  -0.58587
 Alpha  occ. eigenvalues --   -0.58218  -0.57326  -0.56445  -0.56235  -0.54607
 Alpha  occ. eigenvalues --   -0.54573  -0.54025  -0.53676  -0.52748  -0.52422
 Alpha  occ. eigenvalues --   -0.52032  -0.51425  -0.50617  -0.50463  -0.50165
 Alpha  occ. eigenvalues --   -0.49640  -0.49321  -0.48960  -0.48565  -0.48388
 Alpha  occ. eigenvalues --   -0.48301  -0.48124  -0.47562  -0.47446  -0.47237
 Alpha  occ. eigenvalues --   -0.47005  -0.46806  -0.46744  -0.46437  -0.46347
 Alpha  occ. eigenvalues --   -0.46178  -0.45846  -0.45531  -0.45331  -0.45152
 Alpha  occ. eigenvalues --   -0.45027  -0.44598  -0.44335  -0.44165  -0.44105
 Alpha  occ. eigenvalues --   -0.43860  -0.43805  -0.43527  -0.43325  -0.43001
 Alpha  occ. eigenvalues --   -0.42914  -0.42758  -0.42657  -0.42597  -0.42088
 Alpha  occ. eigenvalues --   -0.42036  -0.41745  -0.41634  -0.41484  -0.41366
 Alpha  occ. eigenvalues --   -0.41049  -0.40960  -0.40585  -0.40320  -0.40205
 Alpha  occ. eigenvalues --   -0.40108  -0.40009  -0.39912  -0.39474  -0.39362
 Alpha  occ. eigenvalues --   -0.39278  -0.39171  -0.39077  -0.38898  -0.38674
 Alpha  occ. eigenvalues --   -0.38633  -0.38424  -0.38331  -0.38198  -0.37786
 Alpha  occ. eigenvalues --   -0.37705  -0.37285  -0.37204  -0.37026  -0.36898
 Alpha  occ. eigenvalues --   -0.36802  -0.36784  -0.36465  -0.36238  -0.36064
 Alpha  occ. eigenvalues --   -0.35890  -0.35838  -0.35731  -0.35509  -0.35456
 Alpha  occ. eigenvalues --   -0.35161  -0.34546  -0.34319  -0.34119  -0.33579
 Alpha  occ. eigenvalues --   -0.33189  -0.32999  -0.32549  -0.32387  -0.32217
 Alpha  occ. eigenvalues --   -0.31956  -0.31874  -0.31753  -0.31718  -0.31553
 Alpha  occ. eigenvalues --   -0.31414  -0.31037  -0.30940  -0.29781  -0.29508
 Alpha  occ. eigenvalues --   -0.29301  -0.29067  -0.28435  -0.26849  -0.25786
 Alpha  occ. eigenvalues --   -0.25724  -0.25598  -0.25437  -0.24562  -0.20641
 Alpha  occ. eigenvalues --   -0.18817
 Alpha virt. eigenvalues --   -0.10990  -0.05307  -0.04115  -0.02210  -0.00857
 Alpha virt. eigenvalues --    0.00207   0.00898   0.01459   0.01791   0.02962
 Alpha virt. eigenvalues --    0.04172   0.04281   0.04921   0.05199   0.05526

 Mulliken charges:
               1
     1  Mg   0.995827
     2  C   -0.053545
     3  C   -0.060756
     4  C   -0.049934
     5  C   -0.097383
     6  N   -0.355521
     7  C    0.038411
     8  C   -0.141488
     9  C   -0.116597
    10  C    0.060741
    11  C   -0.007900
    12  C    0.010030
    13  C    0.009572
    14  C    0.232767
    15  O   -0.263527
    16  O   -0.356687
    17  N   -0.569779
    18  C    0.181231
    19  C   -0.157975
    20  C   -0.041844
    21  C    0.197783
    22  C    0.020654
    23  C    0.022702
    24  O   -0.233591
    25  C   -0.008315
    26  N   -0.382012
    27  C    0.041598
    28  C   -0.147983
    29  C   -0.016953
    30  C    0.038240
    31  C    0.029149
    32  C   -0.035094
    33  C   -0.095410
    34  N   -0.492003
    35  C    0.186608
    36  C   -0.181839
    37  C   -0.020676
    38  C    0.174562
    39  C    0.049608
    40  C    0.129268
    41  O   -0.211833
    42  C   -0.095529
    43  C    0.275055
    44  O   -0.266542
    45  O   -0.342941
    46  C    0.125518
    47  C    0.225280
    48  C   -0.147058
    49  C   -0.200066
    50  C    0.033808
    51  C    0.044791
    52  C   -0.045276
    53  C   -0.035169
    54  C   -0.187146
    55  C   -0.021849
    56  C   -0.026062
    57  C   -0.059755
    58  C    0.037213
    59  C   -0.263339
    60  C   -0.000210
    61  C   -0.015544
    62  C   -0.053862
    63  C   -0.001275
    64  C   -0.268619
    65  C   -0.010843
    66  C   -0.023792
    67  H    0.002993
    68  H    0.022828
    69  H   -0.004000
    70  H    0.093752
    71  H    0.038249
    72  H    0.046858
    73  H    0.038278
    74  H    0.066942
    75  H    0.050125
    76  H    0.052574
    77  H    0.057474
    78  H    0.069930
    79  H    0.040232
    80  H    0.033689
    81  H    0.069641
    82  H    0.058897
    83  H    0.051315
    84  H    0.053436
    85  H    0.048575
    86  H    0.040125
    87  H    0.059153
    88  H    0.059105
    89  H    0.028385
    90  H    0.045835
    91  H    0.047174
    92  H    0.050190
    93  H    0.039953
    94  H    0.037730
    95  H    0.061476
    96  H    0.044909
    97  H    0.058298
    98  H    0.070755
    99  H    0.056948
   100  H    0.074612
   101  H    0.053364
   102  H    0.032850
   103  H    0.077495
   104  H    0.018557
   105  H    0.047738
   106  H    0.035370
   107  H    0.036508
   108  H    0.037950
   109  H    0.031980
   110  H    0.028715
   111  H    0.029673
   112  H    0.025490
   113  H    0.013029
   114  H    0.035768
   115  H    0.035334
   116  H    0.033024
   117  H    0.029580
   118  H    0.034391
   119  H    0.032178
   120  H    0.027401
   121  H    0.028364
   122  H    0.029967
   123  H    0.015052
   124  H    0.041146
   125  H    0.026696
   126  H    0.030919
   127  H    0.024801
   128  H    0.036597
   129  H    0.031031
   130  H    0.038551
   131  H    0.048650
   132  H    0.022798
   133  H    0.022297
   134  H    0.034070
   135  H    0.031555
   136  H    0.036788
   137  H    0.032366
   138  H    0.033202
   139  H    0.038836
   140  H    0.036591
 Sum of Mulliken charges =  -0.00000

 Dipole moment (field-independent basis, Debye):
    X=             -4.4703    Y=              2.3288    Z=              1.3081  Tot=              5.2075
 Quadrupole moment (field-independent basis, Debye-Ang):
   XX=           -376.8895   YY=           -422.8620   ZZ=           -403.7524
   XY=             18.5391   XZ=             -2.5432   YZ=             -7.8683

 Normal termination of Gaussian 16 at Wed May  4 09:44:22 2022.
