 Gaussian 16, Revision A.03,
 Gaussian 16:  ES64L-G16RevA.03 25-Dec-2016

 --------------------------------
 #p wB97XD/Def2SVP td=(nstates=5)
 --------------------------------

 ----------------------------------------------------
 step_1551_chromophore_6 TDDFT with wB97XD functional
 ----------------------------------------------------
 Symbolic Z-matrix:
 Charge =  0 Multiplicity = 1

                         Standard orientation:
 ---------------------------------------------------------------------
 Center     Atomic      Atomic             Coordinates (Angstroms)
 Number     Number       Type             X           Y           Z
 ---------------------------------------------------------------------
      1         12           0        5.125156    1.015613    0.019391
      2          6           0        4.397508   -2.415974    0.177324
      3          6           0        1.723435    1.619214   -0.102207
      4          6           0        5.909810    4.186646   -0.145744
      5          6           0        8.491915    0.170942   -0.360952
      6          7           0        3.314505   -0.249937    0.108253
      7          6           0        3.265517   -1.569113    0.270834
      8          6           0        1.851835   -2.104407    0.281718
      9          6           0        0.997923   -0.889591   -0.180022
     10          6           0        2.061488    0.250837   -0.057611
     11          6           0        0.231380   -0.874653   -1.605808
     12          6           0        1.488182   -2.707393    1.649908
     13          6           0        0.916019   -4.137006    1.703421
     14          6           0       -0.265707   -4.267246    0.676398
     15          8           0       -0.167321   -4.777207   -0.440492
     16          8           0       -1.446341   -3.866812    1.287130
     17          7           0        4.037001    2.677200   -0.026530
     18          6           0        2.628122    2.727695   -0.117414
     19          6           0        2.235648    4.170836   -0.027661
     20          6           0        3.432840    4.985529    0.024502
     21          6           0        4.537725    3.982355   -0.066935
     22          6           0        0.769957    4.648343   -0.244106
     23          6           0        3.621612    6.448570    0.144723
     24          8           0        4.705813    6.957598    0.338530
     25          6           0        2.470776    7.368722    0.118872
     26          7           0        6.987014    2.001846   -0.268350
     27          6           0        7.011647    3.373930   -0.230150
     28          6           0        8.388875    3.933502   -0.557597
     29          6           0        9.319668    2.683863   -0.475737
     30          6           0        8.233445    1.550145   -0.480557
     31          6           0        8.379598    4.632268   -1.958152
     32          6           0       10.310316    2.626305    0.643493
     33          6           0        9.900027    2.025677    2.049054
     34          7           0        6.286771   -0.706612   -0.091687
     35          6           0        7.633141   -0.901448   -0.171971
     36          6           0        7.916467   -2.292668   -0.190669
     37          6           0        6.634770   -2.996629   -0.023170
     38          6           0        5.728837   -1.988198    0.066147
     39          6           0        9.209127   -2.948096   -0.661624
     40          6           0        5.970377   -4.278272    0.049956
     41          8           0        6.403173   -5.424490    0.087128
     42          6           0        4.424163   -3.996777    0.202621
     43          6           0        3.708025   -4.599234   -0.919204
     44          8           0        3.575697   -4.077179   -2.013743
     45          8           0        3.314763   -5.840954   -0.590985
     46          6           0        2.848729   -6.607701   -1.787250
     47          6           0       -2.642326   -4.169157    0.515405
     48          6           0       -3.404941   -2.877543    0.012338
     49          6           0       -4.697324   -2.493182    0.252180
     50          6           0       -5.709137   -3.424522    0.871398
     51          6           0       -5.103976   -1.081943   -0.109618
     52          6           0       -5.179273   -0.079919    1.055049
     53          6           0       -6.581181    0.268138    1.623726
     54          6           0       -7.160067    1.661238    1.144607
     55          6           0       -6.753899    2.731995    2.245487
     56          6           0       -8.749094    1.704639    0.816814
     57          6           0       -9.264302    0.846733   -0.341035
     58          6           0      -10.167067   -0.364264   -0.051541
     59          6           0      -11.460011    0.107935    0.591707
     60          6           0      -11.445756   -0.253783    2.079668
     61          6           0      -12.846335   -0.453977    0.014853
     62          6           0      -13.252016    0.389305   -1.246828
     63          6           0      -14.856905    0.448346   -1.428133
     64          6           0      -15.359906    1.843366   -1.731009
     65          6           0      -16.817565    1.955854   -2.183753
     66          6           0      -15.106305    2.772915   -0.489433
     67          1           0        0.666793    1.888513   -0.158446
     68          1           0        6.281580    5.212512   -0.098871
     69          1           0        9.553844   -0.076702   -0.419922
     70          1           0        1.844948   -2.792218   -0.563091
     71          1           0        0.158794   -0.651505    0.472452
     72          1           0        0.389485    0.088620   -2.090595
     73          1           0       -0.844792   -0.971307   -1.461783
     74          1           0        0.520933   -1.723873   -2.223915
     75          1           0        0.783733   -2.042305    2.149431
     76          1           0        2.417519   -2.725342    2.218856
     77          1           0        0.563159   -4.282611    2.723934
     78          1           0        1.677691   -4.904713    1.561999
     79          1           0        0.497739    5.405024    0.491568
     80          1           0        0.044722    3.851634   -0.081947
     81          1           0        0.522224    5.091017   -1.208109
     82          1           0        1.820349    7.155248   -0.729149
     83          1           0        2.776162    8.395913    0.319958
     84          1           0        1.874236    7.181832    1.011726
     85          1           0        8.712741    4.662215    0.185689
     86          1           0        9.898366    2.545584   -1.389820
     87          1           0        8.583831    5.695795   -1.834264
     88          1           0        7.491611    4.273820   -2.478910
     89          1           0        9.202154    4.251473   -2.562739
     90          1           0       10.695724    3.631138    0.815293
     91          1           0       11.120082    1.920758    0.460202
     92          1           0        8.832139    1.851203    2.186037
     93          1           0       10.253417    2.680933    2.845430
     94          1           0       10.274965    1.037852    2.317215
     95          1           0        9.777973   -3.198841    0.233574
     96          1           0        9.709764   -2.308655   -1.388400
     97          1           0        9.032999   -3.847691   -1.252285
     98          1           0        3.946107   -4.338499    1.120670
     99          1           0        3.653232   -6.953393   -2.437747
    100          1           0        2.178389   -6.026581   -2.420485
    101          1           0        2.359115   -7.528748   -1.470630
    102          1           0       -3.363408   -4.660633    1.168103
    103          1           0       -2.607448   -4.797559   -0.375439
    104          1           0       -2.690466   -2.118532   -0.309219
    105          1           0       -6.600526   -3.488900    0.246359
    106          1           0       -6.181360   -3.013006    1.764187
    107          1           0       -5.276126   -4.347714    1.257775
    108          1           0       -6.093566   -1.091927   -0.567867
    109          1           0       -4.329990   -0.680232   -0.763498
    110          1           0       -4.595448    0.825904    0.894793
    111          1           0       -4.697089   -0.502055    1.936832
    112          1           0       -6.584131    0.206033    2.712239
    113          1           0       -7.301263   -0.514810    1.383297
    114          1           0       -6.572034    1.849739    0.246093
    115          1           0       -7.576901    3.424956    2.423357
    116          1           0       -5.860402    3.304386    1.995021
    117          1           0       -6.458991    2.293421    3.198234
    118          1           0       -9.146269    2.713238    0.706716
    119          1           0       -9.155083    1.400560    1.781961
    120          1           0       -8.462067    0.537261   -1.010321
    121          1           0       -9.851473    1.509427   -0.976403
    122          1           0       -9.586153   -1.123962    0.471626
    123          1           0      -10.596433   -0.847395   -0.929425
    124          1           0      -11.437005    1.197166    0.547947
    125          1           0      -10.661288   -0.976726    2.303650
    126          1           0      -12.388600   -0.482440    2.576534
    127          1           0      -11.102590    0.660250    2.565432
    128          1           0      -13.565276   -0.538583    0.829803
    129          1           0      -12.652202   -1.463220   -0.349035
    130          1           0      -12.842922   -0.183583   -2.079719
    131          1           0      -12.825558    1.392836   -1.243809
    132          1           0      -15.297977    0.099658   -0.493274
    133          1           0      -15.333627   -0.136359   -2.214287
    134          1           0      -14.842987    2.148605   -2.641528
    135          1           0      -16.736256    1.964547   -3.271322
    136          1           0      -17.308010    2.870541   -1.852312
    137          1           0      -17.425788    1.108122   -1.867112
    138          1           0      -16.059321    2.947211    0.011460
    139          1           0      -14.690065    3.744634   -0.753962
    140          1           0      -14.435666    2.249687    0.191283
 ---------------------------------------------------------------------

 SCF Done:  E(RwB97XD) =  -3007.87047651     A.U. after   18 cycles

 Excitation energies and oscillator strengths:

 Excited State   1:      Singlet-A      1.6887 eV  734.21 nm  f=0.3752  <S**2>=0.000
     245 -> 248        0.20555
     246 -> 247        0.67650
     245 <- 248        0.11985
 This state for optimization and/or second-order correction.
 Total Energy, E(TD-HF/TD-DFT) =  -3007.80841876
 Copying the excited state density for this state as the 1-particle RhoCI density.

 Excited State   2:      Singlet-A      2.1522 eV  576.09 nm  f=0.1196  <S**2>=0.000
     245 -> 247        0.63977
     246 -> 248       -0.28228

 Excited State   3:      Singlet-A      3.2725 eV  378.87 nm  f=0.0008  <S**2>=0.000
     244 -> 247        0.66816
     246 -> 248        0.13535

 Excited State   4:      Singlet-A      3.5267 eV  351.55 nm  f=0.5621  <S**2>=0.000
     241 -> 247       -0.11264
     242 -> 247        0.25106
     245 -> 247        0.25056
     246 -> 248        0.58385
     245 <- 247       -0.10872

 Excited State   5:      Singlet-A      3.6031 eV  344.11 nm  f=0.0075  <S**2>=0.000
     241 -> 247        0.51383
     241 -> 249       -0.34551
     241 -> 250       -0.22232
     242 -> 247        0.15956

 The electronic state is 1-A.
 Alpha  occ. eigenvalues --  -46.93681 -19.31898 -19.30433 -19.25981 -19.23936
 Alpha  occ. eigenvalues --  -19.23807 -19.23396 -14.46730 -14.46089 -14.44658
 Alpha  occ. eigenvalues --  -14.43031 -10.44431 -10.42234 -10.39359 -10.38461
 Alpha  occ. eigenvalues --  -10.36441 -10.35179 -10.35118 -10.34826 -10.34574
 Alpha  occ. eigenvalues --  -10.34497 -10.34429 -10.34146 -10.34121 -10.32814
 Alpha  occ. eigenvalues --  -10.32300 -10.32249 -10.32216 -10.32195 -10.32080
 Alpha  occ. eigenvalues --  -10.32054 -10.31870 -10.31779 -10.31646 -10.31635
 Alpha  occ. eigenvalues --  -10.31580 -10.31535 -10.31493 -10.31363 -10.31147
 Alpha  occ. eigenvalues --  -10.30515 -10.30463 -10.30413 -10.30379 -10.30099
 Alpha  occ. eigenvalues --  -10.30024 -10.29940 -10.29837 -10.29738 -10.29613
 Alpha  occ. eigenvalues --  -10.29556 -10.29538 -10.29507 -10.29481 -10.29405
 Alpha  occ. eigenvalues --  -10.29351 -10.29331 -10.29214 -10.29188 -10.28993
 Alpha  occ. eigenvalues --  -10.28906 -10.28906 -10.28778 -10.28160 -10.28087
 Alpha  occ. eigenvalues --  -10.27790  -3.19826  -1.93429  -1.92961  -1.92811
 Alpha  occ. eigenvalues --   -1.18869  -1.18682  -1.12742  -1.11719  -1.10715
 Alpha  occ. eigenvalues --   -1.09444  -1.06597  -1.05777  -1.04288  -1.03037
 Alpha  occ. eigenvalues --   -0.94361  -0.92494  -0.91886  -0.91497  -0.90601
 Alpha  occ. eigenvalues --   -0.90325  -0.90282  -0.89210  -0.88957  -0.88452
 Alpha  occ. eigenvalues --   -0.87190  -0.86922  -0.86028  -0.85687  -0.85008
 Alpha  occ. eigenvalues --   -0.84110  -0.83826  -0.83003  -0.82509  -0.82163
 Alpha  occ. eigenvalues --   -0.81817  -0.80243  -0.79649  -0.78734  -0.78600
 Alpha  occ. eigenvalues --   -0.77938  -0.77218  -0.77090  -0.76924  -0.76167
 Alpha  occ. eigenvalues --   -0.75284  -0.74255  -0.73465  -0.72541  -0.71754
 Alpha  occ. eigenvalues --   -0.70767  -0.70531  -0.69464  -0.69247  -0.68209
 Alpha  occ. eigenvalues --   -0.67509  -0.66818  -0.66644  -0.66260  -0.66024
 Alpha  occ. eigenvalues --   -0.65829  -0.65002  -0.64087  -0.63615  -0.62144
 Alpha  occ. eigenvalues --   -0.62079  -0.61484  -0.61080  -0.60092  -0.59889
 Alpha  occ. eigenvalues --   -0.59508  -0.58883  -0.57980  -0.57866  -0.57555
 Alpha  occ. eigenvalues --   -0.57074  -0.56739  -0.56378  -0.56048  -0.55784
 Alpha  occ. eigenvalues --   -0.55676  -0.55527  -0.54896  -0.54850  -0.54618
 Alpha  occ. eigenvalues --   -0.54424  -0.54416  -0.54117  -0.53811  -0.53595
 Alpha  occ. eigenvalues --   -0.53557  -0.53214  -0.52887  -0.52627  -0.52509
 Alpha  occ. eigenvalues --   -0.52392  -0.51977  -0.51661  -0.51474  -0.51433
 Alpha  occ. eigenvalues --   -0.51212  -0.51158  -0.50891  -0.50664  -0.50302
 Alpha  occ. eigenvalues --   -0.50200  -0.50076  -0.49918  -0.49873  -0.49349
 Alpha  occ. eigenvalues --   -0.49314  -0.48995  -0.48892  -0.48751  -0.48619
 Alpha  occ. eigenvalues --   -0.48319  -0.48168  -0.47814  -0.47413  -0.47389
 Alpha  occ. eigenvalues --   -0.47365  -0.47165  -0.47080  -0.46668  -0.46552
 Alpha  occ. eigenvalues --   -0.46459  -0.46423  -0.46230  -0.46125  -0.45854
 Alpha  occ. eigenvalues --   -0.45809  -0.45595  -0.45483  -0.45342  -0.44912
 Alpha  occ. eigenvalues --   -0.44841  -0.44358  -0.44275  -0.44121  -0.43980
 Alpha  occ. eigenvalues --   -0.43931  -0.43846  -0.43538  -0.43349  -0.43262
 Alpha  occ. eigenvalues --   -0.42922  -0.42861  -0.42783  -0.42573  -0.42416
 Alpha  occ. eigenvalues --   -0.42205  -0.41492  -0.41241  -0.41198  -0.40649
 Alpha  occ. eigenvalues --   -0.40231  -0.39912  -0.39574  -0.39376  -0.39199
 Alpha  occ. eigenvalues --   -0.38943  -0.38911  -0.38741  -0.38650  -0.38535
 Alpha  occ. eigenvalues --   -0.38487  -0.37996  -0.37873  -0.36626  -0.36487
 Alpha  occ. eigenvalues --   -0.36191  -0.35723  -0.35583  -0.33404  -0.32898
 Alpha  occ. eigenvalues --   -0.32805  -0.32379  -0.32138  -0.30991  -0.25574
 Alpha  occ. eigenvalues --   -0.23018
 Alpha virt. eigenvalues --   -0.06872   0.00095   0.02118   0.04269   0.05956
 Alpha virt. eigenvalues --    0.06854   0.07059   0.07942   0.08450   0.09216
 Alpha virt. eigenvalues --    0.10850   0.10988   0.11621   0.11973   0.12325

 Mulliken charges:
               1
     1  Mg   0.981590
     2  C   -0.061284
     3  C   -0.076892
     4  C   -0.063044
     5  C   -0.109283
     6  N   -0.317722
     7  C    0.008468
     8  C   -0.108079
     9  C   -0.100691
    10  C    0.051197
    11  C    0.007524
    12  C    0.019728
    13  C    0.028025
    14  C    0.219783
    15  O   -0.260130
    16  O   -0.356547
    17  N   -0.541399
    18  C    0.175566
    19  C   -0.150925
    20  C   -0.035806
    21  C    0.191478
    22  C    0.033164
    23  C    0.020966
    24  O   -0.227471
    25  C    0.002125
    26  N   -0.348412
    27  C    0.030243
    28  C   -0.123045
    29  C    0.006501
    30  C    0.017684
    31  C    0.038550
    32  C   -0.021817
    33  C   -0.078276
    34  N   -0.457416
    35  C    0.181909
    36  C   -0.181301
    37  C   -0.021263
    38  C    0.163468
    39  C    0.060488
    40  C    0.113272
    41  O   -0.202781
    42  C   -0.052269
    43  C    0.250466
    44  O   -0.260857
    45  O   -0.340924
    46  C    0.141341
    47  C    0.243763
    48  C   -0.149542
    49  C   -0.185400
    50  C    0.045538
    51  C    0.068526
    52  C   -0.032356
    53  C   -0.014812
    54  C   -0.158662
    55  C   -0.010293
    56  C   -0.010318
    57  C   -0.034912
    58  C    0.049916
    59  C   -0.231858
    60  C    0.012145
    61  C    0.002024
    62  C   -0.038083
    63  C    0.016439
    64  C   -0.239965
    65  C   -0.001006
    66  C   -0.008508
    67  H   -0.003692
    68  H    0.017275
    69  H   -0.010921
    70  H    0.071321
    71  H    0.027890
    72  H    0.039962
    73  H    0.030125
    74  H    0.063166
    75  H    0.043409
    76  H    0.043740
    77  H    0.053350
    78  H    0.062700
    79  H    0.033881
    80  H    0.029925
    81  H    0.065951
    82  H    0.053648
    83  H    0.050941
    84  H    0.047336
    85  H    0.039636
    86  H    0.030205
    87  H    0.054898
    88  H    0.052204
    89  H    0.022221
    90  H    0.038546
    91  H    0.039639
    92  H    0.039419
    93  H    0.034962
    94  H    0.032201
    95  H    0.056482
    96  H    0.038994
    97  H    0.054123
    98  H    0.060246
    99  H    0.052668
   100  H    0.071212
   101  H    0.050184
   102  H    0.025216
   103  H    0.073188
   104  H    0.003965
   105  H    0.042356
   106  H    0.028624
   107  H    0.031790
   108  H    0.026970
   109  H    0.025848
   110  H    0.021416
   111  H    0.020665
   112  H    0.017184
   113  H   -0.005459
   114  H    0.022178
   115  H    0.029783
   116  H    0.027598
   117  H    0.022938
   118  H    0.028131
   119  H    0.015046
   120  H    0.019045
   121  H    0.017977
   122  H    0.020169
   123  H    0.005150
   124  H    0.023715
   125  H    0.019714
   126  H    0.026207
   127  H    0.017891
   128  H    0.027072
   129  H    0.022040
   130  H    0.030883
   131  H    0.037495
   132  H    0.010916
   133  H    0.014793
   134  H    0.022454
   135  H    0.025954
   136  H    0.031298
   137  H    0.026671
   138  H    0.026818
   139  H    0.034035
   140  H    0.025877
 Sum of Mulliken charges =  -0.00000

 Dipole moment (field-independent basis, Debye):
    X=             -4.6955    Y=              2.5200    Z=              1.3371  Tot=              5.4942
 Quadrupole moment (field-independent basis, Debye-Ang):
   XX=           -378.9060   YY=           -420.7981   ZZ=           -403.4382
   XY=             18.6358   XZ=             -2.3620   YZ=             -7.8572

 Normal termination of Gaussian 16 at Wed May  4 10:16:51 2022.
