 Gaussian 16, Revision A.03,
 Gaussian 16:  ES64L-G16RevA.03 25-Dec-2016

 --------------------
 #p ZINDO=(nstates=5)
 --------------------

 -----------------------------
 step_1551_chromophore_6 ZINDO
 -----------------------------
 Symbolic Z-matrix:
 Charge =  0 Multiplicity = 1

                         Standard orientation:
 ---------------------------------------------------------------------
 Center     Atomic      Atomic             Coordinates (Angstroms)
 Number     Number       Type             X           Y           Z
 ---------------------------------------------------------------------
      1         12           0        5.125156    1.015613    0.019391
      2          6           0        4.397508   -2.415974    0.177324
      3          6           0        1.723435    1.619214   -0.102207
      4          6           0        5.909810    4.186646   -0.145744
      5          6           0        8.491915    0.170942   -0.360952
      6          7           0        3.314505   -0.249937    0.108253
      7          6           0        3.265517   -1.569113    0.270834
      8          6           0        1.851835   -2.104407    0.281718
      9          6           0        0.997923   -0.889591   -0.180022
     10          6           0        2.061488    0.250837   -0.057611
     11          6           0        0.231380   -0.874653   -1.605808
     12          6           0        1.488182   -2.707393    1.649908
     13          6           0        0.916019   -4.137006    1.703421
     14          6           0       -0.265707   -4.267246    0.676398
     15          8           0       -0.167321   -4.777207   -0.440492
     16          8           0       -1.446341   -3.866812    1.287130
     17          7           0        4.037001    2.677200   -0.026530
     18          6           0        2.628122    2.727695   -0.117414
     19          6           0        2.235648    4.170836   -0.027661
     20          6           0        3.432840    4.985529    0.024502
     21          6           0        4.537725    3.982355   -0.066935
     22          6           0        0.769957    4.648343   -0.244106
     23          6           0        3.621612    6.448570    0.144723
     24          8           0        4.705813    6.957598    0.338530
     25          6           0        2.470776    7.368722    0.118872
     26          7           0        6.987014    2.001846   -0.268350
     27          6           0        7.011647    3.373930   -0.230150
     28          6           0        8.388875    3.933502   -0.557597
     29          6           0        9.319668    2.683863   -0.475737
     30          6           0        8.233445    1.550145   -0.480557
     31          6           0        8.379598    4.632268   -1.958152
     32          6           0       10.310316    2.626305    0.643493
     33          6           0        9.900027    2.025677    2.049054
     34          7           0        6.286771   -0.706612   -0.091687
     35          6           0        7.633141   -0.901448   -0.171971
     36          6           0        7.916467   -2.292668   -0.190669
     37          6           0        6.634770   -2.996629   -0.023170
     38          6           0        5.728837   -1.988198    0.066147
     39          6           0        9.209127   -2.948096   -0.661624
     40          6           0        5.970377   -4.278272    0.049956
     41          8           0        6.403173   -5.424490    0.087128
     42          6           0        4.424163   -3.996777    0.202621
     43          6           0        3.708025   -4.599234   -0.919204
     44          8           0        3.575697   -4.077179   -2.013743
     45          8           0        3.314763   -5.840954   -0.590985
     46          6           0        2.848729   -6.607701   -1.787250
     47          6           0       -2.642326   -4.169157    0.515405
     48          6           0       -3.404941   -2.877543    0.012338
     49          6           0       -4.697324   -2.493182    0.252180
     50          6           0       -5.709137   -3.424522    0.871398
     51          6           0       -5.103976   -1.081943   -0.109618
     52          6           0       -5.179273   -0.079919    1.055049
     53          6           0       -6.581181    0.268138    1.623726
     54          6           0       -7.160067    1.661238    1.144607
     55          6           0       -6.753899    2.731995    2.245487
     56          6           0       -8.749094    1.704639    0.816814
     57          6           0       -9.264302    0.846733   -0.341035
     58          6           0      -10.167067   -0.364264   -0.051541
     59          6           0      -11.460011    0.107935    0.591707
     60          6           0      -11.445756   -0.253783    2.079668
     61          6           0      -12.846335   -0.453977    0.014853
     62          6           0      -13.252016    0.389305   -1.246828
     63          6           0      -14.856905    0.448346   -1.428133
     64          6           0      -15.359906    1.843366   -1.731009
     65          6           0      -16.817565    1.955854   -2.183753
     66          6           0      -15.106305    2.772915   -0.489433
     67          1           0        0.666793    1.888513   -0.158446
     68          1           0        6.281580    5.212512   -0.098871
     69          1           0        9.553844   -0.076702   -0.419922
     70          1           0        1.844948   -2.792218   -0.563091
     71          1           0        0.158794   -0.651505    0.472452
     72          1           0        0.389485    0.088620   -2.090595
     73          1           0       -0.844792   -0.971307   -1.461783
     74          1           0        0.520933   -1.723873   -2.223915
     75          1           0        0.783733   -2.042305    2.149431
     76          1           0        2.417519   -2.725342    2.218856
     77          1           0        0.563159   -4.282611    2.723934
     78          1           0        1.677691   -4.904713    1.561999
     79          1           0        0.497739    5.405024    0.491568
     80          1           0        0.044722    3.851634   -0.081947
     81          1           0        0.522224    5.091017   -1.208109
     82          1           0        1.820349    7.155248   -0.729149
     83          1           0        2.776162    8.395913    0.319958
     84          1           0        1.874236    7.181832    1.011726
     85          1           0        8.712741    4.662215    0.185689
     86          1           0        9.898366    2.545584   -1.389820
     87          1           0        8.583831    5.695795   -1.834264
     88          1           0        7.491611    4.273820   -2.478910
     89          1           0        9.202154    4.251473   -2.562739
     90          1           0       10.695724    3.631138    0.815293
     91          1           0       11.120082    1.920758    0.460202
     92          1           0        8.832139    1.851203    2.186037
     93          1           0       10.253417    2.680933    2.845430
     94          1           0       10.274965    1.037852    2.317215
     95          1           0        9.777973   -3.198841    0.233574
     96          1           0        9.709764   -2.308655   -1.388400
     97          1           0        9.032999   -3.847691   -1.252285
     98          1           0        3.946107   -4.338499    1.120670
     99          1           0        3.653232   -6.953393   -2.437747
    100          1           0        2.178389   -6.026581   -2.420485
    101          1           0        2.359115   -7.528748   -1.470630
    102          1           0       -3.363408   -4.660633    1.168103
    103          1           0       -2.607448   -4.797559   -0.375439
    104          1           0       -2.690466   -2.118532   -0.309219
    105          1           0       -6.600526   -3.488900    0.246359
    106          1           0       -6.181360   -3.013006    1.764187
    107          1           0       -5.276126   -4.347714    1.257775
    108          1           0       -6.093566   -1.091927   -0.567867
    109          1           0       -4.329990   -0.680232   -0.763498
    110          1           0       -4.595448    0.825904    0.894793
    111          1           0       -4.697089   -0.502055    1.936832
    112          1           0       -6.584131    0.206033    2.712239
    113          1           0       -7.301263   -0.514810    1.383297
    114          1           0       -6.572034    1.849739    0.246093
    115          1           0       -7.576901    3.424956    2.423357
    116          1           0       -5.860402    3.304386    1.995021
    117          1           0       -6.458991    2.293421    3.198234
    118          1           0       -9.146269    2.713238    0.706716
    119          1           0       -9.155083    1.400560    1.781961
    120          1           0       -8.462067    0.537261   -1.010321
    121          1           0       -9.851473    1.509427   -0.976403
    122          1           0       -9.586153   -1.123962    0.471626
    123          1           0      -10.596433   -0.847395   -0.929425
    124          1           0      -11.437005    1.197166    0.547947
    125          1           0      -10.661288   -0.976726    2.303650
    126          1           0      -12.388600   -0.482440    2.576534
    127          1           0      -11.102590    0.660250    2.565432
    128          1           0      -13.565276   -0.538583    0.829803
    129          1           0      -12.652202   -1.463220   -0.349035
    130          1           0      -12.842922   -0.183583   -2.079719
    131          1           0      -12.825558    1.392836   -1.243809
    132          1           0      -15.297977    0.099658   -0.493274
    133          1           0      -15.333627   -0.136359   -2.214287
    134          1           0      -14.842987    2.148605   -2.641528
    135          1           0      -16.736256    1.964547   -3.271322
    136          1           0      -17.308010    2.870541   -1.852312
    137          1           0      -17.425788    1.108122   -1.867112
    138          1           0      -16.059321    2.947211    0.011460
    139          1           0      -14.690065    3.744634   -0.753962
    140          1           0      -14.435666    2.249687    0.191283
 ---------------------------------------------------------------------

 SCF Done:  E(RZINDO/S) =  -474.078805983     A.U. after   19 cycles

 Excitation energies and oscillator strengths:

 Excited State   1:      Singlet-A      1.2727 eV  974.19 nm  f=0.5883  <S**2>=0.000
     175 ->178        -0.21084
     176 ->177         0.65631
 This state for optimization and/or second-order correction.
 Total Energy, E(CIS/TDA) =  -474.032035466
 Copying the excited state density for this state as the 1-particle RhoCI density.

 Excited State   2:      Singlet-A      1.8858 eV  657.47 nm  f=0.0543  <S**2>=0.000
     175 ->177         0.55196
     176 ->178         0.41772

 Excited State   3:      Singlet-A      2.9281 eV  423.44 nm  f=0.0001  <S**2>=0.000
     168 ->177         0.19219
     168 ->179        -0.24003
     168 ->180         0.10091
     168 ->181         0.17029
     168 ->186        -0.13500
     168 ->187        -0.11017
     169 ->177         0.25804
     169 ->179        -0.30195
     169 ->180         0.13208
     169 ->181         0.22448
     169 ->186        -0.16901
     169 ->187        -0.14447

 Excited State   4:      Singlet-A      3.0032 eV  412.84 nm  f=1.2046  <S**2>=0.000
     175 ->177        -0.39236
     176 ->178         0.52947

 Excited State   5:      Singlet-A      3.0149 eV  411.23 nm  f=0.0088  <S**2>=0.000
     170 ->181        -0.11098
     174 ->177        -0.12689
     176 ->179         0.60475

 The electronic state is 1-A.
 Alpha  occ. eigenvalues --   -1.83863  -1.81535  -1.78332  -1.73387  -1.71464
 Alpha  occ. eigenvalues --   -1.69137  -1.65435  -1.60832  -1.59574  -1.57810
 Alpha  occ. eigenvalues --   -1.56402  -1.50268  -1.48516  -1.47239  -1.45683
 Alpha  occ. eigenvalues --   -1.43895  -1.42933  -1.39852  -1.37614  -1.37486
 Alpha  occ. eigenvalues --   -1.35434  -1.32238  -1.31745  -1.30965  -1.27912
 Alpha  occ. eigenvalues --   -1.27570  -1.24967  -1.21811  -1.19687  -1.17576
 Alpha  occ. eigenvalues --   -1.17149  -1.16719  -1.15538  -1.15076  -1.14094
 Alpha  occ. eigenvalues --   -1.12972  -1.11115  -1.10795  -1.04732  -1.03710
 Alpha  occ. eigenvalues --   -1.01933  -1.00934  -0.98798  -0.97598  -0.96846
 Alpha  occ. eigenvalues --   -0.95745  -0.94691  -0.94385  -0.93786  -0.92796
 Alpha  occ. eigenvalues --   -0.90798  -0.90149  -0.89959  -0.87848  -0.86736
 Alpha  occ. eigenvalues --   -0.85353  -0.84656  -0.82941  -0.81080  -0.80694
 Alpha  occ. eigenvalues --   -0.80292  -0.78299  -0.76302  -0.76069  -0.75531
 Alpha  occ. eigenvalues --   -0.75091  -0.74709  -0.74408  -0.73696  -0.73366
 Alpha  occ. eigenvalues --   -0.73084  -0.72729  -0.71972  -0.71431  -0.71113
 Alpha  occ. eigenvalues --   -0.70619  -0.69860  -0.69106  -0.68531  -0.68359
 Alpha  occ. eigenvalues --   -0.68035  -0.66502  -0.66407  -0.65748  -0.65537
 Alpha  occ. eigenvalues --   -0.65033  -0.64420  -0.63912  -0.63614  -0.63251
 Alpha  occ. eigenvalues --   -0.63083  -0.62780  -0.62517  -0.61959  -0.61736
 Alpha  occ. eigenvalues --   -0.61462  -0.60838  -0.60156  -0.59945  -0.59818
 Alpha  occ. eigenvalues --   -0.59620  -0.59364  -0.58766  -0.58378  -0.58173
 Alpha  occ. eigenvalues --   -0.57884  -0.57698  -0.57207  -0.56125  -0.55892
 Alpha  occ. eigenvalues --   -0.55799  -0.55219  -0.55048  -0.54738  -0.54242
 Alpha  occ. eigenvalues --   -0.53978  -0.53737  -0.53615  -0.53122  -0.52802
 Alpha  occ. eigenvalues --   -0.52408  -0.52314  -0.52221  -0.51885  -0.51553
 Alpha  occ. eigenvalues --   -0.51360  -0.51056  -0.51025  -0.50414  -0.49907
 Alpha  occ. eigenvalues --   -0.49827  -0.49718  -0.49265  -0.49125  -0.48990
 Alpha  occ. eigenvalues --   -0.48726  -0.48388  -0.48090  -0.47776  -0.47484
 Alpha  occ. eigenvalues --   -0.47186  -0.46703  -0.46633  -0.46471  -0.46236
 Alpha  occ. eigenvalues --   -0.46130  -0.45747  -0.45527  -0.45260  -0.45167
 Alpha  occ. eigenvalues --   -0.45153  -0.44927  -0.44774  -0.44746  -0.44355
 Alpha  occ. eigenvalues --   -0.44201  -0.44007  -0.43727  -0.42681  -0.42179
 Alpha  occ. eigenvalues --   -0.42024  -0.41992  -0.41150  -0.39347  -0.38825
 Alpha  occ. eigenvalues --   -0.37670  -0.37054  -0.35236  -0.35083  -0.34849
 Alpha  occ. eigenvalues --   -0.33354  -0.32438  -0.32359  -0.31347  -0.26097
 Alpha  occ. eigenvalues --   -0.21780
 Alpha virt. eigenvalues --   -0.08373  -0.02205  -0.00700   0.01164   0.01208
 Alpha virt. eigenvalues --    0.02835   0.03336   0.03703   0.03771   0.05218
 Alpha virt. eigenvalues --    0.06487   0.07106   0.07279   0.07992   0.08235

 Mulliken charges:
               1
     1  Mg   0.420808
     2  C   -0.055424
     3  C   -0.075624
     4  C   -0.055197
     5  C   -0.057504
     6  N   -0.259777
     7  C    0.130792
     8  C    0.007992
     9  C   -0.007325
    10  C    0.130323
    11  C   -0.052278
    12  C   -0.013590
    13  C    0.006087
    14  C    0.465200
    15  O   -0.507884
    16  O   -0.255922
    17  N   -0.328597
    18  C    0.099446
    19  C    0.003176
    20  C   -0.044010
    21  C    0.141198
    22  C   -0.046063
    23  C    0.340637
    24  O   -0.526436
    25  C   -0.030878
    26  N   -0.263984
    27  C    0.142846
    28  C    0.006332
    29  C    0.013524
    30  C    0.111874
    31  C   -0.053329
    32  C   -0.022437
    33  C   -0.063960
    34  N   -0.349588
    35  C    0.118525
    36  C    0.013997
    37  C   -0.054170
    38  C    0.113834
    39  C   -0.041681
    40  C    0.346669
    41  O   -0.521080
    42  C    0.047539
    43  C    0.500425
    44  O   -0.533886
    45  O   -0.253907
    46  C    0.074064
    47  C    0.095067
    48  C   -0.107905
    49  C    0.006601
    50  C   -0.045994
    51  C   -0.010132
    52  C   -0.029033
    53  C   -0.035429
    54  C   -0.018521
    55  C   -0.062103
    56  C   -0.031206
    57  C   -0.027071
    58  C   -0.028478
    59  C   -0.017214
    60  C   -0.067346
    61  C   -0.040661
    62  C   -0.040097
    63  C   -0.038418
    64  C   -0.014552
    65  C   -0.058577
    66  C   -0.060469
    67  H    0.031407
    68  H    0.031642
    69  H    0.013383
    70  H    0.051295
    71  H    0.023674
    72  H    0.026090
    73  H    0.017709
    74  H    0.035859
    75  H    0.027308
    76  H    0.021373
    77  H    0.031397
    78  H    0.045849
    79  H    0.021750
    80  H    0.020909
    81  H    0.034969
    82  H    0.038380
    83  H    0.042665
    84  H    0.031001
    85  H    0.031180
    86  H    0.025388
    87  H    0.034325
    88  H    0.035723
    89  H    0.011492
    90  H    0.021966
    91  H    0.021043
    92  H    0.020829
    93  H    0.013861
    94  H    0.019413
    95  H    0.036752
    96  H    0.024171
    97  H    0.030975
    98  H    0.054184
    99  H    0.042192
   100  H    0.052541
   101  H    0.028175
   102  H    0.030459
   103  H    0.062414
   104  H    0.026297
   105  H    0.032852
   106  H    0.019426
   107  H    0.031974
   108  H    0.025890
   109  H    0.023265
   110  H    0.023022
   111  H    0.009834
   112  H    0.017183
   113  H    0.011526
   114  H    0.020264
   115  H    0.018265
   116  H    0.015907
   117  H    0.019285
   118  H    0.022701
   119  H    0.017751
   120  H    0.010923
   121  H    0.010394
   122  H    0.024519
   123  H    0.015647
   124  H    0.023591
   125  H    0.018934
   126  H    0.022744
   127  H    0.004098
   128  H    0.031786
   129  H    0.017123
   130  H    0.018084
   131  H    0.032453
   132  H    0.015621
   133  H    0.019362
   134  H    0.017094
   135  H    0.012882
   136  H    0.020410
   137  H    0.018823
   138  H    0.019249
   139  H    0.018913
   140  H    0.018945
 Sum of Mulliken charges =  -0.00000

 Dipole moment (field-independent basis, Debye):
    X=             -6.8004    Y=              4.0621    Z=              3.2645  Tot=              8.5675
 N-N= 4.357616834869D+03 E-N= 0.000000000000D+00  KE=-9.389642054384D+03
 Leave Link  601 at Wed May  4 10:29:57 2022, MaxMem=  6710886400 cpu:               1.0 elap:               0.1
 (Enter /sw/apps/gaussian-16.0/g16/l9999.exe)
 1\1\GINC-BP1-COMPUTE098\SP\RZINDO CIS\STO-3G\C55H74Mg1N4O6\OF15641\04-
 May-2022\0\\#p ZINDO=(nstates=5)\\step_1551_chromophore_6 ZINDO\\0,1\M
 g,0,17.468,-2.526,28.596\C,0,16.233,-0.493,31.179\C,0,19.371,-4.183,30
 .959\C,0,18.573,-4.35,26.116\C,0,15.873,-0.412,26.32\N,0,17.693,-2.387
 ,30.791\C,0,17.033,-1.578,31.615\C,0,17.445,-1.752,33.059\C,0,18.708,-
 2.655,32.972\C,0,18.606,-3.12,31.482\C,0,20.182,-2.104,33.352\C,0,16.2
 85,-2.29,33.915\C,0,15.903,-1.539,35.205\C,0,17.193,-1.285,36.065\O,0,

 Normal termination of Gaussian 16 at Wed May  4 10:29:57 2022.
