 Gaussian 16, Revision A.03,
 Gaussian 16:  ES64L-G16RevA.03 25-Dec-2016

 ------------------------------
 #p blyp/Def2SVP td=(nstates=5)
 ------------------------------

 -------------------------------------------------
 step_651_chromophore_9 TDDFT with blyp functional
 -------------------------------------------------
 Symbolic Z-matrix:
 Charge =  0 Multiplicity = 1

                         Standard orientation:
 ---------------------------------------------------------------------
 Center     Atomic      Atomic             Coordinates (Angstroms)
 Number     Number       Type             X           Y           Z
 ---------------------------------------------------------------------
      1         12           0       -5.020064    0.723411   -0.045614
      2          6           0       -3.806073   -2.474051    0.199923
      3          6           0       -1.662261    1.837145   -0.216156
      4          6           0       -6.093470    3.936717    0.193072
      5          6           0       -8.279011   -0.474306    0.388998
      6          7           0       -2.980452   -0.226730    0.155137
      7          6           0       -2.774916   -1.573376    0.073279
      8          6           0       -1.269791   -1.862591   -0.053027
      9          6           0       -0.551346   -0.490654    0.082000
     10          6           0       -1.756286    0.443769    0.030327
     11          6           0        0.585466   -0.310982    1.164592
     12          6           0       -0.945735   -2.606767   -1.482383
     13          6           0        0.176177   -3.723830   -1.353540
     14          6           0        1.154744   -3.557841   -0.225860
     15          8           0        1.106813   -4.161615    0.774354
     16          8           0        2.191810   -2.733101   -0.577326
     17          7           0       -4.008059    2.555369   -0.149582
     18          6           0       -2.666226    2.812001   -0.283650
     19          6           0       -2.456006    4.259796   -0.430217
     20          6           0       -3.748404    4.887126   -0.195559
     21          6           0       -4.680645    3.766426   -0.039002
     22          6           0       -1.104215    4.848278   -0.677453
     23          6           0       -4.121542    6.400203   -0.113084
     24          8           0       -5.227113    6.797083    0.216357
     25          6           0       -3.062392    7.354458   -0.370673
     26          7           0       -6.937007    1.578662    0.111058
     27          6           0       -7.115551    2.946927    0.181209
     28          6           0       -8.636621    3.295517    0.190351
     29          6           0       -9.318902    1.945416    0.254608
     30          6           0       -8.099417    0.893194    0.288851
     31          6           0       -9.068790    4.390202    1.266650
     32          6           0      -10.328330    1.793494   -0.916793
     33          6           0       -9.592700    1.680659   -2.268165
     34          7           0       -5.899047   -1.146034    0.215010
     35          6           0       -7.220567   -1.484549    0.336526
     36          6           0       -7.268490   -2.883181    0.546511
     37          6           0       -5.929285   -3.337247    0.397369
     38          6           0       -5.141043   -2.227634    0.251793
     39          6           0       -8.575774   -3.762408    0.806192
     40          6           0       -5.106852   -4.477897    0.365944
     41          8           0       -5.433149   -5.683900    0.485705
     42          6           0       -3.677012   -4.046929    0.091065
     43          6           0       -2.786164   -4.731242    1.101529
     44          8           0       -2.824922   -4.489041    2.283395
     45          8           0       -1.950842   -5.663592    0.487001
     46          6           0       -1.026988   -6.421001    1.387589
     47          6           0        3.303196   -2.612836    0.413480
     48          6           0        4.538687   -1.924566   -0.072214
     49          6           0        5.379240   -2.347834   -1.053506
     50          6           0        5.385695   -3.760835   -1.601043
     51          6           0        6.624661   -1.603964   -1.379560
     52          6           0        6.592884   -1.173153   -2.851490
     53          6           0        7.872552   -1.463326   -3.622766
     54          6           0        8.710180   -0.218656   -3.991460
     55          6           0        9.714091   -0.523248   -5.143583
     56          6           0        9.536579    0.195785   -2.647082
     57          6           0        9.427373    1.679621   -2.452647
     58          6           0       10.566902    2.264780   -1.670579
     59          6           0       10.209984    2.804683   -0.203061
     60          6           0       10.087721    4.366802   -0.154429
     61          6           0       11.238077    2.338833    0.887812
     62          6           0       10.711280    2.596314    2.417855
     63          6           0       10.201407    1.383455    3.281889
     64          6           0       11.069951    0.897450    4.420919
     65          6           0       10.832195   -0.587906    4.796625
     66          6           0       11.155698    1.874258    5.685809
     67          1           0       -0.648892    2.237141   -0.290552
     68          1           0       -6.473043    4.960695    0.175824
     69          1           0       -9.277760   -0.807432    0.677806
     70          1           0       -1.046925   -2.461155    0.829990
     71          1           0        0.076967   -0.256650   -0.777847
     72          1           0        1.531559   -0.031689    0.702387
     73          1           0        0.800327   -1.236006    1.699394
     74          1           0        0.350210    0.499569    1.854164
     75          1           0       -0.705703   -1.902586   -2.278219
     76          1           0       -1.844522   -3.091176   -1.865305
     77          1           0        0.707822   -3.821365   -2.300317
     78          1           0       -0.277260   -4.700805   -1.183672
     79          1           0       -1.348507    5.590161   -1.437042
     80          1           0       -0.344790    4.174134   -1.072849
     81          1           0       -0.813129    5.371914    0.231976
     82          1           0       -2.608255    7.450457   -1.357002
     83          1           0       -2.243409    7.095383    0.300057
     84          1           0       -3.399889    8.339585   -0.046882
     85          1           0       -8.916994    3.840741   -0.710633
     86          1           0       -9.887188    1.880190    1.182107
     87          1           0       -9.582750    5.155999    0.685849
     88          1           0       -8.207988    4.927976    1.664210
     89          1           0       -9.601926    4.021876    2.142987
     90          1           0      -11.074084    2.586118   -0.979774
     91          1           0      -10.868018    0.865257   -0.726031
     92          1           0       -9.637131    0.615939   -2.495999
     93          1           0       -8.563629    2.039728   -2.246554
     94          1           0      -10.072672    2.290730   -3.033649
     95          1           0       -8.867620   -4.252910   -0.122641
     96          1           0       -9.411778   -3.166532    1.171177
     97          1           0       -8.289207   -4.605440    1.435214
     98          1           0       -3.326635   -4.317436   -0.905779
     99          1           0       -1.492460   -7.312980    1.807267
    100          1           0       -0.733119   -5.802337    2.235308
    101          1           0       -0.165979   -6.859475    0.883535
    102          1           0        3.566053   -3.610829    0.765839
    103          1           0        3.112577   -2.053630    1.328716
    104          1           0        4.684876   -0.969304    0.432040
    105          1           0        4.681691   -4.419932   -1.090888
    106          1           0        6.412691   -4.082360   -1.427119
    107          1           0        5.101815   -3.820667   -2.651191
    108          1           0        7.485032   -2.155748   -1.001708
    109          1           0        6.554013   -0.674313   -0.813763
    110          1           0        6.467874   -0.090433   -2.812107
    111          1           0        5.690743   -1.534325   -3.345472
    112          1           0        7.529598   -1.915386   -4.554455
    113          1           0        8.512574   -2.152729   -3.071421
    114          1           0        8.070985    0.558068   -4.412026
    115          1           0        9.445828    0.120864   -5.981729
    116          1           0        9.578902   -1.449060   -5.704243
    117          1           0       10.789917   -0.387659   -5.032837
    118          1           0       10.573050   -0.059771   -2.871022
    119          1           0        9.067809   -0.320725   -1.809287
    120          1           0        8.579694    1.899104   -1.804208
    121          1           0        9.220597    2.303313   -3.321783
    122          1           0       11.036663    3.060979   -2.246809
    123          1           0       11.372208    1.557535   -1.472284
    124          1           0        9.294911    2.296961    0.101376
    125          1           0       10.957150    4.906193    0.221849
    126          1           0        9.257598    4.341956    0.551212
    127          1           0        9.799927    4.777499   -1.122348
    128          1           0       12.188361    2.734039    0.529475
    129          1           0       11.265365    1.249525    0.881050
    130          1           0        9.842990    3.254389    2.440778
    131          1           0       11.495968    3.101774    2.979919
    132          1           0       10.087945    0.555803    2.582909
    133          1           0        9.235403    1.560847    3.756106
    134          1           0       12.100147    0.753317    4.093328
    135          1           0       10.710775   -1.096579    3.839880
    136          1           0       10.010857   -0.816636    5.475818
    137          1           0       11.718014   -1.000758    5.278890
    138          1           0       10.689092    1.497602    6.596284
    139          1           0       10.764911    2.878125    5.518709
    140          1           0       12.198111    1.965882    5.991439
 ---------------------------------------------------------------------

 SCF Done:  E(RB-LYP) =  -3007.37222658     A.U. after   21 cycles

 Excitation energies and oscillator strengths:

 Excited State   1:      Singlet-A      1.6038 eV  773.05 nm  f=0.0005  <S**2>=0.000
     244 -> 247        0.69059
     245 -> 247        0.14929
 This state for optimization and/or second-order correction.
 Total Energy, E(TD-HF/TD-DFT) =  -3007.31328680
 Copying the excited state density for this state as the 1-particle RhoCI density.

 Excited State   2:      Singlet-A      1.8230 eV  680.11 nm  f=0.3150  <S**2>=0.000
     245 -> 248       -0.17064
     246 -> 247        0.69205
     246 <- 247       -0.15136

 Excited State   3:      Singlet-A      2.0330 eV  609.86 nm  f=0.0912  <S**2>=0.000
     244 -> 247       -0.14001
     245 -> 247        0.63868
     246 -> 248        0.21664
     246 -> 249        0.10379

 Excited State   4:      Singlet-A      2.1703 eV  571.27 nm  f=0.0011  <S**2>=0.000
     243 -> 247        0.70454

 Excited State   5:      Singlet-A      2.4058 eV  515.36 nm  f=0.0054  <S**2>=0.000
     242 -> 247        0.69202

 The electronic state is 1-A.
 Alpha  occ. eigenvalues --  -46.26809 -18.82125 -18.81479 -18.77381 -18.76326
 Alpha  occ. eigenvalues --  -18.76159 -18.74064 -14.03329 -14.03151 -14.01247
 Alpha  occ. eigenvalues --  -14.00239 -10.03812 -10.03316 -10.00588  -9.98101
 Alpha  occ. eigenvalues --   -9.97763  -9.96998  -9.96746  -9.96578  -9.96367
 Alpha  occ. eigenvalues --   -9.96287  -9.96226  -9.95771  -9.95374  -9.94606
 Alpha  occ. eigenvalues --   -9.94579  -9.94549  -9.94265  -9.93656  -9.93652
 Alpha  occ. eigenvalues --   -9.93603  -9.93423  -9.93336  -9.93334  -9.93301
 Alpha  occ. eigenvalues --   -9.93243  -9.93241  -9.93218  -9.93187  -9.93026
 Alpha  occ. eigenvalues --   -9.92782  -9.92697  -9.92674  -9.92404  -9.92361
 Alpha  occ. eigenvalues --   -9.92350  -9.92333  -9.92317  -9.92247  -9.92207
 Alpha  occ. eigenvalues --   -9.92190  -9.92149  -9.92116  -9.91995  -9.91884
 Alpha  occ. eigenvalues --   -9.91805  -9.91607  -9.91449  -9.91239  -9.91217
 Alpha  occ. eigenvalues --   -9.91086  -9.91045  -9.91027  -9.90965  -9.90723
 Alpha  occ. eigenvalues --   -9.89906  -2.91403  -1.71847  -1.71286  -1.71102
 Alpha  occ. eigenvalues --   -0.99232  -0.96192  -0.92497  -0.91358  -0.89208
 Alpha  occ. eigenvalues --   -0.88616  -0.86848  -0.85252  -0.85021  -0.84228
 Alpha  occ. eigenvalues --   -0.75702  -0.74737  -0.72995  -0.71989  -0.71842
 Alpha  occ. eigenvalues --   -0.71787  -0.71439  -0.70912  -0.70667  -0.70280
 Alpha  occ. eigenvalues --   -0.69234  -0.68744  -0.68185  -0.67160  -0.66816
 Alpha  occ. eigenvalues --   -0.66639  -0.66057  -0.65149  -0.64741  -0.64297
 Alpha  occ. eigenvalues --   -0.64183  -0.62554  -0.62395  -0.61226  -0.61002
 Alpha  occ. eigenvalues --   -0.60299  -0.60290  -0.59792  -0.59667  -0.59298
 Alpha  occ. eigenvalues --   -0.58433  -0.57597  -0.56787  -0.56119  -0.54622
 Alpha  occ. eigenvalues --   -0.54424  -0.53862  -0.53013  -0.52604  -0.51211
 Alpha  occ. eigenvalues --   -0.51081  -0.50765  -0.50472  -0.50296  -0.50037
 Alpha  occ. eigenvalues --   -0.49751  -0.49336  -0.48286  -0.47787  -0.46610
 Alpha  occ. eigenvalues --   -0.46328  -0.45745  -0.45616  -0.44941  -0.44105
 Alpha  occ. eigenvalues --   -0.44000  -0.43762  -0.43086  -0.42600  -0.42167
 Alpha  occ. eigenvalues --   -0.42120  -0.41790  -0.41657  -0.41370  -0.41261
 Alpha  occ. eigenvalues --   -0.41100  -0.40772  -0.40585  -0.40285  -0.40165
 Alpha  occ. eigenvalues --   -0.39780  -0.39673  -0.39642  -0.39154  -0.39027
 Alpha  occ. eigenvalues --   -0.38923  -0.38679  -0.38474  -0.38344  -0.38147
 Alpha  occ. eigenvalues --   -0.37991  -0.37919  -0.37717  -0.37209  -0.37139
 Alpha  occ. eigenvalues --   -0.37024  -0.36765  -0.36656  -0.36528  -0.36496
 Alpha  occ. eigenvalues --   -0.36087  -0.35946  -0.35644  -0.35455  -0.35405
 Alpha  occ. eigenvalues --   -0.35379  -0.35227  -0.35192  -0.34928  -0.34825
 Alpha  occ. eigenvalues --   -0.34558  -0.34350  -0.34286  -0.34175  -0.33929
 Alpha  occ. eigenvalues --   -0.33689  -0.33379  -0.33283  -0.33240  -0.33025
 Alpha  occ. eigenvalues --   -0.32890  -0.32782  -0.32558  -0.32258  -0.32174
 Alpha  occ. eigenvalues --   -0.32026  -0.31736  -0.31561  -0.31466  -0.31440
 Alpha  occ. eigenvalues --   -0.31109  -0.31016  -0.31003  -0.30723  -0.30594
 Alpha  occ. eigenvalues --   -0.30451  -0.30414  -0.30170  -0.30111  -0.29735
 Alpha  occ. eigenvalues --   -0.29535  -0.29424  -0.29264  -0.29029  -0.28961
 Alpha  occ. eigenvalues --   -0.28811  -0.28567  -0.28358  -0.28220  -0.28114
 Alpha  occ. eigenvalues --   -0.27885  -0.27676  -0.27627  -0.26528  -0.26351
 Alpha  occ. eigenvalues --   -0.26210  -0.25905  -0.25809  -0.25695  -0.25539
 Alpha  occ. eigenvalues --   -0.25338  -0.24793  -0.24235  -0.23820  -0.23282
 Alpha  occ. eigenvalues --   -0.23156  -0.22980  -0.22005  -0.21265  -0.21065
 Alpha  occ. eigenvalues --   -0.20569  -0.19929  -0.19593  -0.17499  -0.17282
 Alpha  occ. eigenvalues --   -0.15991
 Alpha virt. eigenvalues --   -0.11696  -0.06695  -0.06009  -0.04633  -0.03906
 Alpha virt. eigenvalues --   -0.02502  -0.02056  -0.01678  -0.00964  -0.00262
 Alpha virt. eigenvalues --    0.01442   0.01536   0.01886   0.02529   0.02863

 Mulliken charges:
               1
     1  Mg   0.689401
     2  C   -0.000754
     3  C   -0.070630
     4  C   -0.044922
     5  C   -0.059436
     6  N   -0.215633
     7  C   -0.101948
     8  C    0.010478
     9  C    0.012158
    10  C    0.031164
    11  C    0.104015
    12  C    0.108821
    13  C    0.158554
    14  C    0.043940
    15  O   -0.148100
    16  O   -0.285863
    17  N   -0.285661
    18  C    0.139455
    19  C   -0.166805
    20  C   -0.005514
    21  C    0.097240
    22  C    0.175084
    23  C   -0.036916
    24  O   -0.152190
    25  C    0.124080
    26  N   -0.247680
    27  C    0.051037
    28  C   -0.014603
    29  C    0.055580
    30  C    0.044605
    31  C    0.107997
    32  C    0.064041
    33  C    0.061109
    34  N   -0.246427
    35  C    0.093846
    36  C   -0.187922
    37  C    0.152539
    38  C    0.106337
    39  C    0.162922
    40  C   -0.094657
    41  O   -0.178203
    42  C    0.094555
    43  C    0.106123
    44  O   -0.162764
    45  O   -0.293445
    46  C    0.227541
    47  C    0.319588
    48  C   -0.145683
    49  C   -0.132773
    50  C    0.155676
    51  C    0.125806
    52  C    0.069461
    53  C    0.112182
    54  C   -0.075708
    55  C    0.096629
    56  C    0.119759
    57  C    0.087316
    58  C    0.108128
    59  C   -0.131634
    60  C    0.118604
    61  C    0.082017
    62  C    0.083396
    63  C    0.091788
    64  C   -0.065567
    65  C    0.073099
    66  C    0.086609
    67  H   -0.075014
    68  H   -0.029829
    69  H   -0.054008
    70  H    0.021191
    71  H   -0.022381
    72  H   -0.013963
    73  H    0.013068
    74  H   -0.009523
    75  H   -0.016388
    76  H   -0.015788
    77  H   -0.014139
    78  H    0.000343
    79  H   -0.001640
    80  H    0.001556
    81  H    0.018153
    82  H    0.025639
    83  H   -0.005518
    84  H   -0.011380
    85  H   -0.012190
    86  H   -0.034051
    87  H   -0.014838
    88  H   -0.003774
    89  H   -0.004722
    90  H   -0.015755
    91  H   -0.027601
    92  H   -0.001695
    93  H    0.004734
    94  H   -0.014904
    95  H    0.001142
    96  H   -0.006112
    97  H    0.010404
    98  H    0.003116
    99  H    0.003601
   100  H    0.025605
   101  H    0.009480
   102  H   -0.005811
   103  H   -0.014275
   104  H   -0.035158
   105  H   -0.013933
   106  H   -0.002148
   107  H    0.000641
   108  H    0.002840
   109  H   -0.042541
   110  H   -0.032501
   111  H   -0.016516
   112  H   -0.046081
   113  H   -0.027798
   114  H   -0.029925
   115  H   -0.036491
   116  H   -0.031392
   117  H   -0.010310
   118  H   -0.016224
   119  H   -0.017510
   120  H   -0.044404
   121  H   -0.032657
   122  H   -0.044144
   123  H   -0.050140
   124  H   -0.038113
   125  H   -0.003626
   126  H   -0.007026
   127  H   -0.015753
   128  H   -0.017827
   129  H   -0.033294
   130  H   -0.032345
   131  H   -0.026539
   132  H   -0.044219
   133  H   -0.028974
   134  H   -0.036482
   135  H   -0.020815
   136  H   -0.013019
   137  H   -0.019087
   138  H   -0.019348
   139  H   -0.011741
   140  H   -0.019374
 Sum of Mulliken charges =  -0.00000

 Dipole moment (field-independent basis, Debye):
    X=              5.4412    Y=              4.0938    Z=             -4.0648  Tot=              7.9302
 Quadrupole moment (field-independent basis, Debye-Ang):
   XX=           -383.2453   YY=           -434.3798   ZZ=           -405.7604
   XY=            -21.1287   XZ=              8.2773   YZ=              6.3017

 Normal termination of Gaussian 16 at Thu May  5 06:13:28 2022.
