 Gaussian 16, Revision A.03,
 Gaussian 16:  ES64L-G16RevA.03 25-Dec-2016

 -----------------------------------
 #p cam-b3lyp/Def2SVP td=(nstates=5)
 -----------------------------------

 ------------------------------------------------------
 step_651_chromophore_9 TDDFT with cam-b3lyp functional
 ------------------------------------------------------
 Symbolic Z-matrix:
 Charge =  0 Multiplicity = 1

                         Standard orientation:
 ---------------------------------------------------------------------
 Center     Atomic      Atomic             Coordinates (Angstroms)
 Number     Number       Type             X           Y           Z
 ---------------------------------------------------------------------
      1         12           0       -5.020064    0.723411   -0.045614
      2          6           0       -3.806073   -2.474051    0.199923
      3          6           0       -1.662261    1.837145   -0.216156
      4          6           0       -6.093470    3.936717    0.193072
      5          6           0       -8.279011   -0.474306    0.388998
      6          7           0       -2.980452   -0.226730    0.155137
      7          6           0       -2.774916   -1.573376    0.073279
      8          6           0       -1.269791   -1.862591   -0.053027
      9          6           0       -0.551346   -0.490654    0.082000
     10          6           0       -1.756286    0.443769    0.030327
     11          6           0        0.585466   -0.310982    1.164592
     12          6           0       -0.945735   -2.606767   -1.482383
     13          6           0        0.176177   -3.723830   -1.353540
     14          6           0        1.154744   -3.557841   -0.225860
     15          8           0        1.106813   -4.161615    0.774354
     16          8           0        2.191810   -2.733101   -0.577326
     17          7           0       -4.008059    2.555369   -0.149582
     18          6           0       -2.666226    2.812001   -0.283650
     19          6           0       -2.456006    4.259796   -0.430217
     20          6           0       -3.748404    4.887126   -0.195559
     21          6           0       -4.680645    3.766426   -0.039002
     22          6           0       -1.104215    4.848278   -0.677453
     23          6           0       -4.121542    6.400203   -0.113084
     24          8           0       -5.227113    6.797083    0.216357
     25          6           0       -3.062392    7.354458   -0.370673
     26          7           0       -6.937007    1.578662    0.111058
     27          6           0       -7.115551    2.946927    0.181209
     28          6           0       -8.636621    3.295517    0.190351
     29          6           0       -9.318902    1.945416    0.254608
     30          6           0       -8.099417    0.893194    0.288851
     31          6           0       -9.068790    4.390202    1.266650
     32          6           0      -10.328330    1.793494   -0.916793
     33          6           0       -9.592700    1.680659   -2.268165
     34          7           0       -5.899047   -1.146034    0.215010
     35          6           0       -7.220567   -1.484549    0.336526
     36          6           0       -7.268490   -2.883181    0.546511
     37          6           0       -5.929285   -3.337247    0.397369
     38          6           0       -5.141043   -2.227634    0.251793
     39          6           0       -8.575774   -3.762408    0.806192
     40          6           0       -5.106852   -4.477897    0.365944
     41          8           0       -5.433149   -5.683900    0.485705
     42          6           0       -3.677012   -4.046929    0.091065
     43          6           0       -2.786164   -4.731242    1.101529
     44          8           0       -2.824922   -4.489041    2.283395
     45          8           0       -1.950842   -5.663592    0.487001
     46          6           0       -1.026988   -6.421001    1.387589
     47          6           0        3.303196   -2.612836    0.413480
     48          6           0        4.538687   -1.924566   -0.072214
     49          6           0        5.379240   -2.347834   -1.053506
     50          6           0        5.385695   -3.760835   -1.601043
     51          6           0        6.624661   -1.603964   -1.379560
     52          6           0        6.592884   -1.173153   -2.851490
     53          6           0        7.872552   -1.463326   -3.622766
     54          6           0        8.710180   -0.218656   -3.991460
     55          6           0        9.714091   -0.523248   -5.143583
     56          6           0        9.536579    0.195785   -2.647082
     57          6           0        9.427373    1.679621   -2.452647
     58          6           0       10.566902    2.264780   -1.670579
     59          6           0       10.209984    2.804683   -0.203061
     60          6           0       10.087721    4.366802   -0.154429
     61          6           0       11.238077    2.338833    0.887812
     62          6           0       10.711280    2.596314    2.417855
     63          6           0       10.201407    1.383455    3.281889
     64          6           0       11.069951    0.897450    4.420919
     65          6           0       10.832195   -0.587906    4.796625
     66          6           0       11.155698    1.874258    5.685809
     67          1           0       -0.648892    2.237141   -0.290552
     68          1           0       -6.473043    4.960695    0.175824
     69          1           0       -9.277760   -0.807432    0.677806
     70          1           0       -1.046925   -2.461155    0.829990
     71          1           0        0.076967   -0.256650   -0.777847
     72          1           0        1.531559   -0.031689    0.702387
     73          1           0        0.800327   -1.236006    1.699394
     74          1           0        0.350210    0.499569    1.854164
     75          1           0       -0.705703   -1.902586   -2.278219
     76          1           0       -1.844522   -3.091176   -1.865305
     77          1           0        0.707822   -3.821365   -2.300317
     78          1           0       -0.277260   -4.700805   -1.183672
     79          1           0       -1.348507    5.590161   -1.437042
     80          1           0       -0.344790    4.174134   -1.072849
     81          1           0       -0.813129    5.371914    0.231976
     82          1           0       -2.608255    7.450457   -1.357002
     83          1           0       -2.243409    7.095383    0.300057
     84          1           0       -3.399889    8.339585   -0.046882
     85          1           0       -8.916994    3.840741   -0.710633
     86          1           0       -9.887188    1.880190    1.182107
     87          1           0       -9.582750    5.155999    0.685849
     88          1           0       -8.207988    4.927976    1.664210
     89          1           0       -9.601926    4.021876    2.142987
     90          1           0      -11.074084    2.586118   -0.979774
     91          1           0      -10.868018    0.865257   -0.726031
     92          1           0       -9.637131    0.615939   -2.495999
     93          1           0       -8.563629    2.039728   -2.246554
     94          1           0      -10.072672    2.290730   -3.033649
     95          1           0       -8.867620   -4.252910   -0.122641
     96          1           0       -9.411778   -3.166532    1.171177
     97          1           0       -8.289207   -4.605440    1.435214
     98          1           0       -3.326635   -4.317436   -0.905779
     99          1           0       -1.492460   -7.312980    1.807267
    100          1           0       -0.733119   -5.802337    2.235308
    101          1           0       -0.165979   -6.859475    0.883535
    102          1           0        3.566053   -3.610829    0.765839
    103          1           0        3.112577   -2.053630    1.328716
    104          1           0        4.684876   -0.969304    0.432040
    105          1           0        4.681691   -4.419932   -1.090888
    106          1           0        6.412691   -4.082360   -1.427119
    107          1           0        5.101815   -3.820667   -2.651191
    108          1           0        7.485032   -2.155748   -1.001708
    109          1           0        6.554013   -0.674313   -0.813763
    110          1           0        6.467874   -0.090433   -2.812107
    111          1           0        5.690743   -1.534325   -3.345472
    112          1           0        7.529598   -1.915386   -4.554455
    113          1           0        8.512574   -2.152729   -3.071421
    114          1           0        8.070985    0.558068   -4.412026
    115          1           0        9.445828    0.120864   -5.981729
    116          1           0        9.578902   -1.449060   -5.704243
    117          1           0       10.789917   -0.387659   -5.032837
    118          1           0       10.573050   -0.059771   -2.871022
    119          1           0        9.067809   -0.320725   -1.809287
    120          1           0        8.579694    1.899104   -1.804208
    121          1           0        9.220597    2.303313   -3.321783
    122          1           0       11.036663    3.060979   -2.246809
    123          1           0       11.372208    1.557535   -1.472284
    124          1           0        9.294911    2.296961    0.101376
    125          1           0       10.957150    4.906193    0.221849
    126          1           0        9.257598    4.341956    0.551212
    127          1           0        9.799927    4.777499   -1.122348
    128          1           0       12.188361    2.734039    0.529475
    129          1           0       11.265365    1.249525    0.881050
    130          1           0        9.842990    3.254389    2.440778
    131          1           0       11.495968    3.101774    2.979919
    132          1           0       10.087945    0.555803    2.582909
    133          1           0        9.235403    1.560847    3.756106
    134          1           0       12.100147    0.753317    4.093328
    135          1           0       10.710775   -1.096579    3.839880
    136          1           0       10.010857   -0.816636    5.475818
    137          1           0       11.718014   -1.000758    5.278890
    138          1           0       10.689092    1.497602    6.596284
    139          1           0       10.764911    2.878125    5.518709
    140          1           0       12.198111    1.965882    5.991439
 ---------------------------------------------------------------------

 SCF Done:  E(RCAM-B3LYP) =  -3007.16148412     A.U. after   17 cycles

 Excitation energies and oscillator strengths:

 Excited State   1:      Singlet-A      1.7227 eV  719.73 nm  f=0.3923  <S**2>=0.000
     245 -> 248       -0.17593
     246 -> 247        0.68717
     245 <- 248       -0.10686
 This state for optimization and/or second-order correction.
 Total Energy, E(TD-HF/TD-DFT) =  -3007.09817765
 Copying the excited state density for this state as the 1-particle RhoCI density.

 Excited State   2:      Singlet-A      2.2234 eV  557.62 nm  f=0.1532  <S**2>=0.000
     245 -> 247        0.65339
     246 -> 248        0.25550

 Excited State   3:      Singlet-A      3.2670 eV  379.50 nm  f=0.0037  <S**2>=0.000
     242 -> 247       -0.23883
     243 -> 247        0.16102
     244 -> 247        0.62138

 Excited State   4:      Singlet-A      3.3180 eV  373.67 nm  f=0.0006  <S**2>=0.000
     242 -> 247        0.15054
     243 -> 247        0.56363
     243 -> 249       -0.22194
     243 -> 250        0.25490
     244 -> 247       -0.15943

 Excited State   5:      Singlet-A      3.4165 eV  362.90 nm  f=0.0049  <S**2>=0.000
     240 -> 247       -0.12134
     242 -> 247        0.61355
     244 -> 247        0.25291
     246 -> 248       -0.14530

 The electronic state is 1-A.
 Alpha  occ. eigenvalues --  -46.88317 -19.25015 -19.24287 -19.20371 -19.19847
 Alpha  occ. eigenvalues --  -19.19156 -19.16965 -14.42416 -14.41850 -14.39895
 Alpha  occ. eigenvalues --  -14.38395 -10.38947 -10.38673 -10.36095 -10.33151
 Alpha  occ. eigenvalues --  -10.31960 -10.31806 -10.31543 -10.31181 -10.30792
 Alpha  occ. eigenvalues --  -10.30514 -10.30496 -10.30307 -10.29734 -10.29192
 Alpha  occ. eigenvalues --  -10.28700 -10.28534 -10.28348 -10.28048 -10.27916
 Alpha  occ. eigenvalues --  -10.27855 -10.27805 -10.27598 -10.27513 -10.27308
 Alpha  occ. eigenvalues --  -10.27291 -10.27273 -10.27186 -10.27119 -10.26851
 Alpha  occ. eigenvalues --  -10.26592 -10.26542 -10.26531 -10.26466 -10.26368
 Alpha  occ. eigenvalues --  -10.26184 -10.26180 -10.26111 -10.26035 -10.25988
 Alpha  occ. eigenvalues --  -10.25933 -10.25919 -10.25665 -10.25641 -10.25619
 Alpha  occ. eigenvalues --  -10.25545 -10.25320 -10.25110 -10.24889 -10.24717
 Alpha  occ. eigenvalues --  -10.24716 -10.24697 -10.24644 -10.24582 -10.24424
 Alpha  occ. eigenvalues --  -10.23577  -3.16816  -1.91737  -1.91272  -1.91108
 Alpha  occ. eigenvalues --   -1.17791  -1.14628  -1.11214  -1.09209  -1.07047
 Alpha  occ. eigenvalues --   -1.06610  -1.04319  -1.03007  -1.02641  -1.01870
 Alpha  occ. eigenvalues --   -0.92683  -0.91684  -0.89800  -0.88706  -0.88567
 Alpha  occ. eigenvalues --   -0.88460  -0.88266  -0.87610  -0.87491  -0.86785
 Alpha  occ. eigenvalues --   -0.85608  -0.85013  -0.84442  -0.83554  -0.83002
 Alpha  occ. eigenvalues --   -0.82740  -0.82158  -0.81005  -0.80556  -0.80116
 Alpha  occ. eigenvalues --   -0.79974  -0.78500  -0.77974  -0.76641  -0.76375
 Alpha  occ. eigenvalues --   -0.75684  -0.75597  -0.75051  -0.74980  -0.74563
 Alpha  occ. eigenvalues --   -0.73480  -0.72576  -0.71705  -0.70954  -0.69224
 Alpha  occ. eigenvalues --   -0.69082  -0.68398  -0.67412  -0.67194  -0.65429
 Alpha  occ. eigenvalues --   -0.65290  -0.64868  -0.64273  -0.64159  -0.64037
 Alpha  occ. eigenvalues --   -0.63634  -0.63327  -0.62130  -0.61330  -0.60468
 Alpha  occ. eigenvalues --   -0.59924  -0.59332  -0.59032  -0.58250  -0.57622
 Alpha  occ. eigenvalues --   -0.57329  -0.57193  -0.56473  -0.55741  -0.55314
 Alpha  occ. eigenvalues --   -0.55185  -0.54966  -0.54545  -0.54400  -0.54188
 Alpha  occ. eigenvalues --   -0.53851  -0.53631  -0.53408  -0.53291  -0.53014
 Alpha  occ. eigenvalues --   -0.52755  -0.52446  -0.52115  -0.51788  -0.51759
 Alpha  occ. eigenvalues --   -0.51377  -0.51134  -0.51049  -0.50930  -0.50633
 Alpha  occ. eigenvalues --   -0.50559  -0.50441  -0.50228  -0.50090  -0.49288
 Alpha  occ. eigenvalues --   -0.49258  -0.49103  -0.48888  -0.48802  -0.48611
 Alpha  occ. eigenvalues --   -0.48271  -0.48097  -0.47963  -0.47638  -0.47597
 Alpha  occ. eigenvalues --   -0.47345  -0.47218  -0.47158  -0.47073  -0.46750
 Alpha  occ. eigenvalues --   -0.46378  -0.46198  -0.46084  -0.45870  -0.45747
 Alpha  occ. eigenvalues --   -0.45564  -0.45246  -0.44945  -0.44911  -0.44680
 Alpha  occ. eigenvalues --   -0.44675  -0.44661  -0.44152  -0.43954  -0.43764
 Alpha  occ. eigenvalues --   -0.43682  -0.43535  -0.43226  -0.43072  -0.42890
 Alpha  occ. eigenvalues --   -0.42774  -0.42477  -0.42278  -0.42223  -0.41841
 Alpha  occ. eigenvalues --   -0.41700  -0.41645  -0.41551  -0.41414  -0.41157
 Alpha  occ. eigenvalues --   -0.40936  -0.40662  -0.40543  -0.40300  -0.40218
 Alpha  occ. eigenvalues --   -0.39965  -0.39578  -0.39310  -0.39132  -0.39084
 Alpha  occ. eigenvalues --   -0.38760  -0.38758  -0.38523  -0.37434  -0.37301
 Alpha  occ. eigenvalues --   -0.37265  -0.36961  -0.36907  -0.36338  -0.36159
 Alpha  occ. eigenvalues --   -0.36151  -0.35655  -0.35350  -0.34893  -0.34019
 Alpha  occ. eigenvalues --   -0.33733  -0.33572  -0.32993  -0.32137  -0.31091
 Alpha  occ. eigenvalues --   -0.30830  -0.30181  -0.29657  -0.28915  -0.24000
 Alpha  occ. eigenvalues --   -0.21415
 Alpha virt. eigenvalues --   -0.08930  -0.01380   0.00343   0.02355   0.03335
 Alpha virt. eigenvalues --    0.03449   0.05077   0.05864   0.06321   0.06530
 Alpha virt. eigenvalues --    0.07628   0.07920   0.08606   0.09011   0.09305

 Mulliken charges:
               1
     1  Mg   0.822131
     2  C   -0.019945
     3  C   -0.083711
     4  C   -0.069360
     5  C   -0.066125
     6  N   -0.281549
     7  C   -0.057166
     8  C   -0.051372
     9  C   -0.033543
    10  C    0.050633
    11  C    0.049127
    12  C    0.063872
    13  C    0.094393
    14  C    0.112606
    15  O   -0.186170
    16  O   -0.347018
    17  N   -0.374678
    18  C    0.150059
    19  C   -0.166598
    20  C   -0.074159
    21  C    0.127324
    22  C    0.113319
    23  C    0.049088
    24  O   -0.191754
    25  C    0.034143
    26  N   -0.324295
    27  C    0.078539
    28  C   -0.073234
    29  C    0.005368
    30  C    0.057273
    31  C    0.052137
    32  C    0.014421
    33  C   -0.003264
    34  N   -0.338562
    35  C    0.095425
    36  C   -0.184538
    37  C    0.066008
    38  C    0.136763
    39  C    0.120197
    40  C    0.002342
    41  O   -0.219187
    42  C    0.019672
    43  C    0.195273
    44  O   -0.199110
    45  O   -0.359205
    46  C    0.188701
    47  C    0.284170
    48  C   -0.163886
    49  C   -0.146027
    50  C    0.095979
    51  C    0.059889
    52  C    0.014767
    53  C    0.054003
    54  C   -0.126573
    55  C    0.035221
    56  C    0.067529
    57  C    0.033515
    58  C    0.050805
    59  C   -0.179419
    60  C    0.058464
    61  C    0.033916
    62  C    0.024871
    63  C    0.040533
    64  C   -0.128032
    65  C    0.020710
    66  C    0.025711
    67  H   -0.038464
    68  H    0.008881
    69  H   -0.020451
    70  H    0.052486
    71  H    0.014091
    72  H    0.009021
    73  H    0.034593
    74  H    0.017350
    75  H    0.013730
    76  H    0.013217
    77  H    0.020033
    78  H    0.032074
    79  H    0.024374
    80  H    0.031099
    81  H    0.045691
    82  H    0.054723
    83  H    0.022002
    84  H    0.026306
    85  H    0.022447
    86  H    0.001299
    87  H    0.009734
    88  H    0.021339
    89  H    0.020519
    90  H    0.011549
    91  H    0.001221
    92  H    0.023097
    93  H    0.024036
    94  H    0.009670
    95  H    0.025474
    96  H    0.014894
    97  H    0.035568
    98  H    0.044508
    99  H    0.026304
   100  H    0.050467
   101  H    0.031286
   102  H    0.024140
   103  H    0.011967
   104  H   -0.004536
   105  H    0.011117
   106  H    0.020980
   107  H    0.025275
   108  H    0.029504
   109  H   -0.011392
   110  H   -0.003105
   111  H    0.012890
   112  H   -0.014675
   113  H    0.000007
   114  H    0.001209
   115  H   -0.011435
   116  H   -0.004723
   117  H    0.013682
   118  H    0.011100
   119  H    0.005818
   120  H   -0.017051
   121  H   -0.003165
   122  H   -0.013503
   123  H   -0.019265
   124  H   -0.009754
   125  H    0.020174
   126  H    0.014705
   127  H    0.008294
   128  H    0.009529
   129  H   -0.006368
   130  H   -0.004193
   131  H    0.001984
   132  H   -0.017301
   133  H   -0.000490
   134  H   -0.005487
   135  H    0.002726
   136  H    0.009671
   137  H    0.005645
   138  H    0.004873
   139  H    0.011479
   140  H    0.005093
 Sum of Mulliken charges =  -0.00000

 Dipole moment (field-independent basis, Debye):
    X=              6.1295    Y=              5.1445    Z=             -4.2820  Tot=              9.0759
 Quadrupole moment (field-independent basis, Debye-Ang):
   XX=           -385.9560   YY=           -429.9046   ZZ=           -405.6478
   XY=            -25.6907   XZ=              9.0787   YZ=              6.2595

 Normal termination of Gaussian 16 at Thu May  5 05:05:38 2022.
