 Gaussian 16, Revision A.03,
 Gaussian 16:  ES64L-G16RevA.03 25-Dec-2016

 ---------------------------------
 #p PBE1PBE/Def2SVP td=(nstates=5)
 ---------------------------------

 ----------------------------------------------------
 step_651_chromophore_9 TDDFT with PBE1PBE functional
 ----------------------------------------------------
 Symbolic Z-matrix:
 Charge =  0 Multiplicity = 1

                         Standard orientation:
 ---------------------------------------------------------------------
 Center     Atomic      Atomic             Coordinates (Angstroms)
 Number     Number       Type             X           Y           Z
 ---------------------------------------------------------------------
      1         12           0       -5.020064    0.723411   -0.045614
      2          6           0       -3.806073   -2.474051    0.199923
      3          6           0       -1.662261    1.837145   -0.216156
      4          6           0       -6.093470    3.936717    0.193072
      5          6           0       -8.279011   -0.474306    0.388998
      6          7           0       -2.980452   -0.226730    0.155137
      7          6           0       -2.774916   -1.573376    0.073279
      8          6           0       -1.269791   -1.862591   -0.053027
      9          6           0       -0.551346   -0.490654    0.082000
     10          6           0       -1.756286    0.443769    0.030327
     11          6           0        0.585466   -0.310982    1.164592
     12          6           0       -0.945735   -2.606767   -1.482383
     13          6           0        0.176177   -3.723830   -1.353540
     14          6           0        1.154744   -3.557841   -0.225860
     15          8           0        1.106813   -4.161615    0.774354
     16          8           0        2.191810   -2.733101   -0.577326
     17          7           0       -4.008059    2.555369   -0.149582
     18          6           0       -2.666226    2.812001   -0.283650
     19          6           0       -2.456006    4.259796   -0.430217
     20          6           0       -3.748404    4.887126   -0.195559
     21          6           0       -4.680645    3.766426   -0.039002
     22          6           0       -1.104215    4.848278   -0.677453
     23          6           0       -4.121542    6.400203   -0.113084
     24          8           0       -5.227113    6.797083    0.216357
     25          6           0       -3.062392    7.354458   -0.370673
     26          7           0       -6.937007    1.578662    0.111058
     27          6           0       -7.115551    2.946927    0.181209
     28          6           0       -8.636621    3.295517    0.190351
     29          6           0       -9.318902    1.945416    0.254608
     30          6           0       -8.099417    0.893194    0.288851
     31          6           0       -9.068790    4.390202    1.266650
     32          6           0      -10.328330    1.793494   -0.916793
     33          6           0       -9.592700    1.680659   -2.268165
     34          7           0       -5.899047   -1.146034    0.215010
     35          6           0       -7.220567   -1.484549    0.336526
     36          6           0       -7.268490   -2.883181    0.546511
     37          6           0       -5.929285   -3.337247    0.397369
     38          6           0       -5.141043   -2.227634    0.251793
     39          6           0       -8.575774   -3.762408    0.806192
     40          6           0       -5.106852   -4.477897    0.365944
     41          8           0       -5.433149   -5.683900    0.485705
     42          6           0       -3.677012   -4.046929    0.091065
     43          6           0       -2.786164   -4.731242    1.101529
     44          8           0       -2.824922   -4.489041    2.283395
     45          8           0       -1.950842   -5.663592    0.487001
     46          6           0       -1.026988   -6.421001    1.387589
     47          6           0        3.303196   -2.612836    0.413480
     48          6           0        4.538687   -1.924566   -0.072214
     49          6           0        5.379240   -2.347834   -1.053506
     50          6           0        5.385695   -3.760835   -1.601043
     51          6           0        6.624661   -1.603964   -1.379560
     52          6           0        6.592884   -1.173153   -2.851490
     53          6           0        7.872552   -1.463326   -3.622766
     54          6           0        8.710180   -0.218656   -3.991460
     55          6           0        9.714091   -0.523248   -5.143583
     56          6           0        9.536579    0.195785   -2.647082
     57          6           0        9.427373    1.679621   -2.452647
     58          6           0       10.566902    2.264780   -1.670579
     59          6           0       10.209984    2.804683   -0.203061
     60          6           0       10.087721    4.366802   -0.154429
     61          6           0       11.238077    2.338833    0.887812
     62          6           0       10.711280    2.596314    2.417855
     63          6           0       10.201407    1.383455    3.281889
     64          6           0       11.069951    0.897450    4.420919
     65          6           0       10.832195   -0.587906    4.796625
     66          6           0       11.155698    1.874258    5.685809
     67          1           0       -0.648892    2.237141   -0.290552
     68          1           0       -6.473043    4.960695    0.175824
     69          1           0       -9.277760   -0.807432    0.677806
     70          1           0       -1.046925   -2.461155    0.829990
     71          1           0        0.076967   -0.256650   -0.777847
     72          1           0        1.531559   -0.031689    0.702387
     73          1           0        0.800327   -1.236006    1.699394
     74          1           0        0.350210    0.499569    1.854164
     75          1           0       -0.705703   -1.902586   -2.278219
     76          1           0       -1.844522   -3.091176   -1.865305
     77          1           0        0.707822   -3.821365   -2.300317
     78          1           0       -0.277260   -4.700805   -1.183672
     79          1           0       -1.348507    5.590161   -1.437042
     80          1           0       -0.344790    4.174134   -1.072849
     81          1           0       -0.813129    5.371914    0.231976
     82          1           0       -2.608255    7.450457   -1.357002
     83          1           0       -2.243409    7.095383    0.300057
     84          1           0       -3.399889    8.339585   -0.046882
     85          1           0       -8.916994    3.840741   -0.710633
     86          1           0       -9.887188    1.880190    1.182107
     87          1           0       -9.582750    5.155999    0.685849
     88          1           0       -8.207988    4.927976    1.664210
     89          1           0       -9.601926    4.021876    2.142987
     90          1           0      -11.074084    2.586118   -0.979774
     91          1           0      -10.868018    0.865257   -0.726031
     92          1           0       -9.637131    0.615939   -2.495999
     93          1           0       -8.563629    2.039728   -2.246554
     94          1           0      -10.072672    2.290730   -3.033649
     95          1           0       -8.867620   -4.252910   -0.122641
     96          1           0       -9.411778   -3.166532    1.171177
     97          1           0       -8.289207   -4.605440    1.435214
     98          1           0       -3.326635   -4.317436   -0.905779
     99          1           0       -1.492460   -7.312980    1.807267
    100          1           0       -0.733119   -5.802337    2.235308
    101          1           0       -0.165979   -6.859475    0.883535
    102          1           0        3.566053   -3.610829    0.765839
    103          1           0        3.112577   -2.053630    1.328716
    104          1           0        4.684876   -0.969304    0.432040
    105          1           0        4.681691   -4.419932   -1.090888
    106          1           0        6.412691   -4.082360   -1.427119
    107          1           0        5.101815   -3.820667   -2.651191
    108          1           0        7.485032   -2.155748   -1.001708
    109          1           0        6.554013   -0.674313   -0.813763
    110          1           0        6.467874   -0.090433   -2.812107
    111          1           0        5.690743   -1.534325   -3.345472
    112          1           0        7.529598   -1.915386   -4.554455
    113          1           0        8.512574   -2.152729   -3.071421
    114          1           0        8.070985    0.558068   -4.412026
    115          1           0        9.445828    0.120864   -5.981729
    116          1           0        9.578902   -1.449060   -5.704243
    117          1           0       10.789917   -0.387659   -5.032837
    118          1           0       10.573050   -0.059771   -2.871022
    119          1           0        9.067809   -0.320725   -1.809287
    120          1           0        8.579694    1.899104   -1.804208
    121          1           0        9.220597    2.303313   -3.321783
    122          1           0       11.036663    3.060979   -2.246809
    123          1           0       11.372208    1.557535   -1.472284
    124          1           0        9.294911    2.296961    0.101376
    125          1           0       10.957150    4.906193    0.221849
    126          1           0        9.257598    4.341956    0.551212
    127          1           0        9.799927    4.777499   -1.122348
    128          1           0       12.188361    2.734039    0.529475
    129          1           0       11.265365    1.249525    0.881050
    130          1           0        9.842990    3.254389    2.440778
    131          1           0       11.495968    3.101774    2.979919
    132          1           0       10.087945    0.555803    2.582909
    133          1           0        9.235403    1.560847    3.756106
    134          1           0       12.100147    0.753317    4.093328
    135          1           0       10.710775   -1.096579    3.839880
    136          1           0       10.010857   -0.816636    5.475818
    137          1           0       11.718014   -1.000758    5.278890
    138          1           0       10.689092    1.497602    6.596284
    139          1           0       10.764911    2.878125    5.518709
    140          1           0       12.198111    1.965882    5.991439
 ---------------------------------------------------------------------

 SCF Done:  E(RPBE1PBE) =  -3005.34756821     A.U. after   15 cycles

 Excitation energies and oscillator strengths:

 Excited State   1:      Singlet-A      1.8672 eV  664.01 nm  f=0.3787  <S**2>=0.000
     245 -> 248       -0.16916
     246 -> 247        0.69408
     246 <- 247       -0.10848
 This state for optimization and/or second-order correction.
 Total Energy, E(TD-HF/TD-DFT) =  -3005.27895020
 Copying the excited state density for this state as the 1-particle RhoCI density.

 Excited State   2:      Singlet-A      2.2359 eV  554.52 nm  f=0.1403  <S**2>=0.000
     245 -> 247        0.66067
     246 -> 248        0.23699

 Excited State   3:      Singlet-A      2.7209 eV  455.68 nm  f=0.0001  <S**2>=0.000
     243 -> 247       -0.11555
     244 -> 247        0.67141
     244 -> 249        0.12705
     244 -> 250        0.12082

 Excited State   4:      Singlet-A      2.9209 eV  424.48 nm  f=0.0053  <S**2>=0.000
     242 -> 247       -0.12000
     243 -> 247        0.67950
     244 -> 247        0.12097

 Excited State   5:      Singlet-A      3.1013 eV  399.78 nm  f=0.0131  <S**2>=0.000
     242 -> 247        0.68500
     243 -> 247        0.10817

 The electronic state is 1-A.
 Alpha  occ. eigenvalues --  -46.91714 -19.25649 -19.25003 -19.20560 -19.19893
 Alpha  occ. eigenvalues --  -19.19408 -19.17394 -14.41834 -14.41472 -14.39446
 Alpha  occ. eigenvalues --  -14.38168 -10.35943 -10.35740 -10.33034 -10.30427
 Alpha  occ. eigenvalues --  -10.29356 -10.29338 -10.29118 -10.28691 -10.28614
 Alpha  occ. eigenvalues --  -10.28358 -10.27923 -10.27591 -10.27184 -10.27108
 Alpha  occ. eigenvalues --  -10.26546 -10.26223 -10.26080 -10.25619 -10.25565
 Alpha  occ. eigenvalues --  -10.25460 -10.25314 -10.25290 -10.25103 -10.25101
 Alpha  occ. eigenvalues --  -10.25094 -10.25058 -10.25050 -10.24658 -10.24649
 Alpha  occ. eigenvalues --  -10.24338 -10.24166 -10.23936 -10.23894 -10.23764
 Alpha  occ. eigenvalues --  -10.23751 -10.23747 -10.23698 -10.23688 -10.23549
 Alpha  occ. eigenvalues --  -10.23504 -10.23497 -10.23265 -10.23221 -10.23186
 Alpha  occ. eigenvalues --  -10.23033 -10.22849 -10.22672 -10.22273 -10.22164
 Alpha  occ. eigenvalues --  -10.22103 -10.22083 -10.22078 -10.22070 -10.21979
 Alpha  occ. eigenvalues --  -10.21500  -3.13795  -1.86657  -1.86170  -1.86009
 Alpha  occ. eigenvalues --   -1.12564  -1.09417  -1.05780  -1.04061  -1.01918
 Alpha  occ. eigenvalues --   -1.01485  -0.99180  -0.97542  -0.97221  -0.96426
 Alpha  occ. eigenvalues --   -0.87185  -0.85819  -0.83888  -0.82841  -0.82747
 Alpha  occ. eigenvalues --   -0.82627  -0.82459  -0.81723  -0.81599  -0.81116
 Alpha  occ. eigenvalues --   -0.79827  -0.79428  -0.78664  -0.77644  -0.77199
 Alpha  occ. eigenvalues --   -0.77034  -0.76409  -0.75245  -0.74831  -0.74369
 Alpha  occ. eigenvalues --   -0.74228  -0.72662  -0.72259  -0.70789  -0.70700
 Alpha  occ. eigenvalues --   -0.69936  -0.69747  -0.69397  -0.69099  -0.68723
 Alpha  occ. eigenvalues --   -0.67797  -0.67047  -0.66107  -0.65273  -0.63546
 Alpha  occ. eigenvalues --   -0.63275  -0.62932  -0.61704  -0.61526  -0.59870
 Alpha  occ. eigenvalues --   -0.59507  -0.59425  -0.58834  -0.58679  -0.58213
 Alpha  occ. eigenvalues --   -0.58077  -0.57466  -0.56319  -0.55985  -0.54876
 Alpha  occ. eigenvalues --   -0.54291  -0.53822  -0.53655  -0.52901  -0.52212
 Alpha  occ. eigenvalues --   -0.51748  -0.51543  -0.50989  -0.50293  -0.49882
 Alpha  occ. eigenvalues --   -0.49801  -0.49490  -0.48880  -0.48830  -0.48671
 Alpha  occ. eigenvalues --   -0.48293  -0.48027  -0.47829  -0.47703  -0.47525
 Alpha  occ. eigenvalues --   -0.47260  -0.46948  -0.46707  -0.46392  -0.46364
 Alpha  occ. eigenvalues --   -0.45849  -0.45661  -0.45523  -0.45437  -0.45208
 Alpha  occ. eigenvalues --   -0.45125  -0.44962  -0.44769  -0.44648  -0.43896
 Alpha  occ. eigenvalues --   -0.43819  -0.43584  -0.43470  -0.43447  -0.43257
 Alpha  occ. eigenvalues --   -0.42917  -0.42724  -0.42610  -0.42314  -0.42181
 Alpha  occ. eigenvalues --   -0.41964  -0.41842  -0.41800  -0.41662  -0.41347
 Alpha  occ. eigenvalues --   -0.41090  -0.40964  -0.40758  -0.40666  -0.40433
 Alpha  occ. eigenvalues --   -0.40304  -0.39953  -0.39695  -0.39605  -0.39453
 Alpha  occ. eigenvalues --   -0.39406  -0.39215  -0.38838  -0.38749  -0.38520
 Alpha  occ. eigenvalues --   -0.38389  -0.38176  -0.37971  -0.37885  -0.37624
 Alpha  occ. eigenvalues --   -0.37513  -0.37255  -0.37144  -0.36997  -0.36726
 Alpha  occ. eigenvalues --   -0.36604  -0.36487  -0.36409  -0.36223  -0.36060
 Alpha  occ. eigenvalues --   -0.35763  -0.35460  -0.35424  -0.35233  -0.35113
 Alpha  occ. eigenvalues --   -0.34754  -0.34532  -0.34108  -0.34051  -0.33940
 Alpha  occ. eigenvalues --   -0.33698  -0.33548  -0.33287  -0.32323  -0.32283
 Alpha  occ. eigenvalues --   -0.32076  -0.31989  -0.31845  -0.31219  -0.31145
 Alpha  occ. eigenvalues --   -0.30997  -0.30611  -0.30226  -0.29685  -0.29262
 Alpha  occ. eigenvalues --   -0.28997  -0.28570  -0.28235  -0.26782  -0.26670
 Alpha  occ. eigenvalues --   -0.26164  -0.25630  -0.24779  -0.24530  -0.20945
 Alpha  occ. eigenvalues --   -0.18979
 Alpha virt. eigenvalues --   -0.11343  -0.04925  -0.03798  -0.02070  -0.01045
 Alpha virt. eigenvalues --    0.00451   0.00706   0.01316   0.01884   0.02669
 Alpha virt. eigenvalues --    0.04014   0.04576   0.04797   0.05443   0.05823

 Mulliken charges:
               1
     1  Mg   0.971178
     2  C   -0.015679
     3  C   -0.078617
     4  C   -0.054526
     5  C   -0.061027
     6  N   -0.382786
     7  C    0.022583
     8  C   -0.133507
     9  C   -0.091785
    10  C    0.087056
    11  C   -0.010004
    12  C    0.015099
    13  C    0.020137
    14  C    0.178795
    15  O   -0.220846
    16  O   -0.375676
    17  N   -0.489702
    18  C    0.171109
    19  C   -0.194556
    20  C   -0.116229
    21  C    0.150382
    22  C    0.047572
    23  C    0.096723
    24  O   -0.232039
    25  C   -0.037116
    26  N   -0.428210
    27  C    0.106409
    28  C   -0.144857
    29  C   -0.067809
    30  C    0.092290
    31  C   -0.003227
    32  C   -0.047829
    33  C   -0.077636
    34  N   -0.475135
    35  C    0.124691
    36  C   -0.191765
    37  C    0.007049
    38  C    0.183829
    39  C    0.067036
    40  C    0.097083
    41  O   -0.263032
    42  C   -0.095978
    43  C    0.289915
    44  O   -0.234385
    45  O   -0.392357
    46  C    0.133699
    47  C    0.235716
    48  C   -0.175086
    49  C   -0.182634
    50  C    0.038091
    51  C   -0.012639
    52  C   -0.037581
    53  C   -0.008776
    54  C   -0.211414
    55  C   -0.018467
    56  C    0.005508
    57  C   -0.029338
    58  C    0.000641
    59  C   -0.264888
    60  C   -0.000869
    61  C   -0.025079
    62  C   -0.033886
    63  C   -0.017641
    64  C   -0.220536
    65  C   -0.038656
    66  C   -0.033468
    67  H   -0.006323
    68  H    0.040373
    69  H    0.012028
    70  H    0.092037
    71  H    0.051203
    72  H    0.035931
    73  H    0.060152
    74  H    0.045583
    75  H    0.044963
    76  H    0.046271
    77  H    0.052422
    78  H    0.066633
    79  H    0.053615
    80  H    0.056208
    81  H    0.072699
    82  H    0.079028
    83  H    0.050359
    84  H    0.053508
    85  H    0.059592
    86  H    0.038942
    87  H    0.036756
    88  H    0.048579
    89  H    0.046827
    90  H    0.044618
    91  H    0.034350
    92  H    0.051080
    93  H    0.054106
    94  H    0.038492
    95  H    0.054542
    96  H    0.041950
    97  H    0.063535
    98  H    0.081691
    99  H    0.049005
   100  H    0.071343
   101  H    0.052465
   102  H    0.050334
   103  H    0.038799
   104  H    0.024296
   105  H    0.038905
   106  H    0.047885
   107  H    0.052011
   108  H    0.058470
   109  H    0.022761
   110  H    0.030591
   111  H    0.044495
   112  H    0.019565
   113  H    0.033208
   114  H    0.036645
   115  H    0.016541
   116  H    0.021853
   117  H    0.039571
   118  H    0.043203
   119  H    0.042882
   120  H    0.017519
   121  H    0.028262
   122  H    0.019411
   123  H    0.013512
   124  H    0.028659
   125  H    0.046774
   126  H    0.041922
   127  H    0.036650
   128  H    0.040909
   129  H    0.027764
   130  H    0.028066
   131  H    0.034917
   132  H    0.014435
   133  H    0.032283
   134  H    0.033800
   135  H    0.030365
   136  H    0.036858
   137  H    0.033446
   138  H    0.031974
   139  H    0.038108
   140  H    0.032476
 Sum of Mulliken charges =  -0.00000

 Dipole moment (field-independent basis, Debye):
    X=              5.8726    Y=              4.7069    Z=             -4.2820  Tot=              8.6590
 Quadrupole moment (field-independent basis, Debye-Ang):
   XX=           -377.5317   YY=           -427.6014   ZZ=           -402.9548
   XY=            -24.2230   XZ=              8.5819   YZ=              6.2747

 Normal termination of Gaussian 16 at Thu May  5 05:31:04 2022.
