 Gaussian 16, Revision A.03,
 Gaussian 16:  ES64L-G16RevA.03 25-Dec-2016

 --------------------------------
 #p wB97XD/Def2SVP td=(nstates=5)
 --------------------------------

 ---------------------------------------------------
 step_651_chromophore_9 TDDFT with wB97XD functional
 ---------------------------------------------------
 Symbolic Z-matrix:
 Charge =  0 Multiplicity = 1

                         Standard orientation:
 ---------------------------------------------------------------------
 Center     Atomic      Atomic             Coordinates (Angstroms)
 Number     Number       Type             X           Y           Z
 ---------------------------------------------------------------------
      1         12           0       -5.020064    0.723411   -0.045614
      2          6           0       -3.806073   -2.474051    0.199923
      3          6           0       -1.662261    1.837145   -0.216156
      4          6           0       -6.093470    3.936717    0.193072
      5          6           0       -8.279011   -0.474306    0.388998
      6          7           0       -2.980452   -0.226730    0.155137
      7          6           0       -2.774916   -1.573376    0.073279
      8          6           0       -1.269791   -1.862591   -0.053027
      9          6           0       -0.551346   -0.490654    0.082000
     10          6           0       -1.756286    0.443769    0.030327
     11          6           0        0.585466   -0.310982    1.164592
     12          6           0       -0.945735   -2.606767   -1.482383
     13          6           0        0.176177   -3.723830   -1.353540
     14          6           0        1.154744   -3.557841   -0.225860
     15          8           0        1.106813   -4.161615    0.774354
     16          8           0        2.191810   -2.733101   -0.577326
     17          7           0       -4.008059    2.555369   -0.149582
     18          6           0       -2.666226    2.812001   -0.283650
     19          6           0       -2.456006    4.259796   -0.430217
     20          6           0       -3.748404    4.887126   -0.195559
     21          6           0       -4.680645    3.766426   -0.039002
     22          6           0       -1.104215    4.848278   -0.677453
     23          6           0       -4.121542    6.400203   -0.113084
     24          8           0       -5.227113    6.797083    0.216357
     25          6           0       -3.062392    7.354458   -0.370673
     26          7           0       -6.937007    1.578662    0.111058
     27          6           0       -7.115551    2.946927    0.181209
     28          6           0       -8.636621    3.295517    0.190351
     29          6           0       -9.318902    1.945416    0.254608
     30          6           0       -8.099417    0.893194    0.288851
     31          6           0       -9.068790    4.390202    1.266650
     32          6           0      -10.328330    1.793494   -0.916793
     33          6           0       -9.592700    1.680659   -2.268165
     34          7           0       -5.899047   -1.146034    0.215010
     35          6           0       -7.220567   -1.484549    0.336526
     36          6           0       -7.268490   -2.883181    0.546511
     37          6           0       -5.929285   -3.337247    0.397369
     38          6           0       -5.141043   -2.227634    0.251793
     39          6           0       -8.575774   -3.762408    0.806192
     40          6           0       -5.106852   -4.477897    0.365944
     41          8           0       -5.433149   -5.683900    0.485705
     42          6           0       -3.677012   -4.046929    0.091065
     43          6           0       -2.786164   -4.731242    1.101529
     44          8           0       -2.824922   -4.489041    2.283395
     45          8           0       -1.950842   -5.663592    0.487001
     46          6           0       -1.026988   -6.421001    1.387589
     47          6           0        3.303196   -2.612836    0.413480
     48          6           0        4.538687   -1.924566   -0.072214
     49          6           0        5.379240   -2.347834   -1.053506
     50          6           0        5.385695   -3.760835   -1.601043
     51          6           0        6.624661   -1.603964   -1.379560
     52          6           0        6.592884   -1.173153   -2.851490
     53          6           0        7.872552   -1.463326   -3.622766
     54          6           0        8.710180   -0.218656   -3.991460
     55          6           0        9.714091   -0.523248   -5.143583
     56          6           0        9.536579    0.195785   -2.647082
     57          6           0        9.427373    1.679621   -2.452647
     58          6           0       10.566902    2.264780   -1.670579
     59          6           0       10.209984    2.804683   -0.203061
     60          6           0       10.087721    4.366802   -0.154429
     61          6           0       11.238077    2.338833    0.887812
     62          6           0       10.711280    2.596314    2.417855
     63          6           0       10.201407    1.383455    3.281889
     64          6           0       11.069951    0.897450    4.420919
     65          6           0       10.832195   -0.587906    4.796625
     66          6           0       11.155698    1.874258    5.685809
     67          1           0       -0.648892    2.237141   -0.290552
     68          1           0       -6.473043    4.960695    0.175824
     69          1           0       -9.277760   -0.807432    0.677806
     70          1           0       -1.046925   -2.461155    0.829990
     71          1           0        0.076967   -0.256650   -0.777847
     72          1           0        1.531559   -0.031689    0.702387
     73          1           0        0.800327   -1.236006    1.699394
     74          1           0        0.350210    0.499569    1.854164
     75          1           0       -0.705703   -1.902586   -2.278219
     76          1           0       -1.844522   -3.091176   -1.865305
     77          1           0        0.707822   -3.821365   -2.300317
     78          1           0       -0.277260   -4.700805   -1.183672
     79          1           0       -1.348507    5.590161   -1.437042
     80          1           0       -0.344790    4.174134   -1.072849
     81          1           0       -0.813129    5.371914    0.231976
     82          1           0       -2.608255    7.450457   -1.357002
     83          1           0       -2.243409    7.095383    0.300057
     84          1           0       -3.399889    8.339585   -0.046882
     85          1           0       -8.916994    3.840741   -0.710633
     86          1           0       -9.887188    1.880190    1.182107
     87          1           0       -9.582750    5.155999    0.685849
     88          1           0       -8.207988    4.927976    1.664210
     89          1           0       -9.601926    4.021876    2.142987
     90          1           0      -11.074084    2.586118   -0.979774
     91          1           0      -10.868018    0.865257   -0.726031
     92          1           0       -9.637131    0.615939   -2.495999
     93          1           0       -8.563629    2.039728   -2.246554
     94          1           0      -10.072672    2.290730   -3.033649
     95          1           0       -8.867620   -4.252910   -0.122641
     96          1           0       -9.411778   -3.166532    1.171177
     97          1           0       -8.289207   -4.605440    1.435214
     98          1           0       -3.326635   -4.317436   -0.905779
     99          1           0       -1.492460   -7.312980    1.807267
    100          1           0       -0.733119   -5.802337    2.235308
    101          1           0       -0.165979   -6.859475    0.883535
    102          1           0        3.566053   -3.610829    0.765839
    103          1           0        3.112577   -2.053630    1.328716
    104          1           0        4.684876   -0.969304    0.432040
    105          1           0        4.681691   -4.419932   -1.090888
    106          1           0        6.412691   -4.082360   -1.427119
    107          1           0        5.101815   -3.820667   -2.651191
    108          1           0        7.485032   -2.155748   -1.001708
    109          1           0        6.554013   -0.674313   -0.813763
    110          1           0        6.467874   -0.090433   -2.812107
    111          1           0        5.690743   -1.534325   -3.345472
    112          1           0        7.529598   -1.915386   -4.554455
    113          1           0        8.512574   -2.152729   -3.071421
    114          1           0        8.070985    0.558068   -4.412026
    115          1           0        9.445828    0.120864   -5.981729
    116          1           0        9.578902   -1.449060   -5.704243
    117          1           0       10.789917   -0.387659   -5.032837
    118          1           0       10.573050   -0.059771   -2.871022
    119          1           0        9.067809   -0.320725   -1.809287
    120          1           0        8.579694    1.899104   -1.804208
    121          1           0        9.220597    2.303313   -3.321783
    122          1           0       11.036663    3.060979   -2.246809
    123          1           0       11.372208    1.557535   -1.472284
    124          1           0        9.294911    2.296961    0.101376
    125          1           0       10.957150    4.906193    0.221849
    126          1           0        9.257598    4.341956    0.551212
    127          1           0        9.799927    4.777499   -1.122348
    128          1           0       12.188361    2.734039    0.529475
    129          1           0       11.265365    1.249525    0.881050
    130          1           0        9.842990    3.254389    2.440778
    131          1           0       11.495968    3.101774    2.979919
    132          1           0       10.087945    0.555803    2.582909
    133          1           0        9.235403    1.560847    3.756106
    134          1           0       12.100147    0.753317    4.093328
    135          1           0       10.710775   -1.096579    3.839880
    136          1           0       10.010857   -0.816636    5.475818
    137          1           0       11.718014   -1.000758    5.278890
    138          1           0       10.689092    1.497602    6.596284
    139          1           0       10.764911    2.878125    5.518709
    140          1           0       12.198111    1.965882    5.991439
 ---------------------------------------------------------------------

 SCF Done:  E(RwB97XD) =  -3007.86141408     A.U. after   17 cycles

 Excitation energies and oscillator strengths:

 Excited State   1:      Singlet-A      1.6721 eV  741.50 nm  f=0.3912  <S**2>=0.000
     245 -> 248       -0.18027
     246 -> 247        0.68500
     245 <- 248       -0.11526
 This state for optimization and/or second-order correction.
 Total Energy, E(TD-HF/TD-DFT) =  -3007.79996632
 Copying the excited state density for this state as the 1-particle RhoCI density.

 Excited State   2:      Singlet-A      2.1711 eV  571.06 nm  f=0.1487  <S**2>=0.000
     245 -> 247        0.65065
     246 -> 248        0.25825

 Excited State   3:      Singlet-A      3.3083 eV  374.76 nm  f=0.0029  <S**2>=0.000
     242 -> 247       -0.33765
     244 -> 247        0.58805

 Excited State   4:      Singlet-A      3.3657 eV  368.38 nm  f=0.0004  <S**2>=0.000
     242 -> 247        0.18780
     243 -> 247        0.54836
     243 -> 249       -0.24287
     243 -> 250        0.28238

 Excited State   5:      Singlet-A      3.4444 eV  359.96 nm  f=0.0050  <S**2>=0.000
     240 -> 247       -0.13982
     242 -> 247        0.53927
     243 -> 247       -0.12666
     244 -> 247        0.33755
     246 -> 248       -0.18098

 The electronic state is 1-A.
 Alpha  occ. eigenvalues --  -46.94663 -19.30224 -19.29504 -19.25232 -19.24912
 Alpha  occ. eigenvalues --  -19.24061 -19.21988 -14.47053 -14.46435 -14.44537
 Alpha  occ. eigenvalues --  -14.42955 -10.42718 -10.42513 -10.40096 -10.37116
 Alpha  occ. eigenvalues --  -10.35901 -10.35893 -10.35643 -10.35322 -10.34785
 Alpha  occ. eigenvalues --  -10.34606 -10.34486 -10.34074 -10.33974 -10.33150
 Alpha  occ. eigenvalues --  -10.32779 -10.32534 -10.32417 -10.32232 -10.31955
 Alpha  occ. eigenvalues --  -10.31847 -10.31818 -10.31690 -10.31620 -10.31363
 Alpha  occ. eigenvalues --  -10.31354 -10.31204 -10.31174 -10.31033 -10.30844
 Alpha  occ. eigenvalues --  -10.30618 -10.30552 -10.30442 -10.30427 -10.30207
 Alpha  occ. eigenvalues --  -10.30171 -10.30135 -10.30060 -10.29942 -10.29938
 Alpha  occ. eigenvalues --  -10.29884 -10.29874 -10.29599 -10.29572 -10.29478
 Alpha  occ. eigenvalues --  -10.29428 -10.29238 -10.29050 -10.28707 -10.28556
 Alpha  occ. eigenvalues --  -10.28524 -10.28514 -10.28493 -10.28483 -10.28351
 Alpha  occ. eigenvalues --  -10.27543  -3.20598  -1.94209  -1.93725  -1.93560
 Alpha  occ. eigenvalues --   -1.19910  -1.16759  -1.13469  -1.11390  -1.09224
 Alpha  occ. eigenvalues --   -1.08781  -1.06331  -1.05050  -1.04647  -1.03924
 Alpha  occ. eigenvalues --   -0.94660  -0.93500  -0.91576  -0.90536  -0.90451
 Alpha  occ. eigenvalues --   -0.90281  -0.90155  -0.89588  -0.89287  -0.88702
 Alpha  occ. eigenvalues --   -0.87490  -0.86923  -0.86297  -0.85497  -0.84876
 Alpha  occ. eigenvalues --   -0.84635  -0.84066  -0.82875  -0.82450  -0.81989
 Alpha  occ. eigenvalues --   -0.81899  -0.80503  -0.79864  -0.78479  -0.78280
 Alpha  occ. eigenvalues --   -0.77504  -0.77462  -0.76981  -0.76803  -0.76405
 Alpha  occ. eigenvalues --   -0.75403  -0.74554  -0.73670  -0.72880  -0.71118
 Alpha  occ. eigenvalues --   -0.70941  -0.70392  -0.69332  -0.69191  -0.67405
 Alpha  occ. eigenvalues --   -0.67155  -0.66881  -0.66269  -0.66130  -0.65890
 Alpha  occ. eigenvalues --   -0.65552  -0.65148  -0.63963  -0.63321  -0.62504
 Alpha  occ. eigenvalues --   -0.61829  -0.61295  -0.61015  -0.60239  -0.59629
 Alpha  occ. eigenvalues --   -0.59255  -0.59067  -0.58420  -0.57732  -0.57270
 Alpha  occ. eigenvalues --   -0.57125  -0.56882  -0.56384  -0.56300  -0.56083
 Alpha  occ. eigenvalues --   -0.55742  -0.55589  -0.55313  -0.55206  -0.54918
 Alpha  occ. eigenvalues --   -0.54715  -0.54353  -0.54006  -0.53702  -0.53653
 Alpha  occ. eigenvalues --   -0.53253  -0.53112  -0.52935  -0.52859  -0.52581
 Alpha  occ. eigenvalues --   -0.52454  -0.52379  -0.52111  -0.52008  -0.51182
 Alpha  occ. eigenvalues --   -0.51151  -0.51067  -0.50784  -0.50704  -0.50509
 Alpha  occ. eigenvalues --   -0.50223  -0.50001  -0.49869  -0.49639  -0.49558
 Alpha  occ. eigenvalues --   -0.49229  -0.49111  -0.49048  -0.48942  -0.48622
 Alpha  occ. eigenvalues --   -0.48269  -0.48090  -0.47979  -0.47761  -0.47685
 Alpha  occ. eigenvalues --   -0.47486  -0.47156  -0.46833  -0.46805  -0.46577
 Alpha  occ. eigenvalues --   -0.46541  -0.46499  -0.46030  -0.45877  -0.45682
 Alpha  occ. eigenvalues --   -0.45571  -0.45474  -0.45142  -0.44996  -0.44821
 Alpha  occ. eigenvalues --   -0.44713  -0.44436  -0.44161  -0.44139  -0.43760
 Alpha  occ. eigenvalues --   -0.43579  -0.43547  -0.43471  -0.43300  -0.43076
 Alpha  occ. eigenvalues --   -0.42892  -0.42526  -0.42447  -0.42242  -0.42123
 Alpha  occ. eigenvalues --   -0.41821  -0.41472  -0.41168  -0.41023  -0.40968
 Alpha  occ. eigenvalues --   -0.40669  -0.40605  -0.40375  -0.39390  -0.39242
 Alpha  occ. eigenvalues --   -0.39120  -0.38950  -0.38822  -0.38164  -0.38162
 Alpha  occ. eigenvalues --   -0.38009  -0.37637  -0.37202  -0.36787  -0.35995
 Alpha  occ. eigenvalues --   -0.35790  -0.35428  -0.35127  -0.34115  -0.33307
 Alpha  occ. eigenvalues --   -0.32872  -0.32416  -0.31566  -0.31041  -0.25927
 Alpha  occ. eigenvalues --   -0.23223
 Alpha virt. eigenvalues --   -0.07277   0.00534   0.02386   0.04473   0.05596
 Alpha virt. eigenvalues --    0.06426   0.07419   0.08085   0.08682   0.09129
 Alpha virt. eigenvalues --    0.10262   0.11326   0.11653   0.12140   0.12531

 Mulliken charges:
               1
     1  Mg   0.961001
     2  C   -0.025669
     3  C   -0.093278
     4  C   -0.077195
     5  C   -0.076397
     6  N   -0.349281
     7  C   -0.010192
     8  C   -0.101973
     9  C   -0.073640
    10  C    0.072625
    11  C    0.002224
    12  C    0.025045
    13  C    0.039268
    14  C    0.160989
    15  O   -0.214558
    16  O   -0.371976
    17  N   -0.458714
    18  C    0.166972
    19  C   -0.181439
    20  C   -0.113844
    21  C    0.148953
    22  C    0.062006
    23  C    0.096783
    24  O   -0.224243
    25  C   -0.028994
    26  N   -0.397407
    27  C    0.101413
    28  C   -0.124859
    29  C   -0.038397
    30  C    0.075812
    31  C    0.007128
    32  C   -0.034037
    33  C   -0.058830
    34  N   -0.432335
    35  C    0.111429
    36  C   -0.196161
    37  C    0.015819
    38  C    0.166936
    39  C    0.080521
    40  C    0.077066
    41  O   -0.254742
    42  C   -0.050092
    43  C    0.261955
    44  O   -0.228561
    45  O   -0.388673
    46  C    0.145545
    47  C    0.249754
    48  C   -0.179808
    49  C   -0.170544
    50  C    0.048655
    51  C    0.007363
    52  C   -0.026093
    53  C    0.011496
    54  C   -0.183137
    55  C   -0.010680
    56  C    0.026632
    57  C   -0.010267
    58  C    0.011505
    59  C   -0.230740
    60  C    0.009204
    61  C   -0.006447
    62  C   -0.021431
    63  C    0.001003
    64  C   -0.191377
    65  C   -0.026166
    66  C   -0.024149
    67  H   -0.012868
    68  H    0.033744
    69  H    0.006401
    70  H    0.076336
    71  H    0.040569
    72  H    0.030043
    73  H    0.053144
    74  H    0.040772
    75  H    0.038696
    76  H    0.036735
    77  H    0.048014
    78  H    0.056098
    79  H    0.046185
    80  H    0.054561
    81  H    0.069050
    82  H    0.076720
    83  H    0.042578
    84  H    0.053346
    85  H    0.047957
    86  H    0.029215
    87  H    0.031771
    88  H    0.041745
    89  H    0.042622
    90  H    0.036394
    91  H    0.026598
    92  H    0.045475
    93  H    0.042031
    94  H    0.033442
    95  H    0.047926
    96  H    0.035617
    97  H    0.058414
    98  H    0.072677
    99  H    0.045552
   100  H    0.068478
   101  H    0.049779
   102  H    0.044900
   103  H    0.033275
   104  H    0.020368
   105  H    0.033000
   106  H    0.041829
   107  H    0.047234
   108  H    0.050801
   109  H    0.013902
   110  H    0.020897
   111  H    0.036505
   112  H    0.011584
   113  H    0.022160
   114  H    0.025346
   115  H    0.010354
   116  H    0.016205
   117  H    0.034560
   118  H    0.032634
   119  H    0.028716
   120  H    0.004911
   121  H    0.021174
   122  H    0.012252
   123  H    0.002684
   124  H    0.012780
   125  H    0.041838
   126  H    0.033986
   127  H    0.031077
   128  H    0.033285
   129  H    0.015630
   130  H    0.018511
   131  H    0.026658
   132  H    0.002832
   133  H    0.024351
   134  H    0.021182
   135  H    0.023445
   136  H    0.030968
   137  H    0.027961
   138  H    0.026384
   139  H    0.032347
   140  H    0.026878
 Sum of Mulliken charges =  -0.00000

 Dipole moment (field-independent basis, Debye):
    X=              6.2712    Y=              5.3313    Z=             -4.3696  Tot=              9.3191
 Quadrupole moment (field-independent basis, Debye-Ang):
   XX=           -381.7287   YY=           -425.2283   ZZ=           -402.6202
   XY=            -26.4827   XZ=              9.0423   YZ=              6.2510

 Normal termination of Gaussian 16 at Thu May  5 05:54:34 2022.
