 Gaussian 16, Revision A.03,
 Gaussian 16:  ES64L-G16RevA.03 25-Dec-2016

 --------------------
 #p ZINDO=(nstates=5)
 --------------------

 ----------------------------
 step_651_chromophore_9 ZINDO
 ----------------------------
 Symbolic Z-matrix:
 Charge =  0 Multiplicity = 1

                         Standard orientation:
 ---------------------------------------------------------------------
 Center     Atomic      Atomic             Coordinates (Angstroms)
 Number     Number       Type             X           Y           Z
 ---------------------------------------------------------------------
      1         12           0       -5.020064    0.723411   -0.045614
      2          6           0       -3.806073   -2.474051    0.199923
      3          6           0       -1.662261    1.837145   -0.216156
      4          6           0       -6.093470    3.936717    0.193072
      5          6           0       -8.279011   -0.474306    0.388998
      6          7           0       -2.980452   -0.226730    0.155137
      7          6           0       -2.774916   -1.573376    0.073279
      8          6           0       -1.269791   -1.862591   -0.053027
      9          6           0       -0.551346   -0.490654    0.082000
     10          6           0       -1.756286    0.443769    0.030327
     11          6           0        0.585466   -0.310982    1.164592
     12          6           0       -0.945735   -2.606767   -1.482383
     13          6           0        0.176177   -3.723830   -1.353540
     14          6           0        1.154744   -3.557841   -0.225860
     15          8           0        1.106813   -4.161615    0.774354
     16          8           0        2.191810   -2.733101   -0.577326
     17          7           0       -4.008059    2.555369   -0.149582
     18          6           0       -2.666226    2.812001   -0.283650
     19          6           0       -2.456006    4.259796   -0.430217
     20          6           0       -3.748404    4.887126   -0.195559
     21          6           0       -4.680645    3.766426   -0.039002
     22          6           0       -1.104215    4.848278   -0.677453
     23          6           0       -4.121542    6.400203   -0.113084
     24          8           0       -5.227113    6.797083    0.216357
     25          6           0       -3.062392    7.354458   -0.370673
     26          7           0       -6.937007    1.578662    0.111058
     27          6           0       -7.115551    2.946927    0.181209
     28          6           0       -8.636621    3.295517    0.190351
     29          6           0       -9.318902    1.945416    0.254608
     30          6           0       -8.099417    0.893194    0.288851
     31          6           0       -9.068790    4.390202    1.266650
     32          6           0      -10.328330    1.793494   -0.916793
     33          6           0       -9.592700    1.680659   -2.268165
     34          7           0       -5.899047   -1.146034    0.215010
     35          6           0       -7.220567   -1.484549    0.336526
     36          6           0       -7.268490   -2.883181    0.546511
     37          6           0       -5.929285   -3.337247    0.397369
     38          6           0       -5.141043   -2.227634    0.251793
     39          6           0       -8.575774   -3.762408    0.806192
     40          6           0       -5.106852   -4.477897    0.365944
     41          8           0       -5.433149   -5.683900    0.485705
     42          6           0       -3.677012   -4.046929    0.091065
     43          6           0       -2.786164   -4.731242    1.101529
     44          8           0       -2.824922   -4.489041    2.283395
     45          8           0       -1.950842   -5.663592    0.487001
     46          6           0       -1.026988   -6.421001    1.387589
     47          6           0        3.303196   -2.612836    0.413480
     48          6           0        4.538687   -1.924566   -0.072214
     49          6           0        5.379240   -2.347834   -1.053506
     50          6           0        5.385695   -3.760835   -1.601043
     51          6           0        6.624661   -1.603964   -1.379560
     52          6           0        6.592884   -1.173153   -2.851490
     53          6           0        7.872552   -1.463326   -3.622766
     54          6           0        8.710180   -0.218656   -3.991460
     55          6           0        9.714091   -0.523248   -5.143583
     56          6           0        9.536579    0.195785   -2.647082
     57          6           0        9.427373    1.679621   -2.452647
     58          6           0       10.566902    2.264780   -1.670579
     59          6           0       10.209984    2.804683   -0.203061
     60          6           0       10.087721    4.366802   -0.154429
     61          6           0       11.238077    2.338833    0.887812
     62          6           0       10.711280    2.596314    2.417855
     63          6           0       10.201407    1.383455    3.281889
     64          6           0       11.069951    0.897450    4.420919
     65          6           0       10.832195   -0.587906    4.796625
     66          6           0       11.155698    1.874258    5.685809
     67          1           0       -0.648892    2.237141   -0.290552
     68          1           0       -6.473043    4.960695    0.175824
     69          1           0       -9.277760   -0.807432    0.677806
     70          1           0       -1.046925   -2.461155    0.829990
     71          1           0        0.076967   -0.256650   -0.777847
     72          1           0        1.531559   -0.031689    0.702387
     73          1           0        0.800327   -1.236006    1.699394
     74          1           0        0.350210    0.499569    1.854164
     75          1           0       -0.705703   -1.902586   -2.278219
     76          1           0       -1.844522   -3.091176   -1.865305
     77          1           0        0.707822   -3.821365   -2.300317
     78          1           0       -0.277260   -4.700805   -1.183672
     79          1           0       -1.348507    5.590161   -1.437042
     80          1           0       -0.344790    4.174134   -1.072849
     81          1           0       -0.813129    5.371914    0.231976
     82          1           0       -2.608255    7.450457   -1.357002
     83          1           0       -2.243409    7.095383    0.300057
     84          1           0       -3.399889    8.339585   -0.046882
     85          1           0       -8.916994    3.840741   -0.710633
     86          1           0       -9.887188    1.880190    1.182107
     87          1           0       -9.582750    5.155999    0.685849
     88          1           0       -8.207988    4.927976    1.664210
     89          1           0       -9.601926    4.021876    2.142987
     90          1           0      -11.074084    2.586118   -0.979774
     91          1           0      -10.868018    0.865257   -0.726031
     92          1           0       -9.637131    0.615939   -2.495999
     93          1           0       -8.563629    2.039728   -2.246554
     94          1           0      -10.072672    2.290730   -3.033649
     95          1           0       -8.867620   -4.252910   -0.122641
     96          1           0       -9.411778   -3.166532    1.171177
     97          1           0       -8.289207   -4.605440    1.435214
     98          1           0       -3.326635   -4.317436   -0.905779
     99          1           0       -1.492460   -7.312980    1.807267
    100          1           0       -0.733119   -5.802337    2.235308
    101          1           0       -0.165979   -6.859475    0.883535
    102          1           0        3.566053   -3.610829    0.765839
    103          1           0        3.112577   -2.053630    1.328716
    104          1           0        4.684876   -0.969304    0.432040
    105          1           0        4.681691   -4.419932   -1.090888
    106          1           0        6.412691   -4.082360   -1.427119
    107          1           0        5.101815   -3.820667   -2.651191
    108          1           0        7.485032   -2.155748   -1.001708
    109          1           0        6.554013   -0.674313   -0.813763
    110          1           0        6.467874   -0.090433   -2.812107
    111          1           0        5.690743   -1.534325   -3.345472
    112          1           0        7.529598   -1.915386   -4.554455
    113          1           0        8.512574   -2.152729   -3.071421
    114          1           0        8.070985    0.558068   -4.412026
    115          1           0        9.445828    0.120864   -5.981729
    116          1           0        9.578902   -1.449060   -5.704243
    117          1           0       10.789917   -0.387659   -5.032837
    118          1           0       10.573050   -0.059771   -2.871022
    119          1           0        9.067809   -0.320725   -1.809287
    120          1           0        8.579694    1.899104   -1.804208
    121          1           0        9.220597    2.303313   -3.321783
    122          1           0       11.036663    3.060979   -2.246809
    123          1           0       11.372208    1.557535   -1.472284
    124          1           0        9.294911    2.296961    0.101376
    125          1           0       10.957150    4.906193    0.221849
    126          1           0        9.257598    4.341956    0.551212
    127          1           0        9.799927    4.777499   -1.122348
    128          1           0       12.188361    2.734039    0.529475
    129          1           0       11.265365    1.249525    0.881050
    130          1           0        9.842990    3.254389    2.440778
    131          1           0       11.495968    3.101774    2.979919
    132          1           0       10.087945    0.555803    2.582909
    133          1           0        9.235403    1.560847    3.756106
    134          1           0       12.100147    0.753317    4.093328
    135          1           0       10.710775   -1.096579    3.839880
    136          1           0       10.010857   -0.816636    5.475818
    137          1           0       11.718014   -1.000758    5.278890
    138          1           0       10.689092    1.497602    6.596284
    139          1           0       10.764911    2.878125    5.518709
    140          1           0       12.198111    1.965882    5.991439
 ---------------------------------------------------------------------

 SCF Done:  E(RZINDO/S) =  -474.049913895     A.U. after   19 cycles

 Excitation energies and oscillator strengths:

 Excited State   1:      Singlet-A      1.2885 eV  962.23 nm  f=0.6095  <S**2>=0.000
     175 ->178         0.17424
     176 ->177         0.66836
 This state for optimization and/or second-order correction.
 Total Energy, E(CIS/TDA) =  -474.002561936
 Copying the excited state density for this state as the 1-particle RhoCI density.

 Excited State   2:      Singlet-A      1.9417 eV  638.53 nm  f=0.0961  <S**2>=0.000
     175 ->177         0.57711
     176 ->178        -0.37547

 Excited State   3:      Singlet-A      2.9067 eV  426.55 nm  f=0.0002  <S**2>=0.000
     171 ->177         0.34420
     171 ->178        -0.13925
     171 ->179         0.23879
     171 ->180         0.41019
     171 ->186        -0.16753
     171 ->188        -0.14708
     171 ->189         0.11204
     171 ->205        -0.11295

 Excited State   4:      Singlet-A      3.0394 eV  407.93 nm  f=0.0001  <S**2>=0.000
     167 ->177        -0.19695
     167 ->179         0.34152
     167 ->180        -0.16034
     167 ->186        -0.15429
     168 ->177        -0.22422
     168 ->179         0.33975
     168 ->180        -0.15892
     168 ->186        -0.15186

 Excited State   5:      Singlet-A      3.0954 eV  400.54 nm  f=1.0762  <S**2>=0.000
     170 ->177        -0.12889
     175 ->177         0.34665
     176 ->178         0.55470
     176 ->179        -0.11302
     176 ->180        -0.13130

 The electronic state is 1-A.
 Alpha  occ. eigenvalues --   -1.86074  -1.79107  -1.78398  -1.74267  -1.69709
 Alpha  occ. eigenvalues --   -1.69444  -1.65411  -1.60716  -1.60269  -1.57468
 Alpha  occ. eigenvalues --   -1.55582  -1.51919  -1.48121  -1.46656  -1.45835
 Alpha  occ. eigenvalues --   -1.43623  -1.42672  -1.40870  -1.38947  -1.38095
 Alpha  occ. eigenvalues --   -1.35948  -1.33034  -1.31399  -1.29226  -1.27651
 Alpha  occ. eigenvalues --   -1.27001  -1.24563  -1.22861  -1.21678  -1.18122
 Alpha  occ. eigenvalues --   -1.17888  -1.16330  -1.15814  -1.14114  -1.13261
 Alpha  occ. eigenvalues --   -1.11703  -1.11539  -1.11087  -1.04194  -1.03742
 Alpha  occ. eigenvalues --   -1.02897  -1.00604  -1.00156  -0.98160  -0.97796
 Alpha  occ. eigenvalues --   -0.96358  -0.94402  -0.93918  -0.92890  -0.91546
 Alpha  occ. eigenvalues --   -0.89933  -0.89405  -0.89003  -0.87510  -0.85899
 Alpha  occ. eigenvalues --   -0.85876  -0.85010  -0.83596  -0.81009  -0.80759
 Alpha  occ. eigenvalues --   -0.80298  -0.78745  -0.77428  -0.77391  -0.76611
 Alpha  occ. eigenvalues --   -0.75713  -0.75240  -0.74775  -0.74431  -0.74237
 Alpha  occ. eigenvalues --   -0.73337  -0.72839  -0.72293  -0.71771  -0.70142
 Alpha  occ. eigenvalues --   -0.69788  -0.69401  -0.69030  -0.68812  -0.68298
 Alpha  occ. eigenvalues --   -0.68066  -0.67745  -0.66582  -0.65794  -0.65487
 Alpha  occ. eigenvalues --   -0.65110  -0.64248  -0.63793  -0.63643  -0.63400
 Alpha  occ. eigenvalues --   -0.62937  -0.62421  -0.61992  -0.61687  -0.61175
 Alpha  occ. eigenvalues --   -0.60829  -0.60476  -0.60263  -0.60043  -0.59742
 Alpha  occ. eigenvalues --   -0.59657  -0.59582  -0.59294  -0.58488  -0.58056
 Alpha  occ. eigenvalues --   -0.57868  -0.57652  -0.56912  -0.56722  -0.56311
 Alpha  occ. eigenvalues --   -0.56140  -0.55607  -0.55511  -0.55037  -0.54377
 Alpha  occ. eigenvalues --   -0.54041  -0.53867  -0.53321  -0.53174  -0.52711
 Alpha  occ. eigenvalues --   -0.52435  -0.52358  -0.51882  -0.51578  -0.51484
 Alpha  occ. eigenvalues --   -0.51438  -0.51171  -0.51046  -0.50683  -0.50507
 Alpha  occ. eigenvalues --   -0.50282  -0.50013  -0.49419  -0.49241  -0.49133
 Alpha  occ. eigenvalues --   -0.48891  -0.48656  -0.48253  -0.48066  -0.47536
 Alpha  occ. eigenvalues --   -0.47438  -0.47361  -0.47249  -0.47228  -0.46802
 Alpha  occ. eigenvalues --   -0.46249  -0.46061  -0.45920  -0.45586  -0.45563
 Alpha  occ. eigenvalues --   -0.45398  -0.44825  -0.44231  -0.44099  -0.43989
 Alpha  occ. eigenvalues --   -0.43613  -0.43388  -0.43220  -0.42812  -0.42617
 Alpha  occ. eigenvalues --   -0.41798  -0.41597  -0.40740  -0.39154  -0.38878
 Alpha  occ. eigenvalues --   -0.37359  -0.36747  -0.36136  -0.34840  -0.33813
 Alpha  occ. eigenvalues --   -0.33464  -0.32853  -0.32723  -0.31389  -0.26783
 Alpha  occ. eigenvalues --   -0.22206
 Alpha virt. eigenvalues --   -0.08886  -0.01931  -0.00626   0.01442   0.02677
 Alpha virt. eigenvalues --    0.02913   0.03112   0.03778   0.03832   0.04573
 Alpha virt. eigenvalues --    0.05895   0.06645   0.06734   0.07436   0.08033

 Mulliken charges:
               1
     1  Mg   0.420232
     2  C   -0.026156
     3  C   -0.074774
     4  C   -0.083746
     5  C   -0.067206
     6  N   -0.286658
     7  C    0.105821
     8  C    0.005297
     9  C    0.003269
    10  C    0.150594
    11  C   -0.047660
    12  C   -0.025870
    13  C   -0.001727
    14  C    0.480496
    15  O   -0.498197
    16  O   -0.281119
    17  N   -0.332385
    18  C    0.131447
    19  C    0.025115
    20  C   -0.060216
    21  C    0.156731
    22  C   -0.040011
    23  C    0.345410
    24  O   -0.509477
    25  C   -0.027319
    26  N   -0.272310
    27  C    0.160850
    28  C    0.002252
    29  C    0.004049
    30  C    0.103247
    31  C   -0.061570
    32  C   -0.027227
    33  C   -0.058112
    34  N   -0.316573
    35  C    0.076165
    36  C    0.000914
    37  C   -0.050053
    38  C    0.124107
    39  C   -0.048988
    40  C    0.333997
    41  O   -0.555467
    42  C    0.047290
    43  C    0.490604
    44  O   -0.506823
    45  O   -0.276880
    46  C    0.072002
    47  C    0.097667
    48  C   -0.100225
    49  C    0.004907
    50  C   -0.043063
    51  C   -0.020880
    52  C   -0.028231
    53  C   -0.029720
    54  C   -0.019148
    55  C   -0.072272
    56  C   -0.032616
    57  C   -0.029929
    58  C   -0.041894
    59  C   -0.024191
    60  C   -0.064546
    61  C   -0.043248
    62  C   -0.043111
    63  C   -0.025136
    64  C   -0.009734
    65  C   -0.057225
    66  C   -0.061724
    67  H    0.021615
    68  H    0.053609
    69  H    0.031928
    70  H    0.053188
    71  H    0.025355
    72  H    0.017813
    73  H    0.034749
    74  H    0.022788
    75  H    0.028753
    76  H    0.025122
    77  H    0.032199
    78  H    0.042234
    79  H    0.026771
    80  H    0.036553
    81  H    0.040745
    82  H    0.045338
    83  H    0.031066
    84  H    0.032463
    85  H    0.035121
    86  H    0.021825
    87  H    0.021539
    88  H    0.022051
    89  H    0.029907
    90  H    0.022108
    91  H    0.013244
    92  H    0.023729
    93  H    0.024705
    94  H    0.014696
    95  H    0.026983
    96  H    0.027305
    97  H    0.037282
    98  H    0.052632
    99  H    0.036046
   100  H    0.053593
   101  H    0.036609
   102  H    0.045480
   103  H    0.040299
   104  H    0.025534
   105  H    0.022632
   106  H    0.028882
   107  H    0.030122
   108  H    0.036020
   109  H    0.009307
   110  H    0.012976
   111  H    0.025414
   112  H    0.009030
   113  H    0.023523
   114  H    0.031365
   115  H    0.002964
   116  H    0.016658
   117  H    0.026639
   118  H    0.031749
   119  H    0.032353
   120  H    0.010454
   121  H    0.023564
   122  H    0.013980
   123  H    0.012664
   124  H    0.020285
   125  H    0.029720
   126  H    0.022288
   127  H    0.019512
   128  H    0.033848
   129  H    0.011830
   130  H    0.018258
   131  H    0.018469
   132  H    0.014477
   133  H    0.021074
   134  H    0.013663
   135  H    0.015554
   136  H    0.020899
   137  H    0.013524
   138  H    0.019096
   139  H    0.021133
   140  H    0.014050
 Sum of Mulliken charges =  -0.00000

 Dipole moment (field-independent basis, Debye):
    X=              8.6463    Y=              8.6168    Z=             -6.6676  Tot=             13.9091
 N-N= 4.382476454478D+03 E-N= 0.000000000000D+00  KE=-9.439060635110D+03
 Leave Link  601 at Thu May  5 06:13:36 2022, MaxMem=  6710886400 cpu:               6.9 elap:               0.3
 (Enter /sw/apps/gaussian-16.0/g16/l9999.exe)
 1\1\GINC-BP1-COMPUTE212\SP\RZINDO CIS\STO-3G\C55H74Mg1N4O6\OF15641\05-
 May-2022\0\\#p ZINDO=(nstates=5)\\step_651_chromophore_9 ZINDO\\0,1\Mg
 ,0,35.461,1.787,29.884\C,0,33.19,2.752,32.265\C,0,37.932,1.833,32.421\
 C,0,37.861,1.309,27.529\C,0,32.988,2.026,27.42\N,0,35.55,2.405,32.055\
 C,0,34.437,2.593,32.822\C,0,34.839,2.707,34.302\C,0,36.393,2.68,34.333
 \C,0,36.679,2.313,32.88\C,0,37.177,3.844,35.059\C,0,34.169,1.486,35.17
 5\C,0,33.692,1.951,36.617\C,0,34.398,3.142,37.2\O,0,33.948,4.221,37.22

 Normal termination of Gaussian 16 at Thu May  5 06:13:36 2022.
