 Gaussian 16, Revision A.03,
 Gaussian 16:  ES64L-G16RevA.03 25-Dec-2016

 ------------------------------
 #p blyp/Def2SVP td=(nstates=5)
 ------------------------------

 ---------------------------------------------------
 step_1801_chromophore_13 TDDFT with blyp functional
 ---------------------------------------------------
 Symbolic Z-matrix:
 Charge =  0 Multiplicity = 1

                         Standard orientation:
 ---------------------------------------------------------------------
 Center     Atomic      Atomic             Coordinates (Angstroms)
 Number     Number       Type             X           Y           Z
 ---------------------------------------------------------------------
      1         12           0       -5.834529    0.253430   -0.136981
      2          6           0       -3.446162   -2.159588   -0.052885
      3          6           0       -3.381733    2.610192    0.443264
      4          6           0       -8.192541    2.622381    0.106622
      5          6           0       -8.358442   -2.043427   -0.958714
      6          7           0       -3.651342    0.206714    0.184593
      7          6           0       -2.917937   -0.891998    0.098399
      8          6           0       -1.467866   -0.577966    0.318837
      9          6           0       -1.400213    0.981231    0.484953
     10          6           0       -2.861691    1.299003    0.414125
     11          6           0       -0.818702    1.496145    1.851693
     12          6           0       -0.483740   -1.078911   -0.798471
     13          6           0        0.685883   -1.946655   -0.246392
     14          6           0        2.184142   -1.829201   -0.806744
     15          8           0        2.510595   -1.144492   -1.714409
     16          8           0        3.127134   -2.484723   -0.085997
     17          7           0       -5.781048    2.314883    0.300152
     18          6           0       -4.682725    3.085923    0.530533
     19          6           0       -5.012040    4.445468    0.695791
     20          6           0       -6.443174    4.484306    0.769768
     21          6           0       -6.930817    3.140728    0.347315
     22          6           0       -4.049496    5.493518    0.868439
     23          6           0       -7.374105    5.578303    1.155445
     24          8           0       -8.603060    5.557396    1.066294
     25          6           0       -6.721474    6.804570    1.732814
     26          7           0       -7.856350    0.254036   -0.306879
     27          6           0       -8.660847    1.387964   -0.102448
     28          6           0      -10.175839    1.050640   -0.106811
     29          6           0      -10.117569   -0.240416   -0.990677
     30          6           0       -8.657330   -0.686708   -0.747280
     31          6           0      -10.751487    0.853110    1.360561
     32          6           0      -10.425666    0.010667   -2.450964
     33          6           0       -9.300039    0.479789   -3.444252
     34          7           0       -5.983054   -1.717652   -0.475096
     35          6           0       -7.055591   -2.499907   -0.795617
     36          6           0       -6.557285   -3.919533   -0.963964
     37          6           0       -5.156335   -3.792349   -0.639345
     38          6           0       -4.829531   -2.472341   -0.372617
     39          6           0       -7.275430   -5.198660   -1.220018
     40          6           0       -4.017118   -4.519322   -0.315741
     41          8           0       -3.809333   -5.689834   -0.385148
     42          6           0       -2.872132   -3.562949    0.068896
     43          6           0       -2.565396   -3.921067    1.437186
     44          8           0       -3.260634   -3.623888    2.416851
     45          8           0       -1.314623   -4.474299    1.423982
     46          6           0       -0.846514   -4.865127    2.790854
     47          6           0        4.548069   -2.358625   -0.439614
     48          6           0        5.199790   -1.170904    0.218616
     49          6           0        6.518758   -0.809132    0.107171
     50          6           0        7.565459   -1.501105   -0.799222
     51          6           0        7.008632    0.442320    0.896305
     52          6           0        6.917940    1.734926    0.080470
     53          6           0        8.050843    2.746359    0.150186
     54          6           0        8.811403    2.859125   -1.223368
     55          6           0        7.765659    3.177189   -2.373434
     56          6           0        9.777477    1.648167   -1.501257
     57          6           0       11.169946    2.210380   -1.560835
     58          6           0       12.220812    1.329496   -2.279630
     59          6           0       13.494376    1.203882   -1.431866
     60          6           0       14.681504    1.213091   -2.453999
     61          6           0       13.646669   -0.089940   -0.548047
     62          6           0       13.969379    0.169727    0.871866
     63          6           0       12.678748    0.340895    1.806246
     64          6           0       12.062145   -1.052512    2.044335
     65          6           0       10.528414   -1.146797    1.812494
     66          6           0       12.419319   -1.603780    3.479641
     67          1           0       -2.480546    3.227061    0.445595
     68          1           0       -8.983373    3.354770    0.284514
     69          1           0       -9.170601   -2.691309   -1.295019
     70          1           0       -1.264736   -0.975418    1.313194
     71          1           0       -0.988652    1.574704   -0.330789
     72          1           0       -0.426591    0.671408    2.446131
     73          1           0       -1.577530    2.043366    2.410324
     74          1           0        0.003629    2.165265    1.601468
     75          1           0       -0.019775   -0.194496   -1.236599
     76          1           0       -0.959315   -1.683111   -1.572079
     77          1           0        0.549450   -3.020169   -0.372178
     78          1           0        0.704706   -1.779206    0.830567
     79          1           0       -4.179473    6.047129    1.798627
     80          1           0       -4.196665    6.242461    0.089358
     81          1           0       -3.001990    5.306823    0.632555
     82          1           0       -5.994444    7.223639    1.037316
     83          1           0       -6.223053    6.587067    2.676964
     84          1           0       -7.429244    7.549150    2.097516
     85          1           0      -10.729076    1.797171   -0.675443
     86          1           0      -10.773982   -1.066475   -0.717970
     87          1           0       -9.845951    0.818188    1.965888
     88          1           0      -11.234870   -0.112655    1.505785
     89          1           0      -11.466122    1.612738    1.680269
     90          1           0      -11.321798    0.626954   -2.525892
     91          1           0      -10.788708   -0.866913   -2.986322
     92          1           0       -9.050191   -0.402825   -4.033029
     93          1           0       -8.403982    0.844693   -2.942415
     94          1           0       -9.804680    1.235839   -4.045407
     95          1           0       -7.944032   -5.026423   -2.063288
     96          1           0       -7.904545   -5.451602   -0.365992
     97          1           0       -6.628082   -6.048255   -1.435622
     98          1           0       -2.020061   -3.626172   -0.607793
     99          1           0       -1.478953   -5.506076    3.405939
    100          1           0       -0.535431   -4.019130    3.402630
    101          1           0       -0.009691   -5.502873    2.505158
    102          1           0        4.689707   -2.214014   -1.510628
    103          1           0        4.995171   -3.299487   -0.119721
    104          1           0        4.697409   -0.545011    0.956396
    105          1           0        7.121528   -2.069453   -1.616674
    106          1           0        8.230711   -2.045447   -0.128717
    107          1           0        8.141785   -0.704689   -1.268719
    108          1           0        8.032362    0.197573    1.176306
    109          1           0        6.428082    0.669853    1.790353
    110          1           0        5.998120    2.203532    0.430385
    111          1           0        6.643779    1.413119   -0.923615
    112          1           0        8.779538    2.454004    0.906378
    113          1           0        7.688378    3.759120    0.329405
    114          1           0        9.457238    3.724740   -1.076599
    115          1           0        8.085780    4.114638   -2.829134
    116          1           0        6.737032    3.322042   -2.042321
    117          1           0        7.783408    2.456119   -3.190131
    118          1           0        9.655999    1.003654   -2.371280
    119          1           0        9.841928    0.991981   -0.632974
    120          1           0       11.395318    2.580425   -0.560955
    121          1           0       11.144572    3.003467   -2.307260
    122          1           0       12.379365    1.751863   -3.271378
    123          1           0       11.889214    0.298830   -2.404542
    124          1           0       13.502680    2.093867   -0.802484
    125          1           0       15.602246    0.743374   -2.106887
    126          1           0       15.056783    2.220864   -2.632358
    127          1           0       14.476263    0.953848   -3.492436
    128          1           0       14.425378   -0.756034   -0.921036
    129          1           0       12.676518   -0.582535   -0.491050
    130          1           0       14.591461    1.065231    0.878522
    131          1           0       14.696824   -0.543275    1.260536
    132          1           0       11.988225    1.079838    1.399750
    133          1           0       13.114978    0.904852    2.630583
    134          1           0       12.552861   -1.705455    1.323024
    135          1           0       10.133767   -1.561786    2.739911
    136          1           0       10.336074   -1.802184    0.963312
    137          1           0       10.065498   -0.195187    1.552060
    138          1           0       13.017085   -0.841797    3.978580
    139          1           0       13.069407   -2.476687    3.416644
    140          1           0       11.581762   -1.950850    4.084929
 ---------------------------------------------------------------------

 SCF Done:  E(RB-LYP) =  -3007.33491191     A.U. after   20 cycles

 Excitation energies and oscillator strengths:

 Excited State   1:      Singlet-A      1.7972 eV  689.87 nm  f=0.2943  <S**2>=0.000
     245 -> 248        0.17531
     246 -> 247        0.68436
     246 <- 247       -0.16012
 This state for optimization and/or second-order correction.
 Total Energy, E(TD-HF/TD-DFT) =  -3007.26886607
 Copying the excited state density for this state as the 1-particle RhoCI density.

 Excited State   2:      Singlet-A      1.8383 eV  674.46 nm  f=0.0055  <S**2>=0.000
     244 -> 247        0.69220

 Excited State   3:      Singlet-A      1.8966 eV  653.73 nm  f=0.0277  <S**2>=0.000
     243 -> 247        0.58837
     245 -> 247       -0.36279

 Excited State   4:      Singlet-A      2.0721 eV  598.35 nm  f=0.0649  <S**2>=0.000
     243 -> 247        0.37240
     245 -> 247        0.53070
     246 -> 248       -0.22318
     246 -> 249        0.10476

 Excited State   5:      Singlet-A      2.2155 eV  559.62 nm  f=0.0000  <S**2>=0.000
     242 -> 247        0.70709

 The electronic state is 1-A.
 Alpha  occ. eigenvalues --  -46.25516 -18.83038 -18.81336 -18.76833 -18.76218
 Alpha  occ. eigenvalues --  -18.75091 -18.74970 -14.03139 -14.02702 -14.00570
 Alpha  occ. eigenvalues --  -14.00538 -10.03839 -10.03736  -9.99201  -9.98449
 Alpha  occ. eigenvalues --   -9.98314  -9.97857  -9.96393  -9.96083  -9.95946
 Alpha  occ. eigenvalues --   -9.95930  -9.95626  -9.95593  -9.94930  -9.94741
 Alpha  occ. eigenvalues --   -9.94536  -9.94401  -9.94215  -9.93955  -9.93846
 Alpha  occ. eigenvalues --   -9.93765  -9.93733  -9.93345  -9.93072  -9.93061
 Alpha  occ. eigenvalues --   -9.93002  -9.92958  -9.92660  -9.92628  -9.92569
 Alpha  occ. eigenvalues --   -9.92548  -9.92485  -9.92406  -9.92389  -9.92340
 Alpha  occ. eigenvalues --   -9.92169  -9.92146  -9.92031  -9.91759  -9.91691
 Alpha  occ. eigenvalues --   -9.91628  -9.91540  -9.91453  -9.91281  -9.91184
 Alpha  occ. eigenvalues --   -9.91113  -9.91092  -9.91067  -9.91032  -9.91018
 Alpha  occ. eigenvalues --   -9.90916  -9.90879  -9.90761  -9.90734  -9.90591
 Alpha  occ. eigenvalues --   -9.90309  -2.90430  -1.70864  -1.70323  -1.70126
 Alpha  occ. eigenvalues --   -0.98660  -0.97614  -0.92799  -0.90539  -0.90192
 Alpha  occ. eigenvalues --   -0.89603  -0.87407  -0.86652  -0.84925  -0.84289
 Alpha  occ. eigenvalues --   -0.76097  -0.73620  -0.72955  -0.72844  -0.72468
 Alpha  occ. eigenvalues --   -0.71906  -0.71800  -0.71493  -0.70907  -0.70626
 Alpha  occ. eigenvalues --   -0.69334  -0.68950  -0.68458  -0.67809  -0.67095
 Alpha  occ. eigenvalues --   -0.66454  -0.65917  -0.65583  -0.65235  -0.64556
 Alpha  occ. eigenvalues --   -0.63865  -0.62677  -0.62302  -0.61708  -0.61014
 Alpha  occ. eigenvalues --   -0.60370  -0.60282  -0.60073  -0.59638  -0.59367
 Alpha  occ. eigenvalues --   -0.58569  -0.57665  -0.56963  -0.55785  -0.54714
 Alpha  occ. eigenvalues --   -0.54297  -0.53824  -0.53177  -0.52870  -0.52045
 Alpha  occ. eigenvalues --   -0.51136  -0.51079  -0.50626  -0.50537  -0.50499
 Alpha  occ. eigenvalues --   -0.48935  -0.48704  -0.48306  -0.48010  -0.46371
 Alpha  occ. eigenvalues --   -0.46234  -0.45900  -0.45729  -0.45122  -0.44775
 Alpha  occ. eigenvalues --   -0.44041  -0.43855  -0.43512  -0.42645  -0.42385
 Alpha  occ. eigenvalues --   -0.42275  -0.41980  -0.41798  -0.41638  -0.41188
 Alpha  occ. eigenvalues --   -0.41022  -0.40806  -0.40536  -0.39931  -0.39902
 Alpha  occ. eigenvalues --   -0.39669  -0.39615  -0.39508  -0.39398  -0.39110
 Alpha  occ. eigenvalues --   -0.38914  -0.38881  -0.38671  -0.38421  -0.38213
 Alpha  occ. eigenvalues --   -0.38016  -0.37932  -0.37829  -0.37735  -0.37475
 Alpha  occ. eigenvalues --   -0.37409  -0.37245  -0.36874  -0.36606  -0.36564
 Alpha  occ. eigenvalues --   -0.36291  -0.36168  -0.36039  -0.35886  -0.35710
 Alpha  occ. eigenvalues --   -0.35677  -0.35119  -0.35055  -0.34661  -0.34560
 Alpha  occ. eigenvalues --   -0.34385  -0.34192  -0.34046  -0.33773  -0.33712
 Alpha  occ. eigenvalues --   -0.33582  -0.33376  -0.33258  -0.33206  -0.33146
 Alpha  occ. eigenvalues --   -0.32959  -0.32846  -0.32664  -0.32589  -0.32139
 Alpha  occ. eigenvalues --   -0.32033  -0.31944  -0.31816  -0.31670  -0.31308
 Alpha  occ. eigenvalues --   -0.31190  -0.31023  -0.30777  -0.30662  -0.30583
 Alpha  occ. eigenvalues --   -0.30510  -0.30413  -0.30190  -0.29846  -0.29635
 Alpha  occ. eigenvalues --   -0.29519  -0.29487  -0.29214  -0.29159  -0.28763
 Alpha  occ. eigenvalues --   -0.28588  -0.28491  -0.28309  -0.28149  -0.28097
 Alpha  occ. eigenvalues --   -0.27759  -0.27455  -0.27065  -0.26997  -0.26669
 Alpha  occ. eigenvalues --   -0.26501  -0.26028  -0.25730  -0.25592  -0.25189
 Alpha  occ. eigenvalues --   -0.25168  -0.24853  -0.24618  -0.23853  -0.23626
 Alpha  occ. eigenvalues --   -0.23272  -0.22317  -0.21908  -0.21447  -0.20275
 Alpha  occ. eigenvalues --   -0.19970  -0.19714  -0.18552  -0.18245  -0.17382
 Alpha  occ. eigenvalues --   -0.15672
 Alpha virt. eigenvalues --   -0.11572  -0.06892  -0.05821  -0.04281  -0.02736
 Alpha virt. eigenvalues --   -0.01559  -0.01519  -0.00899  -0.00561   0.00399
 Alpha virt. eigenvalues --    0.01350   0.01550   0.01861   0.02563   0.02687

 Mulliken charges:
               1
     1  Mg   0.703416
     2  C    0.012606
     3  C   -0.057858
     4  C   -0.031668
     5  C   -0.114956
     6  N   -0.176311
     7  C   -0.099047
     8  C    0.089166
     9  C   -0.021014
    10  C   -0.109554
    11  C    0.127360
    12  C    0.168719
    13  C    0.040785
    14  C    0.048715
    15  O   -0.154913
    16  O   -0.270640
    17  N   -0.289814
    18  C    0.211416
    19  C   -0.121041
    20  C    0.045816
    21  C    0.090074
    22  C    0.190331
    23  C   -0.075710
    24  O   -0.164012
    25  C    0.112078
    26  N   -0.222154
    27  C    0.016985
    28  C    0.043219
    29  C    0.055518
    30  C    0.028362
    31  C    0.142259
    32  C    0.032746
    33  C    0.073277
    34  N   -0.314771
    35  C    0.156056
    36  C   -0.178333
    37  C    0.146074
    38  C    0.053490
    39  C    0.175930
    40  C   -0.143233
    41  O   -0.107948
    42  C    0.116118
    43  C    0.129826
    44  O   -0.202264
    45  O   -0.263109
    46  C    0.214033
    47  C    0.336291
    48  C   -0.087046
    49  C   -0.217008
    50  C    0.144168
    51  C    0.145137
    52  C    0.062107
    53  C    0.107641
    54  C   -0.065849
    55  C    0.104477
    56  C    0.087127
    57  C    0.011992
    58  C    0.124837
    59  C   -0.062267
    60  C    0.085684
    61  C    0.153824
    62  C    0.014998
    63  C    0.098097
    64  C   -0.089193
    65  C    0.073658
    66  C    0.099305
    67  H   -0.079234
    68  H   -0.050508
    69  H   -0.059601
    70  H   -0.018006
    71  H   -0.005063
    72  H   -0.007585
    73  H    0.006694
    74  H   -0.007691
    75  H   -0.010446
    76  H   -0.003946
    77  H    0.014150
    78  H   -0.003142
    79  H    0.004140
    80  H   -0.011477
    81  H   -0.025178
    82  H    0.003478
    83  H    0.002928
    84  H   -0.021264
    85  H   -0.033212
    86  H   -0.048963
    87  H   -0.001325
    88  H   -0.014131
    89  H    0.010103
    90  H   -0.026861
    91  H   -0.037181
    92  H   -0.005768
    93  H    0.019566
    94  H   -0.003008
    95  H   -0.009843
    96  H    0.006699
    97  H    0.011214
    98  H   -0.011722
    99  H    0.023789
   100  H    0.017291
   101  H    0.012549
   102  H    0.011060
   103  H    0.009736
   104  H   -0.043242
   105  H   -0.010726
   106  H    0.015982
   107  H   -0.016622
   108  H   -0.048841
   109  H   -0.030781
   110  H   -0.040685
   111  H   -0.016011
   112  H   -0.035021
   113  H   -0.032882
   114  H   -0.036061
   115  H   -0.023969
   116  H   -0.000876
   117  H   -0.015963
   118  H   -0.013309
   119  H   -0.037582
   120  H   -0.006822
   121  H   -0.033159
   122  H   -0.032017
   123  H   -0.038505
   124  H   -0.031558
   125  H   -0.026656
   126  H   -0.039026
   127  H   -0.012401
   128  H   -0.031199
   129  H   -0.042873
   130  H   -0.048557
   131  H   -0.038880
   132  H   -0.040215
   133  H   -0.031225
   134  H   -0.014764
   135  H   -0.016048
   136  H   -0.003500
   137  H    0.029958
   138  H   -0.016190
   139  H   -0.021562
   140  H   -0.010461
 Sum of Mulliken charges =  -0.00000

 Dipole moment (field-independent basis, Debye):
    X=              3.9592    Y=              1.4723    Z=              0.2613  Tot=              4.2322
 Quadrupole moment (field-independent basis, Debye-Ang):
   XX=           -383.4363   YY=           -420.5388   ZZ=           -404.8857
   XY=             13.2804   XZ=             18.0910   YZ=             -0.8823

 Normal termination of Gaussian 16 at Wed May  4 14:50:31 2022.
