 Gaussian 16, Revision A.03,
 Gaussian 16:  ES64L-G16RevA.03 25-Dec-2016

 -----------------------------------
 #p cam-b3lyp/Def2SVP td=(nstates=5)
 -----------------------------------

 --------------------------------------------------------
 step_1801_chromophore_13 TDDFT with cam-b3lyp functional
 --------------------------------------------------------
 Symbolic Z-matrix:
 Charge =  0 Multiplicity = 1

                         Standard orientation:
 ---------------------------------------------------------------------
 Center     Atomic      Atomic             Coordinates (Angstroms)
 Number     Number       Type             X           Y           Z
 ---------------------------------------------------------------------
      1         12           0       -5.834529    0.253430   -0.136981
      2          6           0       -3.446162   -2.159588   -0.052885
      3          6           0       -3.381733    2.610192    0.443264
      4          6           0       -8.192541    2.622381    0.106622
      5          6           0       -8.358442   -2.043427   -0.958714
      6          7           0       -3.651342    0.206714    0.184593
      7          6           0       -2.917937   -0.891998    0.098399
      8          6           0       -1.467866   -0.577966    0.318837
      9          6           0       -1.400213    0.981231    0.484953
     10          6           0       -2.861691    1.299003    0.414125
     11          6           0       -0.818702    1.496145    1.851693
     12          6           0       -0.483740   -1.078911   -0.798471
     13          6           0        0.685883   -1.946655   -0.246392
     14          6           0        2.184142   -1.829201   -0.806744
     15          8           0        2.510595   -1.144492   -1.714409
     16          8           0        3.127134   -2.484723   -0.085997
     17          7           0       -5.781048    2.314883    0.300152
     18          6           0       -4.682725    3.085923    0.530533
     19          6           0       -5.012040    4.445468    0.695791
     20          6           0       -6.443174    4.484306    0.769768
     21          6           0       -6.930817    3.140728    0.347315
     22          6           0       -4.049496    5.493518    0.868439
     23          6           0       -7.374105    5.578303    1.155445
     24          8           0       -8.603060    5.557396    1.066294
     25          6           0       -6.721474    6.804570    1.732814
     26          7           0       -7.856350    0.254036   -0.306879
     27          6           0       -8.660847    1.387964   -0.102448
     28          6           0      -10.175839    1.050640   -0.106811
     29          6           0      -10.117569   -0.240416   -0.990677
     30          6           0       -8.657330   -0.686708   -0.747280
     31          6           0      -10.751487    0.853110    1.360561
     32          6           0      -10.425666    0.010667   -2.450964
     33          6           0       -9.300039    0.479789   -3.444252
     34          7           0       -5.983054   -1.717652   -0.475096
     35          6           0       -7.055591   -2.499907   -0.795617
     36          6           0       -6.557285   -3.919533   -0.963964
     37          6           0       -5.156335   -3.792349   -0.639345
     38          6           0       -4.829531   -2.472341   -0.372617
     39          6           0       -7.275430   -5.198660   -1.220018
     40          6           0       -4.017118   -4.519322   -0.315741
     41          8           0       -3.809333   -5.689834   -0.385148
     42          6           0       -2.872132   -3.562949    0.068896
     43          6           0       -2.565396   -3.921067    1.437186
     44          8           0       -3.260634   -3.623888    2.416851
     45          8           0       -1.314623   -4.474299    1.423982
     46          6           0       -0.846514   -4.865127    2.790854
     47          6           0        4.548069   -2.358625   -0.439614
     48          6           0        5.199790   -1.170904    0.218616
     49          6           0        6.518758   -0.809132    0.107171
     50          6           0        7.565459   -1.501105   -0.799222
     51          6           0        7.008632    0.442320    0.896305
     52          6           0        6.917940    1.734926    0.080470
     53          6           0        8.050843    2.746359    0.150186
     54          6           0        8.811403    2.859125   -1.223368
     55          6           0        7.765659    3.177189   -2.373434
     56          6           0        9.777477    1.648167   -1.501257
     57          6           0       11.169946    2.210380   -1.560835
     58          6           0       12.220812    1.329496   -2.279630
     59          6           0       13.494376    1.203882   -1.431866
     60          6           0       14.681504    1.213091   -2.453999
     61          6           0       13.646669   -0.089940   -0.548047
     62          6           0       13.969379    0.169727    0.871866
     63          6           0       12.678748    0.340895    1.806246
     64          6           0       12.062145   -1.052512    2.044335
     65          6           0       10.528414   -1.146797    1.812494
     66          6           0       12.419319   -1.603780    3.479641
     67          1           0       -2.480546    3.227061    0.445595
     68          1           0       -8.983373    3.354770    0.284514
     69          1           0       -9.170601   -2.691309   -1.295019
     70          1           0       -1.264736   -0.975418    1.313194
     71          1           0       -0.988652    1.574704   -0.330789
     72          1           0       -0.426591    0.671408    2.446131
     73          1           0       -1.577530    2.043366    2.410324
     74          1           0        0.003629    2.165265    1.601468
     75          1           0       -0.019775   -0.194496   -1.236599
     76          1           0       -0.959315   -1.683111   -1.572079
     77          1           0        0.549450   -3.020169   -0.372178
     78          1           0        0.704706   -1.779206    0.830567
     79          1           0       -4.179473    6.047129    1.798627
     80          1           0       -4.196665    6.242461    0.089358
     81          1           0       -3.001990    5.306823    0.632555
     82          1           0       -5.994444    7.223639    1.037316
     83          1           0       -6.223053    6.587067    2.676964
     84          1           0       -7.429244    7.549150    2.097516
     85          1           0      -10.729076    1.797171   -0.675443
     86          1           0      -10.773982   -1.066475   -0.717970
     87          1           0       -9.845951    0.818188    1.965888
     88          1           0      -11.234870   -0.112655    1.505785
     89          1           0      -11.466122    1.612738    1.680269
     90          1           0      -11.321798    0.626954   -2.525892
     91          1           0      -10.788708   -0.866913   -2.986322
     92          1           0       -9.050191   -0.402825   -4.033029
     93          1           0       -8.403982    0.844693   -2.942415
     94          1           0       -9.804680    1.235839   -4.045407
     95          1           0       -7.944032   -5.026423   -2.063288
     96          1           0       -7.904545   -5.451602   -0.365992
     97          1           0       -6.628082   -6.048255   -1.435622
     98          1           0       -2.020061   -3.626172   -0.607793
     99          1           0       -1.478953   -5.506076    3.405939
    100          1           0       -0.535431   -4.019130    3.402630
    101          1           0       -0.009691   -5.502873    2.505158
    102          1           0        4.689707   -2.214014   -1.510628
    103          1           0        4.995171   -3.299487   -0.119721
    104          1           0        4.697409   -0.545011    0.956396
    105          1           0        7.121528   -2.069453   -1.616674
    106          1           0        8.230711   -2.045447   -0.128717
    107          1           0        8.141785   -0.704689   -1.268719
    108          1           0        8.032362    0.197573    1.176306
    109          1           0        6.428082    0.669853    1.790353
    110          1           0        5.998120    2.203532    0.430385
    111          1           0        6.643779    1.413119   -0.923615
    112          1           0        8.779538    2.454004    0.906378
    113          1           0        7.688378    3.759120    0.329405
    114          1           0        9.457238    3.724740   -1.076599
    115          1           0        8.085780    4.114638   -2.829134
    116          1           0        6.737032    3.322042   -2.042321
    117          1           0        7.783408    2.456119   -3.190131
    118          1           0        9.655999    1.003654   -2.371280
    119          1           0        9.841928    0.991981   -0.632974
    120          1           0       11.395318    2.580425   -0.560955
    121          1           0       11.144572    3.003467   -2.307260
    122          1           0       12.379365    1.751863   -3.271378
    123          1           0       11.889214    0.298830   -2.404542
    124          1           0       13.502680    2.093867   -0.802484
    125          1           0       15.602246    0.743374   -2.106887
    126          1           0       15.056783    2.220864   -2.632358
    127          1           0       14.476263    0.953848   -3.492436
    128          1           0       14.425378   -0.756034   -0.921036
    129          1           0       12.676518   -0.582535   -0.491050
    130          1           0       14.591461    1.065231    0.878522
    131          1           0       14.696824   -0.543275    1.260536
    132          1           0       11.988225    1.079838    1.399750
    133          1           0       13.114978    0.904852    2.630583
    134          1           0       12.552861   -1.705455    1.323024
    135          1           0       10.133767   -1.561786    2.739911
    136          1           0       10.336074   -1.802184    0.963312
    137          1           0       10.065498   -0.195187    1.552060
    138          1           0       13.017085   -0.841797    3.978580
    139          1           0       13.069407   -2.476687    3.416644
    140          1           0       11.581762   -1.950850    4.084929
 ---------------------------------------------------------------------

 SCF Done:  E(RCAM-B3LYP) =  -3007.13966014     A.U. after   17 cycles

 Excitation energies and oscillator strengths:

 Excited State   1:      Singlet-A      1.6809 eV  737.60 nm  f=0.3962  <S**2>=0.000
     245 -> 248        0.16336
     246 -> 247        0.68854
     245 <- 248        0.10286
 This state for optimization and/or second-order correction.
 Total Energy, E(TD-HF/TD-DFT) =  -3007.07788790
 Copying the excited state density for this state as the 1-particle RhoCI density.

 Excited State   2:      Singlet-A      2.2612 eV  548.31 nm  f=0.1154  <S**2>=0.000
     245 -> 247        0.63515
     246 -> 248       -0.29181

 Excited State   3:      Singlet-A      3.2517 eV  381.29 nm  f=0.0022  <S**2>=0.000
     242 -> 247       -0.37071
     244 -> 247        0.57946

 Excited State   4:      Singlet-A      3.3770 eV  367.14 nm  f=0.0354  <S**2>=0.000
     240 -> 247       -0.14900
     242 -> 247        0.49229
     244 -> 247        0.32682
     246 -> 248        0.31994

 Excited State   5:      Singlet-A      3.4634 eV  357.98 nm  f=0.0386  <S**2>=0.000
     239 -> 247       -0.14201
     240 -> 247        0.54069
     240 -> 249        0.22954
     240 -> 250        0.16369
     242 -> 247        0.24133
     246 -> 248       -0.10777

 The electronic state is 1-A.
 Alpha  occ. eigenvalues --  -46.86935 -19.26164 -19.24190 -19.20033 -19.19191
 Alpha  occ. eigenvalues --  -19.18366 -19.18090 -14.42070 -14.41473 -14.39007
 Alpha  occ. eigenvalues --  -14.38922 -10.39292 -10.39060 -10.34221 -10.33814
 Alpha  occ. eigenvalues --  -10.32360 -10.32017 -10.30946 -10.30556 -10.30489
 Alpha  occ. eigenvalues --  -10.30321 -10.29885 -10.29831 -10.29324 -10.29118
 Alpha  occ. eigenvalues --  -10.28841 -10.28608 -10.28315 -10.28255 -10.28074
 Alpha  occ. eigenvalues --  -10.27749 -10.27633 -10.27622 -10.27467 -10.27209
 Alpha  occ. eigenvalues --  -10.26994 -10.26661 -10.26639 -10.26627 -10.26385
 Alpha  occ. eigenvalues --  -10.26360 -10.26356 -10.26294 -10.26202 -10.26197
 Alpha  occ. eigenvalues --  -10.25880 -10.25777 -10.25727 -10.25624 -10.25523
 Alpha  occ. eigenvalues --  -10.25397 -10.25136 -10.25121 -10.25114 -10.24922
 Alpha  occ. eigenvalues --  -10.24854 -10.24747 -10.24714 -10.24700 -10.24671
 Alpha  occ. eigenvalues --  -10.24620 -10.24580 -10.24530 -10.24393 -10.24374
 Alpha  occ. eigenvalues --  -10.24200  -3.15768  -1.90674  -1.90245  -1.90065
 Alpha  occ. eigenvalues --   -1.17205  -1.16281  -1.11490  -1.08727  -1.08058
 Alpha  occ. eigenvalues --   -1.07678  -1.05214  -1.04349  -1.02616  -1.01632
 Alpha  occ. eigenvalues --   -0.93415  -0.90487  -0.89752  -0.89604  -0.89167
 Alpha  occ. eigenvalues --   -0.88598  -0.88391  -0.88151  -0.87424  -0.87177
 Alpha  occ. eigenvalues --   -0.86003  -0.85306  -0.84759  -0.84058  -0.83220
 Alpha  occ. eigenvalues --   -0.82501  -0.81964  -0.81518  -0.81102  -0.80491
 Alpha  occ. eigenvalues --   -0.79620  -0.78400  -0.77885  -0.77238  -0.76476
 Alpha  occ. eigenvalues --   -0.75728  -0.75626  -0.75309  -0.74922  -0.74620
 Alpha  occ. eigenvalues --   -0.73641  -0.72748  -0.71837  -0.70599  -0.69320
 Alpha  occ. eigenvalues --   -0.69015  -0.68402  -0.67579  -0.67309  -0.66235
 Alpha  occ. eigenvalues --   -0.65369  -0.65143  -0.64642  -0.64631  -0.64566
 Alpha  occ. eigenvalues --   -0.62659  -0.62495  -0.62152  -0.61766  -0.59949
 Alpha  occ. eigenvalues --   -0.59914  -0.59491  -0.59235  -0.58728  -0.58401
 Alpha  occ. eigenvalues --   -0.57476  -0.57368  -0.56711  -0.55970  -0.55435
 Alpha  occ. eigenvalues --   -0.55267  -0.54826  -0.54752  -0.54638  -0.54356
 Alpha  occ. eigenvalues --   -0.53844  -0.53639  -0.53550  -0.52973  -0.52486
 Alpha  occ. eigenvalues --   -0.52399  -0.52317  -0.52120  -0.51909  -0.51690
 Alpha  occ. eigenvalues --   -0.51672  -0.51512  -0.51091  -0.50914  -0.50753
 Alpha  occ. eigenvalues --   -0.50377  -0.50259  -0.50209  -0.49996  -0.49700
 Alpha  occ. eigenvalues --   -0.49646  -0.49494  -0.49360  -0.49252  -0.49086
 Alpha  occ. eigenvalues --   -0.48647  -0.48341  -0.48270  -0.47990  -0.47786
 Alpha  occ. eigenvalues --   -0.47708  -0.47126  -0.46954  -0.46733  -0.46490
 Alpha  occ. eigenvalues --   -0.46394  -0.46168  -0.46012  -0.45716  -0.45679
 Alpha  occ. eigenvalues --   -0.45452  -0.45173  -0.44984  -0.44903  -0.44856
 Alpha  occ. eigenvalues --   -0.44738  -0.44456  -0.44183  -0.44180  -0.43972
 Alpha  occ. eigenvalues --   -0.43768  -0.43633  -0.43509  -0.43218  -0.43166
 Alpha  occ. eigenvalues --   -0.42878  -0.42616  -0.42224  -0.42063  -0.41917
 Alpha  occ. eigenvalues --   -0.41796  -0.41632  -0.41389  -0.41271  -0.41061
 Alpha  occ. eigenvalues --   -0.40826  -0.40639  -0.40580  -0.40317  -0.40141
 Alpha  occ. eigenvalues --   -0.39649  -0.39503  -0.39285  -0.39215  -0.39045
 Alpha  occ. eigenvalues --   -0.38575  -0.38295  -0.38163  -0.37957  -0.37486
 Alpha  occ. eigenvalues --   -0.37450  -0.37055  -0.37004  -0.36324  -0.36194
 Alpha  occ. eigenvalues --   -0.36020  -0.35585  -0.35363  -0.34681  -0.34175
 Alpha  occ. eigenvalues --   -0.34001  -0.33495  -0.33295  -0.31365  -0.30753
 Alpha  occ. eigenvalues --   -0.30387  -0.29600  -0.29322  -0.29039  -0.24286
 Alpha  occ. eigenvalues --   -0.20902
 Alpha virt. eigenvalues --   -0.08774  -0.01532   0.00576   0.02609   0.04009
 Alpha virt. eigenvalues --    0.04967   0.05416   0.05912   0.06866   0.07180
 Alpha virt. eigenvalues --    0.07950   0.08076   0.08629   0.08860   0.08907

 Mulliken charges:
               1
     1  Mg   0.842992
     2  C   -0.014207
     3  C   -0.070431
     4  C   -0.050049
     5  C   -0.117990
     6  N   -0.248291
     7  C   -0.050679
     8  C    0.027102
     9  C   -0.072894
    10  C   -0.085228
    11  C    0.070949
    12  C    0.111221
    13  C   -0.021004
    14  C    0.132038
    15  O   -0.195925
    16  O   -0.336180
    17  N   -0.375479
    18  C    0.217307
    19  C   -0.123362
    20  C   -0.025878
    21  C    0.113370
    22  C    0.118264
    23  C    0.006679
    24  O   -0.207719
    25  C    0.027000
    26  N   -0.297272
    27  C    0.027143
    28  C   -0.013636
    29  C   -0.002790
    30  C    0.042960
    31  C    0.086884
    32  C   -0.015209
    33  C    0.013550
    34  N   -0.409272
    35  C    0.164366
    36  C   -0.162038
    37  C    0.063778
    38  C    0.094851
    39  C    0.121250
    40  C   -0.052837
    41  O   -0.145088
    42  C    0.040552
    43  C    0.219172
    44  O   -0.238539
    45  O   -0.326275
    46  C    0.174157
    47  C    0.302933
    48  C   -0.108147
    49  C   -0.237858
    50  C    0.090653
    51  C    0.093671
    52  C    0.002209
    53  C    0.060251
    54  C   -0.123065
    55  C    0.041516
    56  C    0.040995
    57  C   -0.039015
    58  C    0.075149
    59  C   -0.118468
    60  C    0.026424
    61  C    0.098601
    62  C   -0.039457
    63  C    0.047124
    64  C   -0.150419
    65  C    0.025262
    66  C    0.044299
    67  H   -0.044291
    68  H   -0.009617
    69  H   -0.022321
    70  H    0.015361
    71  H    0.028798
    72  H    0.015605
    73  H    0.033538
    74  H    0.016455
    75  H    0.024115
    76  H    0.025603
    77  H    0.042261
    78  H    0.025991
    79  H    0.030395
    80  H    0.016414
    81  H    0.005831
    82  H    0.029934
    83  H    0.031121
    84  H    0.014919
    85  H    0.003393
    86  H   -0.010971
    87  H    0.023356
    88  H    0.009732
    89  H    0.033771
    90  H    0.002097
    91  H   -0.007507
    92  H    0.017032
    93  H    0.038427
    94  H    0.021111
    95  H    0.015090
    96  H    0.034175
    97  H    0.040574
    98  H    0.031499
    99  H    0.048056
   100  H    0.039683
   101  H    0.037340
   102  H    0.041248
   103  H    0.037951
   104  H   -0.009369
   105  H    0.014073
   106  H    0.037092
   107  H    0.003917
   108  H   -0.025674
   109  H    0.000799
   110  H   -0.010563
   111  H    0.013418
   112  H   -0.009140
   113  H   -0.002155
   114  H   -0.001493
   115  H    0.001548
   116  H    0.022718
   117  H    0.008438
   118  H    0.012804
   119  H   -0.018673
   120  H    0.015292
   121  H   -0.004244
   122  H   -0.001432
   123  H   -0.010177
   124  H    0.000155
   125  H   -0.001814
   126  H   -0.012795
   127  H    0.011437
   128  H   -0.000276
   129  H   -0.018496
   130  H   -0.018866
   131  H   -0.008786
   132  H   -0.016366
   133  H   -0.001280
   134  H    0.016561
   135  H    0.008211
   136  H    0.015988
   137  H    0.040780
   138  H    0.007234
   139  H    0.002288
   140  H    0.012709
 Sum of Mulliken charges =  -0.00000

 Dipole moment (field-independent basis, Debye):
    X=              4.1152    Y=              1.3337    Z=              0.3074  Tot=              4.3368
 Quadrupole moment (field-independent basis, Debye-Ang):
   XX=           -381.5455   YY=           -416.4801   ZZ=           -404.4656
   XY=             15.1637   XZ=             18.7462   YZ=             -0.0031

 Normal termination of Gaussian 16 at Wed May  4 13:51:17 2022.
