 Gaussian 16, Revision A.03,
 Gaussian 16:  ES64L-G16RevA.03 25-Dec-2016

 ---------------------------------
 #p PBE1PBE/Def2SVP td=(nstates=5)
 ---------------------------------

 ------------------------------------------------------
 step_1801_chromophore_13 TDDFT with PBE1PBE functional
 ------------------------------------------------------
 Symbolic Z-matrix:
 Charge =  0 Multiplicity = 1

                         Standard orientation:
 ---------------------------------------------------------------------
 Center     Atomic      Atomic             Coordinates (Angstroms)
 Number     Number       Type             X           Y           Z
 ---------------------------------------------------------------------
      1         12           0       -5.834529    0.253430   -0.136981
      2          6           0       -3.446162   -2.159588   -0.052885
      3          6           0       -3.381733    2.610192    0.443264
      4          6           0       -8.192541    2.622381    0.106622
      5          6           0       -8.358442   -2.043427   -0.958714
      6          7           0       -3.651342    0.206714    0.184593
      7          6           0       -2.917937   -0.891998    0.098399
      8          6           0       -1.467866   -0.577966    0.318837
      9          6           0       -1.400213    0.981231    0.484953
     10          6           0       -2.861691    1.299003    0.414125
     11          6           0       -0.818702    1.496145    1.851693
     12          6           0       -0.483740   -1.078911   -0.798471
     13          6           0        0.685883   -1.946655   -0.246392
     14          6           0        2.184142   -1.829201   -0.806744
     15          8           0        2.510595   -1.144492   -1.714409
     16          8           0        3.127134   -2.484723   -0.085997
     17          7           0       -5.781048    2.314883    0.300152
     18          6           0       -4.682725    3.085923    0.530533
     19          6           0       -5.012040    4.445468    0.695791
     20          6           0       -6.443174    4.484306    0.769768
     21          6           0       -6.930817    3.140728    0.347315
     22          6           0       -4.049496    5.493518    0.868439
     23          6           0       -7.374105    5.578303    1.155445
     24          8           0       -8.603060    5.557396    1.066294
     25          6           0       -6.721474    6.804570    1.732814
     26          7           0       -7.856350    0.254036   -0.306879
     27          6           0       -8.660847    1.387964   -0.102448
     28          6           0      -10.175839    1.050640   -0.106811
     29          6           0      -10.117569   -0.240416   -0.990677
     30          6           0       -8.657330   -0.686708   -0.747280
     31          6           0      -10.751487    0.853110    1.360561
     32          6           0      -10.425666    0.010667   -2.450964
     33          6           0       -9.300039    0.479789   -3.444252
     34          7           0       -5.983054   -1.717652   -0.475096
     35          6           0       -7.055591   -2.499907   -0.795617
     36          6           0       -6.557285   -3.919533   -0.963964
     37          6           0       -5.156335   -3.792349   -0.639345
     38          6           0       -4.829531   -2.472341   -0.372617
     39          6           0       -7.275430   -5.198660   -1.220018
     40          6           0       -4.017118   -4.519322   -0.315741
     41          8           0       -3.809333   -5.689834   -0.385148
     42          6           0       -2.872132   -3.562949    0.068896
     43          6           0       -2.565396   -3.921067    1.437186
     44          8           0       -3.260634   -3.623888    2.416851
     45          8           0       -1.314623   -4.474299    1.423982
     46          6           0       -0.846514   -4.865127    2.790854
     47          6           0        4.548069   -2.358625   -0.439614
     48          6           0        5.199790   -1.170904    0.218616
     49          6           0        6.518758   -0.809132    0.107171
     50          6           0        7.565459   -1.501105   -0.799222
     51          6           0        7.008632    0.442320    0.896305
     52          6           0        6.917940    1.734926    0.080470
     53          6           0        8.050843    2.746359    0.150186
     54          6           0        8.811403    2.859125   -1.223368
     55          6           0        7.765659    3.177189   -2.373434
     56          6           0        9.777477    1.648167   -1.501257
     57          6           0       11.169946    2.210380   -1.560835
     58          6           0       12.220812    1.329496   -2.279630
     59          6           0       13.494376    1.203882   -1.431866
     60          6           0       14.681504    1.213091   -2.453999
     61          6           0       13.646669   -0.089940   -0.548047
     62          6           0       13.969379    0.169727    0.871866
     63          6           0       12.678748    0.340895    1.806246
     64          6           0       12.062145   -1.052512    2.044335
     65          6           0       10.528414   -1.146797    1.812494
     66          6           0       12.419319   -1.603780    3.479641
     67          1           0       -2.480546    3.227061    0.445595
     68          1           0       -8.983373    3.354770    0.284514
     69          1           0       -9.170601   -2.691309   -1.295019
     70          1           0       -1.264736   -0.975418    1.313194
     71          1           0       -0.988652    1.574704   -0.330789
     72          1           0       -0.426591    0.671408    2.446131
     73          1           0       -1.577530    2.043366    2.410324
     74          1           0        0.003629    2.165265    1.601468
     75          1           0       -0.019775   -0.194496   -1.236599
     76          1           0       -0.959315   -1.683111   -1.572079
     77          1           0        0.549450   -3.020169   -0.372178
     78          1           0        0.704706   -1.779206    0.830567
     79          1           0       -4.179473    6.047129    1.798627
     80          1           0       -4.196665    6.242461    0.089358
     81          1           0       -3.001990    5.306823    0.632555
     82          1           0       -5.994444    7.223639    1.037316
     83          1           0       -6.223053    6.587067    2.676964
     84          1           0       -7.429244    7.549150    2.097516
     85          1           0      -10.729076    1.797171   -0.675443
     86          1           0      -10.773982   -1.066475   -0.717970
     87          1           0       -9.845951    0.818188    1.965888
     88          1           0      -11.234870   -0.112655    1.505785
     89          1           0      -11.466122    1.612738    1.680269
     90          1           0      -11.321798    0.626954   -2.525892
     91          1           0      -10.788708   -0.866913   -2.986322
     92          1           0       -9.050191   -0.402825   -4.033029
     93          1           0       -8.403982    0.844693   -2.942415
     94          1           0       -9.804680    1.235839   -4.045407
     95          1           0       -7.944032   -5.026423   -2.063288
     96          1           0       -7.904545   -5.451602   -0.365992
     97          1           0       -6.628082   -6.048255   -1.435622
     98          1           0       -2.020061   -3.626172   -0.607793
     99          1           0       -1.478953   -5.506076    3.405939
    100          1           0       -0.535431   -4.019130    3.402630
    101          1           0       -0.009691   -5.502873    2.505158
    102          1           0        4.689707   -2.214014   -1.510628
    103          1           0        4.995171   -3.299487   -0.119721
    104          1           0        4.697409   -0.545011    0.956396
    105          1           0        7.121528   -2.069453   -1.616674
    106          1           0        8.230711   -2.045447   -0.128717
    107          1           0        8.141785   -0.704689   -1.268719
    108          1           0        8.032362    0.197573    1.176306
    109          1           0        6.428082    0.669853    1.790353
    110          1           0        5.998120    2.203532    0.430385
    111          1           0        6.643779    1.413119   -0.923615
    112          1           0        8.779538    2.454004    0.906378
    113          1           0        7.688378    3.759120    0.329405
    114          1           0        9.457238    3.724740   -1.076599
    115          1           0        8.085780    4.114638   -2.829134
    116          1           0        6.737032    3.322042   -2.042321
    117          1           0        7.783408    2.456119   -3.190131
    118          1           0        9.655999    1.003654   -2.371280
    119          1           0        9.841928    0.991981   -0.632974
    120          1           0       11.395318    2.580425   -0.560955
    121          1           0       11.144572    3.003467   -2.307260
    122          1           0       12.379365    1.751863   -3.271378
    123          1           0       11.889214    0.298830   -2.404542
    124          1           0       13.502680    2.093867   -0.802484
    125          1           0       15.602246    0.743374   -2.106887
    126          1           0       15.056783    2.220864   -2.632358
    127          1           0       14.476263    0.953848   -3.492436
    128          1           0       14.425378   -0.756034   -0.921036
    129          1           0       12.676518   -0.582535   -0.491050
    130          1           0       14.591461    1.065231    0.878522
    131          1           0       14.696824   -0.543275    1.260536
    132          1           0       11.988225    1.079838    1.399750
    133          1           0       13.114978    0.904852    2.630583
    134          1           0       12.552861   -1.705455    1.323024
    135          1           0       10.133767   -1.561786    2.739911
    136          1           0       10.336074   -1.802184    0.963312
    137          1           0       10.065498   -0.195187    1.552060
    138          1           0       13.017085   -0.841797    3.978580
    139          1           0       13.069407   -2.476687    3.416644
    140          1           0       11.581762   -1.950850    4.084929
 ---------------------------------------------------------------------

 SCF Done:  E(RPBE1PBE) =  -3005.32887850     A.U. after   15 cycles

 Excitation energies and oscillator strengths:

 Excited State   1:      Singlet-A      1.8370 eV  674.92 nm  f=0.3773  <S**2>=0.000
     245 -> 248        0.15801
     246 -> 247        0.69637
     246 <- 247       -0.12042
 This state for optimization and/or second-order correction.
 Total Energy, E(TD-HF/TD-DFT) =  -3005.26136898
 Copying the excited state density for this state as the 1-particle RhoCI density.

 Excited State   2:      Singlet-A      2.2587 eV  548.92 nm  f=0.1116  <S**2>=0.000
     245 -> 247        0.64612
     246 -> 248       -0.25952

 Excited State   3:      Singlet-A      2.9027 eV  427.13 nm  f=0.0021  <S**2>=0.000
     240 -> 247        0.28047
     242 -> 247       -0.14360
     243 -> 247        0.62131

 Excited State   4:      Singlet-A      2.9555 eV  419.50 nm  f=0.0003  <S**2>=0.000
     240 -> 247        0.53100
     240 -> 249        0.12034
     241 -> 247        0.19606
     242 -> 247       -0.21834
     243 -> 247       -0.30261
     246 -> 248       -0.10054

 Excited State   5:      Singlet-A      3.0197 eV  410.58 nm  f=0.0032  <S**2>=0.000
     240 -> 247        0.31246
     241 -> 247       -0.30622
     242 -> 247        0.52353

 The electronic state is 1-A.
 Alpha  occ. eigenvalues --  -46.90340 -19.26726 -19.24880 -19.20178 -19.19431
 Alpha  occ. eigenvalues --  -19.18434 -19.18414 -14.41514 -14.41031 -14.38682
 Alpha  occ. eigenvalues --  -14.38638 -10.36203 -10.36091 -10.31439 -10.30785
 Alpha  occ. eigenvalues --  -10.29761 -10.29169 -10.28533 -10.28185 -10.28102
 Alpha  occ. eigenvalues --  -10.28077 -10.27744 -10.27687 -10.26907 -10.26695
 Alpha  occ. eigenvalues --  -10.26627 -10.26409 -10.26179 -10.25999 -10.25559
 Alpha  occ. eigenvalues --  -10.25504 -10.25414 -10.25347 -10.24982 -10.24914
 Alpha  occ. eigenvalues --  -10.24803 -10.24557 -10.24309 -10.24182 -10.24067
 Alpha  occ. eigenvalues --  -10.23986 -10.23948 -10.23883 -10.23595 -10.23575
 Alpha  occ. eigenvalues --  -10.23501 -10.23501 -10.23243 -10.23178 -10.23096
 Alpha  occ. eigenvalues --  -10.22987 -10.22706 -10.22547 -10.22524 -10.22481
 Alpha  occ. eigenvalues --  -10.22330 -10.22304 -10.22220 -10.22149 -10.22136
 Alpha  occ. eigenvalues --  -10.22134 -10.22125 -10.22079 -10.21935 -10.21925
 Alpha  occ. eigenvalues --  -10.21624  -3.12747  -1.85597  -1.85146  -1.84969
 Alpha  occ. eigenvalues --   -1.12033  -1.10941  -1.06106  -1.03562  -1.02947
 Alpha  occ. eigenvalues --   -1.02383  -0.99809  -0.98955  -0.97191  -0.96407
 Alpha  occ. eigenvalues --   -0.87693  -0.84563  -0.83950  -0.83788  -0.83519
 Alpha  occ. eigenvalues --   -0.82724  -0.82684  -0.82470  -0.81802  -0.81300
 Alpha  occ. eigenvalues --   -0.80197  -0.79560  -0.78959  -0.78307  -0.77466
 Alpha  occ. eigenvalues --   -0.76706  -0.76196  -0.75807  -0.75306  -0.74791
 Alpha  occ. eigenvalues --   -0.73784  -0.72691  -0.72213  -0.71483  -0.70760
 Alpha  occ. eigenvalues --   -0.69851  -0.69757  -0.69678  -0.69077  -0.68763
 Alpha  occ. eigenvalues --   -0.67943  -0.67144  -0.66279  -0.64920  -0.63665
 Alpha  occ. eigenvalues --   -0.63417  -0.62645  -0.62049  -0.61517  -0.60745
 Alpha  occ. eigenvalues --   -0.59717  -0.59541  -0.59193  -0.59026  -0.58732
 Alpha  occ. eigenvalues --   -0.57146  -0.56784  -0.56653  -0.56024  -0.54511
 Alpha  occ. eigenvalues --   -0.54334  -0.54075  -0.53582  -0.53108  -0.52938
 Alpha  occ. eigenvalues --   -0.52037  -0.51833  -0.51318  -0.50457  -0.49868
 Alpha  occ. eigenvalues --   -0.49797  -0.49334  -0.49151  -0.49139  -0.48859
 Alpha  occ. eigenvalues --   -0.48458  -0.48078  -0.47985  -0.47544  -0.47020
 Alpha  occ. eigenvalues --   -0.46956  -0.46762  -0.46610  -0.46556  -0.46269
 Alpha  occ. eigenvalues --   -0.46231  -0.45995  -0.45648  -0.45405  -0.45273
 Alpha  occ. eigenvalues --   -0.44905  -0.44846  -0.44750  -0.44542  -0.44265
 Alpha  occ. eigenvalues --   -0.44211  -0.44087  -0.43945  -0.43893  -0.43730
 Alpha  occ. eigenvalues --   -0.43291  -0.42944  -0.42862  -0.42608  -0.42368
 Alpha  occ. eigenvalues --   -0.42361  -0.41805  -0.41553  -0.41465  -0.41105
 Alpha  occ. eigenvalues --   -0.41035  -0.40902  -0.40613  -0.40395  -0.40368
 Alpha  occ. eigenvalues --   -0.40222  -0.39897  -0.39642  -0.39585  -0.39499
 Alpha  occ. eigenvalues --   -0.39458  -0.39266  -0.38952  -0.38839  -0.38693
 Alpha  occ. eigenvalues --   -0.38593  -0.38358  -0.38173  -0.38125  -0.37908
 Alpha  occ. eigenvalues --   -0.37718  -0.37340  -0.37037  -0.36794  -0.36756
 Alpha  occ. eigenvalues --   -0.36534  -0.36484  -0.36176  -0.36152  -0.35919
 Alpha  occ. eigenvalues --   -0.35736  -0.35489  -0.35419  -0.35196  -0.34903
 Alpha  occ. eigenvalues --   -0.34594  -0.34351  -0.34185  -0.34062  -0.33827
 Alpha  occ. eigenvalues --   -0.33403  -0.33123  -0.33084  -0.32816  -0.32343
 Alpha  occ. eigenvalues --   -0.32272  -0.32095  -0.31967  -0.31284  -0.31206
 Alpha  occ. eigenvalues --   -0.30919  -0.30470  -0.30222  -0.29413  -0.29262
 Alpha  occ. eigenvalues --   -0.28974  -0.28922  -0.28307  -0.27022  -0.25491
 Alpha  occ. eigenvalues --   -0.25336  -0.25126  -0.24742  -0.24611  -0.21157
 Alpha  occ. eigenvalues --   -0.18569
 Alpha virt. eigenvalues --   -0.11201  -0.05145  -0.03595  -0.01751   0.00326
 Alpha virt. eigenvalues --    0.01111   0.01489   0.01723   0.02592   0.03150
 Alpha virt. eigenvalues --    0.04245   0.04479   0.04646   0.05480   0.05624

 Mulliken charges:
               1
     1  Mg   1.001455
     2  C   -0.015987
     3  C   -0.067653
     4  C   -0.050449
     5  C   -0.090660
     6  N   -0.360792
     7  C    0.016175
     8  C   -0.047702
     9  C   -0.153592
    10  C   -0.033563
    11  C    0.016323
    12  C    0.060651
    13  C   -0.095647
    14  C    0.203292
    15  O   -0.229535
    16  O   -0.370213
    17  N   -0.489079
    18  C    0.244106
    19  C   -0.156480
    20  C   -0.072017
    21  C    0.153095
    22  C    0.057040
    23  C    0.061583
    24  O   -0.246412
    25  C   -0.047202
    26  N   -0.404893
    27  C    0.048084
    28  C   -0.090904
    29  C   -0.083623
    30  C    0.079117
    31  C    0.032511
    32  C   -0.061895
    33  C   -0.065400
    34  N   -0.537351
    35  C    0.178325
    36  C   -0.169018
    37  C    0.014242
    38  C    0.152731
    39  C    0.067034
    40  C    0.032071
    41  O   -0.194036
    42  C   -0.078008
    43  C    0.316193
    44  O   -0.272508
    45  O   -0.358324
    46  C    0.117391
    47  C    0.261162
    48  C   -0.114281
    49  C   -0.280930
    50  C    0.015680
    51  C    0.015592
    52  C   -0.054064
    53  C   -0.004614
    54  C   -0.206944
    55  C   -0.018747
    56  C   -0.020570
    57  C   -0.105152
    58  C    0.027490
    59  C   -0.204699
    60  C   -0.032649
    61  C    0.043172
    62  C   -0.107144
    63  C   -0.007492
    64  C   -0.243359
    65  C   -0.041135
    66  C   -0.012986
    67  H   -0.010803
    68  H    0.022745
    69  H    0.007782
    70  H    0.053933
    71  H    0.063884
    72  H    0.043171
    73  H    0.061266
    74  H    0.044022
    75  H    0.056090
    76  H    0.057676
    77  H    0.074524
    78  H    0.057576
    79  H    0.058375
    80  H    0.045953
    81  H    0.033354
    82  H    0.056645
    83  H    0.058454
    84  H    0.043538
    85  H    0.039070
    86  H    0.025043
    87  H    0.051839
    88  H    0.037592
    89  H    0.060299
    90  H    0.033965
    91  H    0.025386
    92  H    0.045085
    93  H    0.070131
    94  H    0.048806
    95  H    0.042281
    96  H    0.061450
    97  H    0.066637
    98  H    0.070076
    99  H    0.069492
   100  H    0.061034
   101  H    0.058564
   102  H    0.067232
   103  H    0.064477
   104  H    0.020656
   105  H    0.041114
   106  H    0.067698
   107  H    0.038961
   108  H    0.021671
   109  H    0.032947
   110  H    0.022743
   111  H    0.047146
   112  H    0.025268
   113  H    0.031198
   114  H    0.035605
   115  H    0.030300
   116  H    0.049214
   117  H    0.035871
   118  H    0.042617
   119  H    0.023832
   120  H    0.045778
   121  H    0.031682
   122  H    0.030182
   123  H    0.022084
   124  H    0.037170
   125  H    0.025743
   126  H    0.016378
   127  H    0.038018
   128  H    0.031294
   129  H    0.017902
   130  H    0.014757
   131  H    0.024615
   132  H    0.019538
   133  H    0.030327
   134  H    0.054850
   135  H    0.035752
   136  H    0.043169
   137  H    0.067538
   138  H    0.034411
   139  H    0.029936
   140  H    0.038586
 Sum of Mulliken charges =  -0.00000

 Dipole moment (field-independent basis, Debye):
    X=              4.0626    Y=              1.6557    Z=              0.3211  Tot=              4.3988
 Quadrupole moment (field-independent basis, Debye-Ang):
   XX=           -374.7820   YY=           -413.6194   ZZ=           -401.9580
   XY=             14.2926   XZ=             18.6981   YZ=              0.2746

 Normal termination of Gaussian 16 at Wed May  4 14:10:52 2022.
