 Gaussian 16, Revision A.03,
 Gaussian 16:  ES64L-G16RevA.03 25-Dec-2016

 --------------------------------
 #p wB97XD/Def2SVP td=(nstates=5)
 --------------------------------

 -----------------------------------------------------
 step_1801_chromophore_13 TDDFT with wB97XD functional
 -----------------------------------------------------
 Symbolic Z-matrix:
 Charge =  0 Multiplicity = 1

                         Standard orientation:
 ---------------------------------------------------------------------
 Center     Atomic      Atomic             Coordinates (Angstroms)
 Number     Number       Type             X           Y           Z
 ---------------------------------------------------------------------
      1         12           0       -5.834529    0.253430   -0.136981
      2          6           0       -3.446162   -2.159588   -0.052885
      3          6           0       -3.381733    2.610192    0.443264
      4          6           0       -8.192541    2.622381    0.106622
      5          6           0       -8.358442   -2.043427   -0.958714
      6          7           0       -3.651342    0.206714    0.184593
      7          6           0       -2.917937   -0.891998    0.098399
      8          6           0       -1.467866   -0.577966    0.318837
      9          6           0       -1.400213    0.981231    0.484953
     10          6           0       -2.861691    1.299003    0.414125
     11          6           0       -0.818702    1.496145    1.851693
     12          6           0       -0.483740   -1.078911   -0.798471
     13          6           0        0.685883   -1.946655   -0.246392
     14          6           0        2.184142   -1.829201   -0.806744
     15          8           0        2.510595   -1.144492   -1.714409
     16          8           0        3.127134   -2.484723   -0.085997
     17          7           0       -5.781048    2.314883    0.300152
     18          6           0       -4.682725    3.085923    0.530533
     19          6           0       -5.012040    4.445468    0.695791
     20          6           0       -6.443174    4.484306    0.769768
     21          6           0       -6.930817    3.140728    0.347315
     22          6           0       -4.049496    5.493518    0.868439
     23          6           0       -7.374105    5.578303    1.155445
     24          8           0       -8.603060    5.557396    1.066294
     25          6           0       -6.721474    6.804570    1.732814
     26          7           0       -7.856350    0.254036   -0.306879
     27          6           0       -8.660847    1.387964   -0.102448
     28          6           0      -10.175839    1.050640   -0.106811
     29          6           0      -10.117569   -0.240416   -0.990677
     30          6           0       -8.657330   -0.686708   -0.747280
     31          6           0      -10.751487    0.853110    1.360561
     32          6           0      -10.425666    0.010667   -2.450964
     33          6           0       -9.300039    0.479789   -3.444252
     34          7           0       -5.983054   -1.717652   -0.475096
     35          6           0       -7.055591   -2.499907   -0.795617
     36          6           0       -6.557285   -3.919533   -0.963964
     37          6           0       -5.156335   -3.792349   -0.639345
     38          6           0       -4.829531   -2.472341   -0.372617
     39          6           0       -7.275430   -5.198660   -1.220018
     40          6           0       -4.017118   -4.519322   -0.315741
     41          8           0       -3.809333   -5.689834   -0.385148
     42          6           0       -2.872132   -3.562949    0.068896
     43          6           0       -2.565396   -3.921067    1.437186
     44          8           0       -3.260634   -3.623888    2.416851
     45          8           0       -1.314623   -4.474299    1.423982
     46          6           0       -0.846514   -4.865127    2.790854
     47          6           0        4.548069   -2.358625   -0.439614
     48          6           0        5.199790   -1.170904    0.218616
     49          6           0        6.518758   -0.809132    0.107171
     50          6           0        7.565459   -1.501105   -0.799222
     51          6           0        7.008632    0.442320    0.896305
     52          6           0        6.917940    1.734926    0.080470
     53          6           0        8.050843    2.746359    0.150186
     54          6           0        8.811403    2.859125   -1.223368
     55          6           0        7.765659    3.177189   -2.373434
     56          6           0        9.777477    1.648167   -1.501257
     57          6           0       11.169946    2.210380   -1.560835
     58          6           0       12.220812    1.329496   -2.279630
     59          6           0       13.494376    1.203882   -1.431866
     60          6           0       14.681504    1.213091   -2.453999
     61          6           0       13.646669   -0.089940   -0.548047
     62          6           0       13.969379    0.169727    0.871866
     63          6           0       12.678748    0.340895    1.806246
     64          6           0       12.062145   -1.052512    2.044335
     65          6           0       10.528414   -1.146797    1.812494
     66          6           0       12.419319   -1.603780    3.479641
     67          1           0       -2.480546    3.227061    0.445595
     68          1           0       -8.983373    3.354770    0.284514
     69          1           0       -9.170601   -2.691309   -1.295019
     70          1           0       -1.264736   -0.975418    1.313194
     71          1           0       -0.988652    1.574704   -0.330789
     72          1           0       -0.426591    0.671408    2.446131
     73          1           0       -1.577530    2.043366    2.410324
     74          1           0        0.003629    2.165265    1.601468
     75          1           0       -0.019775   -0.194496   -1.236599
     76          1           0       -0.959315   -1.683111   -1.572079
     77          1           0        0.549450   -3.020169   -0.372178
     78          1           0        0.704706   -1.779206    0.830567
     79          1           0       -4.179473    6.047129    1.798627
     80          1           0       -4.196665    6.242461    0.089358
     81          1           0       -3.001990    5.306823    0.632555
     82          1           0       -5.994444    7.223639    1.037316
     83          1           0       -6.223053    6.587067    2.676964
     84          1           0       -7.429244    7.549150    2.097516
     85          1           0      -10.729076    1.797171   -0.675443
     86          1           0      -10.773982   -1.066475   -0.717970
     87          1           0       -9.845951    0.818188    1.965888
     88          1           0      -11.234870   -0.112655    1.505785
     89          1           0      -11.466122    1.612738    1.680269
     90          1           0      -11.321798    0.626954   -2.525892
     91          1           0      -10.788708   -0.866913   -2.986322
     92          1           0       -9.050191   -0.402825   -4.033029
     93          1           0       -8.403982    0.844693   -2.942415
     94          1           0       -9.804680    1.235839   -4.045407
     95          1           0       -7.944032   -5.026423   -2.063288
     96          1           0       -7.904545   -5.451602   -0.365992
     97          1           0       -6.628082   -6.048255   -1.435622
     98          1           0       -2.020061   -3.626172   -0.607793
     99          1           0       -1.478953   -5.506076    3.405939
    100          1           0       -0.535431   -4.019130    3.402630
    101          1           0       -0.009691   -5.502873    2.505158
    102          1           0        4.689707   -2.214014   -1.510628
    103          1           0        4.995171   -3.299487   -0.119721
    104          1           0        4.697409   -0.545011    0.956396
    105          1           0        7.121528   -2.069453   -1.616674
    106          1           0        8.230711   -2.045447   -0.128717
    107          1           0        8.141785   -0.704689   -1.268719
    108          1           0        8.032362    0.197573    1.176306
    109          1           0        6.428082    0.669853    1.790353
    110          1           0        5.998120    2.203532    0.430385
    111          1           0        6.643779    1.413119   -0.923615
    112          1           0        8.779538    2.454004    0.906378
    113          1           0        7.688378    3.759120    0.329405
    114          1           0        9.457238    3.724740   -1.076599
    115          1           0        8.085780    4.114638   -2.829134
    116          1           0        6.737032    3.322042   -2.042321
    117          1           0        7.783408    2.456119   -3.190131
    118          1           0        9.655999    1.003654   -2.371280
    119          1           0        9.841928    0.991981   -0.632974
    120          1           0       11.395318    2.580425   -0.560955
    121          1           0       11.144572    3.003467   -2.307260
    122          1           0       12.379365    1.751863   -3.271378
    123          1           0       11.889214    0.298830   -2.404542
    124          1           0       13.502680    2.093867   -0.802484
    125          1           0       15.602246    0.743374   -2.106887
    126          1           0       15.056783    2.220864   -2.632358
    127          1           0       14.476263    0.953848   -3.492436
    128          1           0       14.425378   -0.756034   -0.921036
    129          1           0       12.676518   -0.582535   -0.491050
    130          1           0       14.591461    1.065231    0.878522
    131          1           0       14.696824   -0.543275    1.260536
    132          1           0       11.988225    1.079838    1.399750
    133          1           0       13.114978    0.904852    2.630583
    134          1           0       12.552861   -1.705455    1.323024
    135          1           0       10.133767   -1.561786    2.739911
    136          1           0       10.336074   -1.802184    0.963312
    137          1           0       10.065498   -0.195187    1.552060
    138          1           0       13.017085   -0.841797    3.978580
    139          1           0       13.069407   -2.476687    3.416644
    140          1           0       11.581762   -1.950850    4.084929
 ---------------------------------------------------------------------

 SCF Done:  E(RwB97XD) =  -3007.84239365     A.U. after   19 cycles

 Excitation energies and oscillator strengths:

 Excited State   1:      Singlet-A      1.6243 eV  763.30 nm  f=0.3955  <S**2>=0.000
     245 -> 248        0.16861
     246 -> 247        0.68623
     245 <- 248        0.11179
 This state for optimization and/or second-order correction.
 Total Energy, E(TD-HF/TD-DFT) =  -3007.78270091
 Copying the excited state density for this state as the 1-particle RhoCI density.

 Excited State   2:      Singlet-A      2.2042 eV  562.49 nm  f=0.1127  <S**2>=0.000
     245 -> 247        0.63382
     246 -> 248       -0.29364

 Excited State   3:      Singlet-A      3.2704 eV  379.11 nm  f=0.0022  <S**2>=0.000
     242 -> 247       -0.45179
     244 -> 247        0.51031

 Excited State   4:      Singlet-A      3.4036 eV  364.27 nm  f=0.0703  <S**2>=0.000
     240 -> 247       -0.17668
     242 -> 247        0.38281
     244 -> 247        0.38218
     246 -> 248        0.36761

 Excited State   5:      Singlet-A      3.4758 eV  356.70 nm  f=0.0072  <S**2>=0.000
     239 -> 247       -0.11267
     240 -> 247        0.54428
     240 -> 249        0.25456
     240 -> 250        0.16971
     242 -> 247        0.24095
     244 -> 247        0.10814

 The electronic state is 1-A.
 Alpha  occ. eigenvalues --  -46.93279 -19.31401 -19.29474 -19.25010 -19.24124
 Alpha  occ. eigenvalues --  -19.23454 -19.23067 -14.46673 -14.46075 -14.43642
 Alpha  occ. eigenvalues --  -14.43515 -10.43155 -10.42884 -10.38127 -10.37839
 Alpha  occ. eigenvalues --  -10.36275 -10.35781 -10.34976 -10.34652 -10.34505
 Alpha  occ. eigenvalues --  -10.34284 -10.33882 -10.33819 -10.33408 -10.33357
 Alpha  occ. eigenvalues --  -10.32774 -10.32691 -10.32444 -10.32352 -10.32023
 Alpha  occ. eigenvalues --  -10.31755 -10.31679 -10.31671 -10.31544 -10.31251
 Alpha  occ. eigenvalues --  -10.31035 -10.30696 -10.30667 -10.30505 -10.30416
 Alpha  occ. eigenvalues --  -10.30346 -10.30245 -10.30216 -10.30213 -10.30055
 Alpha  occ. eigenvalues --  -10.29808 -10.29781 -10.29582 -10.29562 -10.29492
 Alpha  occ. eigenvalues --  -10.29337 -10.29071 -10.28939 -10.28936 -10.28817
 Alpha  occ. eigenvalues --  -10.28772 -10.28717 -10.28696 -10.28573 -10.28549
 Alpha  occ. eigenvalues --  -10.28542 -10.28511 -10.28471 -10.28307 -10.28305
 Alpha  occ. eigenvalues --  -10.28050  -3.19511  -1.93117  -1.92664  -1.92485
 Alpha  occ. eigenvalues --   -1.19407  -1.18472  -1.13772  -1.10885  -1.10292
 Alpha  occ. eigenvalues --   -1.09889  -1.07219  -1.06345  -1.04687  -1.03628
 Alpha  occ. eigenvalues --   -0.95453  -0.92242  -0.91572  -0.91439  -0.91066
 Alpha  occ. eigenvalues --   -0.90393  -0.90244  -0.90072  -0.89335  -0.88970
 Alpha  occ. eigenvalues --   -0.87993  -0.87204  -0.86620  -0.85973  -0.85107
 Alpha  occ. eigenvalues --   -0.84357  -0.83846  -0.83459  -0.82967  -0.82432
 Alpha  occ. eigenvalues --   -0.81466  -0.80328  -0.79790  -0.79157  -0.78403
 Alpha  occ. eigenvalues --   -0.77549  -0.77452  -0.77230  -0.76749  -0.76437
 Alpha  occ. eigenvalues --   -0.75570  -0.74753  -0.73796  -0.72534  -0.71233
 Alpha  occ. eigenvalues --   -0.71019  -0.70282  -0.69537  -0.69170  -0.68210
 Alpha  occ. eigenvalues --   -0.67206  -0.67132  -0.66650  -0.66523  -0.66433
 Alpha  occ. eigenvalues --   -0.64611  -0.64404  -0.64149  -0.63625  -0.61900
 Alpha  occ. eigenvalues --   -0.61884  -0.61489  -0.61142  -0.60706  -0.60416
 Alpha  occ. eigenvalues --   -0.59439  -0.59316  -0.58688  -0.57920  -0.57317
 Alpha  occ. eigenvalues --   -0.57217  -0.56773  -0.56627  -0.56566  -0.56310
 Alpha  occ. eigenvalues --   -0.55825  -0.55515  -0.55431  -0.54943  -0.54382
 Alpha  occ. eigenvalues --   -0.54305  -0.54178  -0.54034  -0.53830  -0.53609
 Alpha  occ. eigenvalues --   -0.53580  -0.53432  -0.52972  -0.52834  -0.52653
 Alpha  occ. eigenvalues --   -0.52289  -0.52164  -0.52131  -0.51879  -0.51618
 Alpha  occ. eigenvalues --   -0.51551  -0.51421  -0.51280  -0.51172  -0.50999
 Alpha  occ. eigenvalues --   -0.50538  -0.50250  -0.50155  -0.49907  -0.49642
 Alpha  occ. eigenvalues --   -0.49617  -0.49043  -0.48822  -0.48658  -0.48463
 Alpha  occ. eigenvalues --   -0.48295  -0.48079  -0.47946  -0.47638  -0.47584
 Alpha  occ. eigenvalues --   -0.47399  -0.47125  -0.46834  -0.46789  -0.46720
 Alpha  occ. eigenvalues --   -0.46686  -0.46395  -0.46062  -0.46039  -0.45926
 Alpha  occ. eigenvalues --   -0.45739  -0.45579  -0.45364  -0.45144  -0.45078
 Alpha  occ. eigenvalues --   -0.44884  -0.44489  -0.44109  -0.43931  -0.43844
 Alpha  occ. eigenvalues --   -0.43663  -0.43515  -0.43269  -0.43179  -0.42991
 Alpha  occ. eigenvalues --   -0.42792  -0.42544  -0.42494  -0.42212  -0.42002
 Alpha  occ. eigenvalues --   -0.41557  -0.41354  -0.41148  -0.41122  -0.40905
 Alpha  occ. eigenvalues --   -0.40427  -0.40150  -0.40089  -0.39855  -0.39512
 Alpha  occ. eigenvalues --   -0.39300  -0.39122  -0.38949  -0.38239  -0.38125
 Alpha  occ. eigenvalues --   -0.37916  -0.37457  -0.37200  -0.36617  -0.36171
 Alpha  occ. eigenvalues --   -0.35838  -0.35577  -0.35420  -0.33574  -0.32783
 Alpha  occ. eigenvalues --   -0.32281  -0.31835  -0.31370  -0.31169  -0.26213
 Alpha  occ. eigenvalues --   -0.22703
 Alpha virt. eigenvalues --   -0.07135   0.00415   0.02628   0.04717   0.06885
 Alpha virt. eigenvalues --    0.07252   0.08079   0.08165   0.09498   0.09517
 Alpha virt. eigenvalues --    0.10814   0.11035   0.11389   0.12238   0.12269

 Mulliken charges:
               1
     1  Mg   0.986847
     2  C   -0.024908
     3  C   -0.080799
     4  C   -0.061462
     5  C   -0.119445
     6  N   -0.322812
     7  C   -0.009505
     8  C   -0.021937
     9  C   -0.126716
    10  C   -0.050779
    11  C    0.026343
    12  C    0.069986
    13  C   -0.077595
    14  C    0.192126
    15  O   -0.226883
    16  O   -0.368576
    17  N   -0.456604
    18  C    0.232767
    19  C   -0.142544
    20  C   -0.068512
    21  C    0.139520
    22  C    0.068089
    23  C    0.055575
    24  O   -0.241062
    25  C   -0.033686
    26  N   -0.373329
    27  C    0.039716
    28  C   -0.065725
    29  C   -0.054814
    30  C    0.067803
    31  C    0.040091
    32  C   -0.056711
    33  C   -0.042921
    34  N   -0.500681
    35  C    0.175590
    36  C   -0.168108
    37  C    0.019217
    38  C    0.132635
    39  C    0.076825
    40  C    0.019115
    41  O   -0.182752
    42  C   -0.030083
    43  C    0.289004
    44  O   -0.267196
    45  O   -0.356736
    46  C    0.131928
    47  C    0.276810
    48  C   -0.128548
    49  C   -0.265287
    50  C    0.042080
    51  C    0.049711
    52  C   -0.041105
    53  C    0.018483
    54  C   -0.177146
    55  C   -0.008827
    56  C    0.005519
    57  C   -0.081367
    58  C    0.039731
    59  C   -0.175487
    60  C   -0.019816
    61  C    0.060487
    62  C   -0.084857
    63  C    0.009729
    64  C   -0.213805
    65  C   -0.014562
    66  C    0.000296
    67  H   -0.020535
    68  H    0.017487
    69  H    0.005588
    70  H    0.038623
    71  H    0.054325
    72  H    0.037006
    73  H    0.054756
    74  H    0.038853
    75  H    0.049024
    76  H    0.050538
    77  H    0.067201
    78  H    0.049848
    79  H    0.051797
    80  H    0.039062
    81  H    0.029675
    82  H    0.049532
    83  H    0.052228
    84  H    0.041640
    85  H    0.030489
    86  H    0.016605
    87  H    0.044750
    88  H    0.031514
    89  H    0.056149
    90  H    0.026323
    91  H    0.017743
    92  H    0.038772
    93  H    0.058158
    94  H    0.044215
    95  H    0.037120
    96  H    0.057516
    97  H    0.064843
    98  H    0.060179
    99  H    0.065945
   100  H    0.057784
   101  H    0.055712
   102  H    0.061478
   103  H    0.060935
   104  H    0.017320
   105  H    0.036849
   106  H    0.058305
   107  H    0.024314
   108  H   -0.004650
   109  H    0.026936
   110  H    0.015876
   111  H    0.032423
   112  H    0.014159
   113  H    0.024126
   114  H    0.023772
   115  H    0.024945
   116  H    0.042818
   117  H    0.030249
   118  H    0.034721
   119  H   -0.004914
   120  H    0.034374
   121  H    0.020585
   122  H    0.023200
   123  H    0.011767
   124  H    0.022776
   125  H    0.019421
   126  H    0.009878
   127  H    0.031863
   128  H    0.024425
   129  H   -0.000353
   130  H    0.004997
   131  H    0.016385
   132  H    0.004283
   133  H    0.022793
   134  H    0.041102
   135  H    0.029119
   136  H    0.034838
   137  H    0.051891
   138  H    0.027407
   139  H    0.024166
   140  H    0.032622
 Sum of Mulliken charges =  -0.00000

 Dipole moment (field-independent basis, Debye):
    X=              4.1555    Y=              1.2449    Z=              0.2971  Tot=              4.3481
 Quadrupole moment (field-independent basis, Debye-Ang):
   XX=           -376.2190   YY=           -412.1329   ZZ=           -401.4257
   XY=             16.2443   XZ=             19.0202   YZ=              0.2690

 Normal termination of Gaussian 16 at Wed May  4 14:38:03 2022.
