 Gaussian 16, Revision A.03,
 Gaussian 16:  ES64L-G16RevA.03 25-Dec-2016

 --------------------
 #p ZINDO=(nstates=5)
 --------------------

 ------------------------------
 step_1801_chromophore_13 ZINDO
 ------------------------------
 Symbolic Z-matrix:
 Charge =  0 Multiplicity = 1

                         Standard orientation:
 ---------------------------------------------------------------------
 Center     Atomic      Atomic             Coordinates (Angstroms)
 Number     Number       Type             X           Y           Z
 ---------------------------------------------------------------------
      1         12           0       -5.834529    0.253430   -0.136981
      2          6           0       -3.446162   -2.159588   -0.052885
      3          6           0       -3.381733    2.610192    0.443264
      4          6           0       -8.192541    2.622381    0.106622
      5          6           0       -8.358442   -2.043427   -0.958714
      6          7           0       -3.651342    0.206714    0.184593
      7          6           0       -2.917937   -0.891998    0.098399
      8          6           0       -1.467866   -0.577966    0.318837
      9          6           0       -1.400213    0.981231    0.484953
     10          6           0       -2.861691    1.299003    0.414125
     11          6           0       -0.818702    1.496145    1.851693
     12          6           0       -0.483740   -1.078911   -0.798471
     13          6           0        0.685883   -1.946655   -0.246392
     14          6           0        2.184142   -1.829201   -0.806744
     15          8           0        2.510595   -1.144492   -1.714409
     16          8           0        3.127134   -2.484723   -0.085997
     17          7           0       -5.781048    2.314883    0.300152
     18          6           0       -4.682725    3.085923    0.530533
     19          6           0       -5.012040    4.445468    0.695791
     20          6           0       -6.443174    4.484306    0.769768
     21          6           0       -6.930817    3.140728    0.347315
     22          6           0       -4.049496    5.493518    0.868439
     23          6           0       -7.374105    5.578303    1.155445
     24          8           0       -8.603060    5.557396    1.066294
     25          6           0       -6.721474    6.804570    1.732814
     26          7           0       -7.856350    0.254036   -0.306879
     27          6           0       -8.660847    1.387964   -0.102448
     28          6           0      -10.175839    1.050640   -0.106811
     29          6           0      -10.117569   -0.240416   -0.990677
     30          6           0       -8.657330   -0.686708   -0.747280
     31          6           0      -10.751487    0.853110    1.360561
     32          6           0      -10.425666    0.010667   -2.450964
     33          6           0       -9.300039    0.479789   -3.444252
     34          7           0       -5.983054   -1.717652   -0.475096
     35          6           0       -7.055591   -2.499907   -0.795617
     36          6           0       -6.557285   -3.919533   -0.963964
     37          6           0       -5.156335   -3.792349   -0.639345
     38          6           0       -4.829531   -2.472341   -0.372617
     39          6           0       -7.275430   -5.198660   -1.220018
     40          6           0       -4.017118   -4.519322   -0.315741
     41          8           0       -3.809333   -5.689834   -0.385148
     42          6           0       -2.872132   -3.562949    0.068896
     43          6           0       -2.565396   -3.921067    1.437186
     44          8           0       -3.260634   -3.623888    2.416851
     45          8           0       -1.314623   -4.474299    1.423982
     46          6           0       -0.846514   -4.865127    2.790854
     47          6           0        4.548069   -2.358625   -0.439614
     48          6           0        5.199790   -1.170904    0.218616
     49          6           0        6.518758   -0.809132    0.107171
     50          6           0        7.565459   -1.501105   -0.799222
     51          6           0        7.008632    0.442320    0.896305
     52          6           0        6.917940    1.734926    0.080470
     53          6           0        8.050843    2.746359    0.150186
     54          6           0        8.811403    2.859125   -1.223368
     55          6           0        7.765659    3.177189   -2.373434
     56          6           0        9.777477    1.648167   -1.501257
     57          6           0       11.169946    2.210380   -1.560835
     58          6           0       12.220812    1.329496   -2.279630
     59          6           0       13.494376    1.203882   -1.431866
     60          6           0       14.681504    1.213091   -2.453999
     61          6           0       13.646669   -0.089940   -0.548047
     62          6           0       13.969379    0.169727    0.871866
     63          6           0       12.678748    0.340895    1.806246
     64          6           0       12.062145   -1.052512    2.044335
     65          6           0       10.528414   -1.146797    1.812494
     66          6           0       12.419319   -1.603780    3.479641
     67          1           0       -2.480546    3.227061    0.445595
     68          1           0       -8.983373    3.354770    0.284514
     69          1           0       -9.170601   -2.691309   -1.295019
     70          1           0       -1.264736   -0.975418    1.313194
     71          1           0       -0.988652    1.574704   -0.330789
     72          1           0       -0.426591    0.671408    2.446131
     73          1           0       -1.577530    2.043366    2.410324
     74          1           0        0.003629    2.165265    1.601468
     75          1           0       -0.019775   -0.194496   -1.236599
     76          1           0       -0.959315   -1.683111   -1.572079
     77          1           0        0.549450   -3.020169   -0.372178
     78          1           0        0.704706   -1.779206    0.830567
     79          1           0       -4.179473    6.047129    1.798627
     80          1           0       -4.196665    6.242461    0.089358
     81          1           0       -3.001990    5.306823    0.632555
     82          1           0       -5.994444    7.223639    1.037316
     83          1           0       -6.223053    6.587067    2.676964
     84          1           0       -7.429244    7.549150    2.097516
     85          1           0      -10.729076    1.797171   -0.675443
     86          1           0      -10.773982   -1.066475   -0.717970
     87          1           0       -9.845951    0.818188    1.965888
     88          1           0      -11.234870   -0.112655    1.505785
     89          1           0      -11.466122    1.612738    1.680269
     90          1           0      -11.321798    0.626954   -2.525892
     91          1           0      -10.788708   -0.866913   -2.986322
     92          1           0       -9.050191   -0.402825   -4.033029
     93          1           0       -8.403982    0.844693   -2.942415
     94          1           0       -9.804680    1.235839   -4.045407
     95          1           0       -7.944032   -5.026423   -2.063288
     96          1           0       -7.904545   -5.451602   -0.365992
     97          1           0       -6.628082   -6.048255   -1.435622
     98          1           0       -2.020061   -3.626172   -0.607793
     99          1           0       -1.478953   -5.506076    3.405939
    100          1           0       -0.535431   -4.019130    3.402630
    101          1           0       -0.009691   -5.502873    2.505158
    102          1           0        4.689707   -2.214014   -1.510628
    103          1           0        4.995171   -3.299487   -0.119721
    104          1           0        4.697409   -0.545011    0.956396
    105          1           0        7.121528   -2.069453   -1.616674
    106          1           0        8.230711   -2.045447   -0.128717
    107          1           0        8.141785   -0.704689   -1.268719
    108          1           0        8.032362    0.197573    1.176306
    109          1           0        6.428082    0.669853    1.790353
    110          1           0        5.998120    2.203532    0.430385
    111          1           0        6.643779    1.413119   -0.923615
    112          1           0        8.779538    2.454004    0.906378
    113          1           0        7.688378    3.759120    0.329405
    114          1           0        9.457238    3.724740   -1.076599
    115          1           0        8.085780    4.114638   -2.829134
    116          1           0        6.737032    3.322042   -2.042321
    117          1           0        7.783408    2.456119   -3.190131
    118          1           0        9.655999    1.003654   -2.371280
    119          1           0        9.841928    0.991981   -0.632974
    120          1           0       11.395318    2.580425   -0.560955
    121          1           0       11.144572    3.003467   -2.307260
    122          1           0       12.379365    1.751863   -3.271378
    123          1           0       11.889214    0.298830   -2.404542
    124          1           0       13.502680    2.093867   -0.802484
    125          1           0       15.602246    0.743374   -2.106887
    126          1           0       15.056783    2.220864   -2.632358
    127          1           0       14.476263    0.953848   -3.492436
    128          1           0       14.425378   -0.756034   -0.921036
    129          1           0       12.676518   -0.582535   -0.491050
    130          1           0       14.591461    1.065231    0.878522
    131          1           0       14.696824   -0.543275    1.260536
    132          1           0       11.988225    1.079838    1.399750
    133          1           0       13.114978    0.904852    2.630583
    134          1           0       12.552861   -1.705455    1.323024
    135          1           0       10.133767   -1.561786    2.739911
    136          1           0       10.336074   -1.802184    0.963312
    137          1           0       10.065498   -0.195187    1.552060
    138          1           0       13.017085   -0.841797    3.978580
    139          1           0       13.069407   -2.476687    3.416644
    140          1           0       11.581762   -1.950850    4.084929
 ---------------------------------------------------------------------

 SCF Done:  E(RZINDO/S) =  -474.561426173     A.U. after   20 cycles

 Excitation energies and oscillator strengths:

 Excited State   1:      Singlet-A      1.2369 eV 1002.36 nm  f=0.6348  <S**2>=0.000
     175 ->178        -0.18246
     176 ->177         0.66422
 This state for optimization and/or second-order correction.
 Total Energy, E(CIS/TDA) =  -474.515969928
 Copying the excited state density for this state as the 1-particle RhoCI density.

 Excited State   2:      Singlet-A      1.9431 eV  638.08 nm  f=0.0368  <S**2>=0.000
     175 ->177         0.53635
     176 ->178         0.43332

 Excited State   3:      Singlet-A      2.8461 eV  435.62 nm  f=0.0109  <S**2>=0.000
     168 ->177         0.19453
     168 ->179        -0.20798
     169 ->177         0.30630
     169 ->178        -0.11616
     169 ->179        -0.29365
     169 ->180         0.11338
     169 ->181        -0.12453
     169 ->186         0.12613
     170 ->177         0.13943
     170 ->179        -0.12094
     171 ->177         0.11397

 Excited State   4:      Singlet-A      2.9648 eV  418.19 nm  f=0.0520  <S**2>=0.000
     176 ->178         0.10438
     176 ->179         0.64105
     176 ->180         0.14413

 Excited State   5:      Singlet-A      2.9805 eV  415.99 nm  f=1.0682  <S**2>=0.000
     175 ->177        -0.39987
     176 ->178         0.50820
     176 ->180        -0.14285

 The electronic state is 1-A.
 Alpha  occ. eigenvalues --   -1.85865  -1.83731  -1.80844  -1.74105  -1.73780
 Alpha  occ. eigenvalues --   -1.70995  -1.66711  -1.61326  -1.61190  -1.57218
 Alpha  occ. eigenvalues --   -1.54603  -1.50482  -1.50142  -1.47526  -1.46149
 Alpha  occ. eigenvalues --   -1.44330  -1.43709  -1.41017  -1.40171  -1.39836
 Alpha  occ. eigenvalues --   -1.37112  -1.33192  -1.32603  -1.31957  -1.29420
 Alpha  occ. eigenvalues --   -1.27129  -1.25455  -1.22064  -1.20215  -1.19264
 Alpha  occ. eigenvalues --   -1.17958  -1.16200  -1.15065  -1.14447  -1.13820
 Alpha  occ. eigenvalues --   -1.12873  -1.11221  -1.10416  -1.05675  -1.04779
 Alpha  occ. eigenvalues --   -1.03682  -1.01760  -0.99318  -0.98595  -0.97242
 Alpha  occ. eigenvalues --   -0.97069  -0.95965  -0.94953  -0.93418  -0.92667
 Alpha  occ. eigenvalues --   -0.91995  -0.89518  -0.88072  -0.86597  -0.85155
 Alpha  occ. eigenvalues --   -0.84502  -0.84159  -0.82748  -0.81651  -0.80244
 Alpha  occ. eigenvalues --   -0.79953  -0.79038  -0.78102  -0.76558  -0.76296
 Alpha  occ. eigenvalues --   -0.76056  -0.75510  -0.74567  -0.74279  -0.74088
 Alpha  occ. eigenvalues --   -0.73542  -0.72857  -0.72729  -0.71905  -0.70973
 Alpha  occ. eigenvalues --   -0.70274  -0.68927  -0.68511  -0.68059  -0.67987
 Alpha  occ. eigenvalues --   -0.67395  -0.66972  -0.66653  -0.66237  -0.66067
 Alpha  occ. eigenvalues --   -0.65336  -0.64417  -0.64156  -0.63834  -0.63576
 Alpha  occ. eigenvalues --   -0.63253  -0.62899  -0.62807  -0.62500  -0.62463
 Alpha  occ. eigenvalues --   -0.62052  -0.61651  -0.61116  -0.60560  -0.60106
 Alpha  occ. eigenvalues --   -0.59970  -0.58971  -0.58778  -0.58467  -0.57984
 Alpha  occ. eigenvalues --   -0.57747  -0.57238  -0.56959  -0.56729  -0.56246
 Alpha  occ. eigenvalues --   -0.55969  -0.55551  -0.55148  -0.54961  -0.54533
 Alpha  occ. eigenvalues --   -0.54001  -0.53183  -0.52949  -0.52864  -0.52510
 Alpha  occ. eigenvalues --   -0.52302  -0.52098  -0.51880  -0.51748  -0.51369
 Alpha  occ. eigenvalues --   -0.51063  -0.50831  -0.50591  -0.50308  -0.50157
 Alpha  occ. eigenvalues --   -0.50073  -0.49282  -0.48986  -0.48917  -0.48723
 Alpha  occ. eigenvalues --   -0.48496  -0.48323  -0.47986  -0.47834  -0.47708
 Alpha  occ. eigenvalues --   -0.47513  -0.47290  -0.47240  -0.46960  -0.46735
 Alpha  occ. eigenvalues --   -0.46382  -0.46108  -0.46033  -0.45840  -0.45386
 Alpha  occ. eigenvalues --   -0.45280  -0.44588  -0.44087  -0.43971  -0.43867
 Alpha  occ. eigenvalues --   -0.43140  -0.43078  -0.42742  -0.42620  -0.42170
 Alpha  occ. eigenvalues --   -0.41807  -0.41196  -0.41041  -0.39091  -0.38877
 Alpha  occ. eigenvalues --   -0.38526  -0.36592  -0.35117  -0.34626  -0.34330
 Alpha  occ. eigenvalues --   -0.32905  -0.32420  -0.31722  -0.31661  -0.26728
 Alpha  occ. eigenvalues --   -0.21432
 Alpha virt. eigenvalues --   -0.08482  -0.01821  -0.00558   0.01414   0.02282
 Alpha virt. eigenvalues --    0.02833   0.03099   0.03867   0.04736   0.05489
 Alpha virt. eigenvalues --    0.06767   0.06923   0.07402   0.08048   0.08409

 Mulliken charges:
               1
     1  Mg   0.420049
     2  C   -0.059063
     3  C   -0.074716
     4  C   -0.040944
     5  C   -0.086625
     6  N   -0.270302
     7  C    0.151815
     8  C    0.007939
     9  C   -0.004399
    10  C    0.102364
    11  C   -0.052008
    12  C   -0.020803
    13  C   -0.003102
    14  C    0.461583
    15  O   -0.509283
    16  O   -0.282345
    17  N   -0.340784
    18  C    0.106730
    19  C    0.017891
    20  C   -0.063276
    21  C    0.118527
    22  C   -0.039387
    23  C    0.329608
    24  O   -0.536746
    25  C   -0.036289
    26  N   -0.270664
    27  C    0.119545
    28  C    0.002458
    29  C    0.004035
    30  C    0.170409
    31  C   -0.051460
    32  C   -0.033720
    33  C   -0.057849
    34  N   -0.330922
    35  C    0.128126
    36  C    0.035016
    37  C   -0.049394
    38  C    0.110952
    39  C   -0.026311
    40  C    0.349877
    41  O   -0.526173
    42  C    0.058855
    43  C    0.503317
    44  O   -0.534627
    45  O   -0.262478
    46  C    0.070185
    47  C    0.119802
    48  C   -0.092223
    49  C   -0.024363
    50  C   -0.046980
    51  C   -0.024561
    52  C   -0.029491
    53  C   -0.028874
    54  C   -0.015936
    55  C   -0.059346
    56  C   -0.037443
    57  C   -0.045151
    58  C   -0.036359
    59  C   -0.010626
    60  C   -0.068469
    61  C   -0.029798
    62  C   -0.040307
    63  C   -0.035103
    64  C   -0.007612
    65  C   -0.062832
    66  C   -0.063365
    67  H    0.019362
    68  H    0.032537
    69  H    0.036401
    70  H    0.041306
    71  H    0.043447
    72  H    0.023003
    73  H    0.031456
    74  H    0.017810
    75  H    0.036562
    76  H    0.031070
    77  H    0.039326
    78  H    0.035964
    79  H    0.032931
    80  H    0.019726
    81  H    0.024544
    82  H    0.037591
    83  H    0.029916
    84  H    0.029769
    85  H    0.032574
    86  H    0.025208
    87  H    0.028400
    88  H    0.018156
    89  H    0.032789
    90  H    0.015986
    91  H    0.007998
    92  H    0.020821
    93  H    0.033958
    94  H    0.023866
    95  H    0.024099
    96  H    0.037669
    97  H    0.041029
    98  H    0.049862
    99  H    0.054014
   100  H    0.045408
   101  H    0.024315
   102  H    0.057470
   103  H    0.041237
   104  H    0.037198
   105  H    0.029855
   106  H    0.035723
   107  H    0.023426
   108  H    0.020573
   109  H    0.022642
   110  H    0.010212
   111  H    0.025586
   112  H    0.018180
   113  H    0.018838
   114  H    0.017753
   115  H    0.009790
   116  H    0.026894
   117  H    0.021387
   118  H    0.029071
   119  H    0.013458
   120  H    0.029814
   121  H    0.011370
   122  H    0.024113
   123  H    0.014924
   124  H    0.027501
   125  H    0.014791
   126  H    0.001839
   127  H    0.025552
   128  H    0.022456
   129  H    0.016897
   130  H    0.003755
   131  H    0.016775
   132  H    0.020391
   133  H    0.016903
   134  H    0.024538
   135  H    0.025178
   136  H    0.017073
   137  H    0.024235
   138  H    0.019820
   139  H    0.011866
   140  H    0.025468
 Sum of Mulliken charges =  -0.00000

 Dipole moment (field-independent basis, Debye):
    X=              4.6825    Y=              0.5604    Z=             -0.3248  Tot=              4.7271
 N-N= 4.336133247707D+03 E-N= 0.000000000000D+00  KE=-9.346855287813D+03
 Leave Link  601 at Wed May  4 14:50:37 2022, MaxMem=  6710886400 cpu:               0.8 elap:               0.1
 (Enter /sw/apps/gaussian-16.0/g16/l9999.exe)
 1\1\GINC-BP1-COMPUTE050\SP\RZINDO CIS\STO-3G\C55H74Mg1N4O6\OF15641\04-
 May-2022\0\\#p ZINDO=(nstates=5)\\step_1801_chromophore_13 ZINDO\\0,1\
 Mg,0,46.706,24.745,29.039\C,0,47.113,26.804,31.709\C,0,45.492,22.322,3
 1.175\C,0,46.59,22.577,26.486\C,0,47.708,27.225,26.766\N,0,46.37,24.59
 ,31.215\C,0,46.551,25.592,32.061\C,0,46.187,25.178,33.456\C,0,45.647,2
 3.71,33.327\C,0,45.874,23.493,31.863\C,0,46.432,22.621,34.145\C,0,45.1
 57,26.105,34.196\C,0,45.661,26.603,35.583\C,0,44.697,26.715,36.86\O,0,

 Normal termination of Gaussian 16 at Wed May  4 14:50:37 2022.
