 Gaussian 16, Revision A.03,
 Gaussian 16:  ES64L-G16RevA.03 25-Dec-2016

 ------------------------------
 #p blyp/Def2SVP td=(nstates=5)
 ------------------------------

 --------------------------------------------------
 step_1551_chromophore_2 TDDFT with blyp functional
 --------------------------------------------------
 Symbolic Z-matrix:
 Charge =  0 Multiplicity = 1

                         Standard orientation:
 ---------------------------------------------------------------------
 Center     Atomic      Atomic             Coordinates (Angstroms)
 Number     Number       Type             X           Y           Z
 ---------------------------------------------------------------------
      1         12           0        4.264757    1.422108   -0.589901
      2          6           0        4.471297   -2.130723   -0.943164
      3          6           0        1.677958    1.323200   -2.825303
      4          6           0        3.072558    4.354123    0.568722
      5          6           0        6.301579    1.106089    2.261895
      6          7           0        3.333752   -0.199927   -1.928513
      7          6           0        3.516295   -1.573045   -1.857173
      8          6           0        2.670112   -2.333373   -2.888344
      9          6           0        2.117320   -1.136413   -3.752693
     10          6           0        2.336393    0.104231   -2.757185
     11          6           0        2.748887   -0.884276   -5.115206
     12          6           0        1.501067   -3.188056   -2.375181
     13          6           0        0.664833   -2.829259   -1.136531
     14          6           0       -0.872926   -2.641953   -1.199457
     15          8           0       -1.488423   -2.596012   -2.234530
     16          8           0       -1.432520   -2.688716    0.034200
     17          7           0        2.738732    2.712909   -1.207854
     18          6           0        1.788402    2.501513   -2.167209
     19          6           0        0.949784    3.671305   -2.341166
     20          6           0        1.484133    4.680861   -1.502017
     21          6           0        2.519172    3.936912   -0.660031
     22          6           0       -0.197801    3.829894   -3.352976
     23          6           0        0.927152    6.001382   -1.422574
     24          8           0       -0.028702    6.296032   -2.119526
     25          6           0        1.502167    7.114105   -0.526015
     26          7           0        4.709611    2.594819    1.145615
     27          6           0        4.043100    3.757046    1.419358
     28          6           0        4.440430    4.252241    2.805138
     29          6           0        5.638338    3.382305    3.262528
     30          6           0        5.571581    2.269234    2.156716
     31          6           0        4.527898    5.764063    3.205634
     32          6           0        5.498893    2.853372    4.783763
     33          6           0        6.545026    3.184283    5.854757
     34          7           0        5.309856   -0.117787    0.374293
     35          6           0        6.130034   -0.049694    1.486826
     36          6           0        6.749996   -1.397089    1.703365
     37          6           0        6.046417   -2.236506    0.878401
     38          6           0        5.228313   -1.381887    0.003589
     39          6           0        7.710599   -1.763845    2.822506
     40          6           0        5.834362   -3.623429    0.506734
     41          8           0        6.233368   -4.757783    0.863786
     42          6           0        4.829366   -3.620156   -0.759896
     43          6           0        5.651663   -4.134188   -1.938908
     44          8           0        5.162704   -4.727463   -2.901716
     45          8           0        6.981870   -3.774501   -1.850360
     46          6           0        7.902290   -4.485652   -2.841864
     47          6           0       -2.900850   -2.734254    0.070270
     48          6           0       -3.446271   -3.536383    1.184159
     49          6           0       -4.062045   -3.095365    2.319556
     50          6           0       -4.219602   -1.633751    2.611483
     51          6           0       -4.568391   -4.083765    3.348963
     52          6           0       -6.118219   -4.172367    3.421976
     53          6           0       -6.749813   -4.985361    2.283105
     54          6           0       -8.025128   -4.301496    1.757629
     55          6           0       -9.073238   -5.306820    1.230589
     56          6           0       -7.658540   -3.072865    0.707871
     57          6           0       -8.744459   -1.980443    0.727831
     58          6           0       -8.362814   -0.732858    1.573623
     59          6           0       -7.900869    0.537599    0.782741
     60          6           0       -6.525195    1.157897    1.262976
     61          6           0       -8.893120    1.674000    0.891742
     62          6           0       -8.998697    2.545524   -0.425675
     63          6           0      -10.197223    3.545574   -0.515642
     64          6           0      -11.152177    3.279089   -1.720594
     65          6           0      -10.902268    4.325526   -2.774894
     66          6           0      -12.672520    3.377517   -1.362441
     67          1           0        0.807700    1.276231   -3.483397
     68          1           0        2.752179    5.342255    0.903167
     69          1           0        6.909363    0.818137    3.121741
     70          1           0        3.276251   -2.978689   -3.524948
     71          1           0        1.048394   -1.204149   -3.952302
     72          1           0        1.979426   -0.651562   -5.851074
     73          1           0        3.400356   -1.686591   -5.462164
     74          1           0        3.313574    0.035448   -4.961706
     75          1           0        2.010657   -4.148777   -2.301550
     76          1           0        0.840258   -3.287807   -3.235735
     77          1           0        1.110963   -1.913247   -0.749182
     78          1           0        0.845147   -3.638053   -0.428641
     79          1           0       -1.176046    3.945724   -2.887013
     80          1           0       -0.087415    2.915002   -3.935501
     81          1           0        0.042267    4.661948   -4.015213
     82          1           0        2.577542    7.270537   -0.600310
     83          1           0        1.428692    7.009149    0.556741
     84          1           0        1.043002    8.044675   -0.861449
     85          1           0        3.534833    3.925622    3.316418
     86          1           0        6.550542    3.973776    3.340856
     87          1           0        3.627854    6.061939    3.744700
     88          1           0        4.448359    6.311444    2.266268
     89          1           0        5.455483    5.861529    3.770193
     90          1           0        5.243605    1.797899    4.693260
     91          1           0        4.597211    3.366465    5.121424
     92          1           0        6.147387    3.966238    6.501437
     93          1           0        7.473726    3.632893    5.500696
     94          1           0        6.699653    2.334315    6.520516
     95          1           0        7.511207   -2.770312    3.188860
     96          1           0        7.861461   -0.990726    3.576259
     97          1           0        8.742228   -1.862215    2.487490
     98          1           0        3.956875   -4.267198   -0.669628
     99          1           0        7.458974   -4.464331   -3.837418
    100          1           0        8.113046   -5.514400   -2.551293
    101          1           0        8.874854   -3.992683   -2.831390
    102          1           0       -3.272633   -3.343074   -0.752917
    103          1           0       -3.283699   -1.717522   -0.018734
    104          1           0       -3.552210   -4.602774    0.984525
    105          1           0       -3.560507   -1.380555    3.441943
    106          1           0       -5.248328   -1.391402    2.876982
    107          1           0       -4.021973   -0.902861    1.826945
    108          1           0       -4.137099   -3.767606    4.299668
    109          1           0       -4.113989   -5.071224    3.277910
    110          1           0       -6.561295   -3.185437    3.286096
    111          1           0       -6.338707   -4.679348    4.360490
    112          1           0       -6.884011   -5.981627    2.705937
    113          1           0       -6.062604   -5.073648    1.441960
    114          1           0       -8.571553   -3.840737    2.579756
    115          1           0       -9.352023   -4.986978    0.226079
    116          1           0       -9.897846   -5.309492    1.943142
    117          1           0       -8.660178   -6.311409    1.132198
    118          1           0       -7.432733   -3.327616   -0.328205
    119          1           0       -6.744338   -2.617966    1.088924
    120          1           0       -9.696166   -2.449946    0.974681
    121          1           0       -8.745478   -1.694380   -0.323603
    122          1           0       -7.565897   -1.027242    2.256464
    123          1           0       -9.179326   -0.632824    2.288768
    124          1           0       -7.745783    0.297224   -0.269483
    125          1           0       -6.481311    2.195942    0.933204
    126          1           0       -5.643182    0.670949    0.848143
    127          1           0       -6.411223    1.137445    2.346608
    128          1           0       -8.622277    2.154453    1.831617
    129          1           0       -9.915151    1.414060    1.168566
    130          1           0       -9.177515    1.835165   -1.233285
    131          1           0       -8.077539    3.085812   -0.646576
    132          1           0       -9.758183    4.543382   -0.499280
    133          1           0      -10.864518    3.492556    0.344718
    134          1           0      -10.943092    2.308188   -2.168324
    135          1           0      -11.337312    5.324846   -2.788283
    136          1           0      -11.129718    3.886312   -3.746350
    137          1           0       -9.824916    4.476268   -2.702773
    138          1           0      -12.621364    4.312880   -0.804393
    139          1           0      -13.066903    2.573767   -0.740191
    140          1           0      -13.295623    3.496395   -2.247687
 ---------------------------------------------------------------------

 SCF Done:  E(RB-LYP) =  -3007.38168468     A.U. after   21 cycles

 Excitation energies and oscillator strengths:

 Excited State   1:      Singlet-A      1.7863 eV  694.07 nm  f=0.2467  <S**2>=0.000
     244 -> 247        0.15817
     245 -> 247        0.20036
     245 -> 248        0.16304
     246 -> 247        0.64219
     246 <- 247       -0.13372
 This state for optimization and/or second-order correction.
 Total Energy, E(TD-HF/TD-DFT) =  -3007.31603778
 Copying the excited state density for this state as the 1-particle RhoCI density.

 Excited State   2:      Singlet-A      1.8314 eV  677.01 nm  f=0.0713  <S**2>=0.000
     244 -> 247        0.45198
     245 -> 247        0.47076
     246 -> 247       -0.24834

 Excited State   3:      Singlet-A      1.9707 eV  629.13 nm  f=0.0006  <S**2>=0.000
     243 -> 247        0.70277

 Excited State   4:      Singlet-A      2.0922 eV  592.59 nm  f=0.0358  <S**2>=0.000
     244 -> 247        0.48612
     245 -> 247       -0.40503
     246 -> 248        0.27582
     246 -> 249       -0.10347

 Excited State   5:      Singlet-A      2.4474 eV  506.59 nm  f=0.0005  <S**2>=0.000
     242 -> 247        0.70623

 The electronic state is 1-A.
 Alpha  occ. eigenvalues --  -46.28485 -18.82134 -18.81679 -18.76783 -18.76371
 Alpha  occ. eigenvalues --  -18.75448 -18.75027 -14.03598 -14.03420 -14.01688
 Alpha  occ. eigenvalues --  -14.01609 -10.04141 -10.03732  -9.99824  -9.99314
 Alpha  occ. eigenvalues --   -9.98079  -9.97401  -9.97213  -9.96854  -9.96838
 Alpha  occ. eigenvalues --   -9.96829  -9.96178  -9.95930  -9.95379  -9.95268
 Alpha  occ. eigenvalues --   -9.94560  -9.94283  -9.94170  -9.94112  -9.94071
 Alpha  occ. eigenvalues --   -9.93822  -9.93519  -9.93378  -9.93356  -9.93133
 Alpha  occ. eigenvalues --   -9.93129  -9.93125  -9.93057  -9.92854  -9.92697
 Alpha  occ. eigenvalues --   -9.92571  -9.92443  -9.92411  -9.92278  -9.92218
 Alpha  occ. eigenvalues --   -9.92199  -9.92191  -9.91992  -9.91894  -9.91878
 Alpha  occ. eigenvalues --   -9.91812  -9.91749  -9.91737  -9.91655  -9.91599
 Alpha  occ. eigenvalues --   -9.91579  -9.91410  -9.91369  -9.91157  -9.91099
 Alpha  occ. eigenvalues --   -9.91019  -9.90950  -9.90899  -9.90722  -9.90716
 Alpha  occ. eigenvalues --   -9.90178  -2.93001  -1.73414  -1.72871  -1.72730
 Alpha  occ. eigenvalues --   -0.98002  -0.96518  -0.91738  -0.90093  -0.89388
 Alpha  occ. eigenvalues --   -0.88761  -0.86872  -0.86172  -0.85908  -0.85177
 Alpha  occ. eigenvalues --   -0.74559  -0.73831  -0.72740  -0.72267  -0.72133
 Alpha  occ. eigenvalues --   -0.72035  -0.71748  -0.70973  -0.70816  -0.70486
 Alpha  occ. eigenvalues --   -0.69720  -0.68828  -0.68074  -0.67656  -0.67218
 Alpha  occ. eigenvalues --   -0.66488  -0.65488  -0.65009  -0.64641  -0.64413
 Alpha  occ. eigenvalues --   -0.64199  -0.62554  -0.62295  -0.61600  -0.60870
 Alpha  occ. eigenvalues --   -0.60741  -0.60329  -0.59690  -0.59423  -0.58741
 Alpha  occ. eigenvalues --   -0.58246  -0.57623  -0.57154  -0.55370  -0.55048
 Alpha  occ. eigenvalues --   -0.54175  -0.53539  -0.53304  -0.52299  -0.51711
 Alpha  occ. eigenvalues --   -0.51188  -0.50891  -0.50744  -0.50364  -0.50217
 Alpha  occ. eigenvalues --   -0.49153  -0.49123  -0.48750  -0.48726  -0.46602
 Alpha  occ. eigenvalues --   -0.46271  -0.46009  -0.45390  -0.44906  -0.44418
 Alpha  occ. eigenvalues --   -0.43793  -0.43644  -0.43036  -0.42713  -0.42396
 Alpha  occ. eigenvalues --   -0.41927  -0.41897  -0.41324  -0.41177  -0.40983
 Alpha  occ. eigenvalues --   -0.40694  -0.40441  -0.40257  -0.40059  -0.39854
 Alpha  occ. eigenvalues --   -0.39523  -0.39407  -0.39290  -0.38978  -0.38912
 Alpha  occ. eigenvalues --   -0.38732  -0.38567  -0.38484  -0.38248  -0.38142
 Alpha  occ. eigenvalues --   -0.38058  -0.37735  -0.37542  -0.37327  -0.37131
 Alpha  occ. eigenvalues --   -0.37024  -0.36783  -0.36666  -0.36415  -0.36363
 Alpha  occ. eigenvalues --   -0.36246  -0.36104  -0.35859  -0.35685  -0.35611
 Alpha  occ. eigenvalues --   -0.35361  -0.35252  -0.35081  -0.34840  -0.34636
 Alpha  occ. eigenvalues --   -0.34580  -0.34387  -0.34214  -0.34013  -0.33887
 Alpha  occ. eigenvalues --   -0.33692  -0.33674  -0.33544  -0.33468  -0.33175
 Alpha  occ. eigenvalues --   -0.32775  -0.32710  -0.32473  -0.32346  -0.32127
 Alpha  occ. eigenvalues --   -0.31936  -0.31778  -0.31678  -0.31583  -0.31236
 Alpha  occ. eigenvalues --   -0.31175  -0.30731  -0.30621  -0.30415  -0.30330
 Alpha  occ. eigenvalues --   -0.30296  -0.30093  -0.29929  -0.29869  -0.29721
 Alpha  occ. eigenvalues --   -0.29588  -0.29146  -0.28990  -0.28801  -0.28648
 Alpha  occ. eigenvalues --   -0.28634  -0.28387  -0.28277  -0.28131  -0.28016
 Alpha  occ. eigenvalues --   -0.27332  -0.27182  -0.27035  -0.26919  -0.26615
 Alpha  occ. eigenvalues --   -0.26268  -0.26078  -0.25792  -0.25627  -0.25261
 Alpha  occ. eigenvalues --   -0.25173  -0.25037  -0.24864  -0.23903  -0.23863
 Alpha  occ. eigenvalues --   -0.23419  -0.22540  -0.22011  -0.21692  -0.21352
 Alpha  occ. eigenvalues --   -0.20876  -0.20400  -0.18543  -0.18297  -0.17424
 Alpha  occ. eigenvalues --   -0.15712
 Alpha virt. eigenvalues --   -0.11410  -0.07407  -0.06432  -0.05022  -0.03894
 Alpha virt. eigenvalues --   -0.03290  -0.02908  -0.01622  -0.01049   0.00234
 Alpha virt. eigenvalues --    0.00844   0.01959   0.02201   0.02367   0.03222

 Mulliken charges:
               1
     1  Mg   0.718167
     2  C   -0.024624
     3  C   -0.069297
     4  C   -0.057769
     5  C   -0.038508
     6  N   -0.182501
     7  C   -0.050322
     8  C    0.035586
     9  C   -0.034245
    10  C   -0.043041
    11  C    0.153069
    12  C    0.099116
    13  C    0.114558
    14  C    0.074932
    15  O   -0.178077
    16  O   -0.260563
    17  N   -0.282384
    18  C    0.167972
    19  C   -0.169271
    20  C    0.087336
    21  C    0.124591
    22  C    0.227337
    23  C   -0.106206
    24  O   -0.170327
    25  C    0.095330
    26  N   -0.231548
    27  C    0.026808
    28  C    0.002888
    29  C    0.004051
    30  C    0.075430
    31  C    0.150306
    32  C    0.055156
    33  C    0.078719
    34  N   -0.225934
    35  C    0.036653
    36  C   -0.164853
    37  C    0.093762
    38  C    0.068334
    39  C    0.170934
    40  C    0.002101
    41  O   -0.165851
    42  C    0.034455
    43  C    0.145272
    44  O   -0.196225
    45  O   -0.287435
    46  C    0.216637
    47  C    0.335002
    48  C   -0.103663
    49  C   -0.143625
    50  C    0.148521
    51  C    0.139950
    52  C    0.073722
    53  C    0.116017
    54  C   -0.106351
    55  C    0.123390
    56  C    0.061122
    57  C    0.066184
    58  C    0.144733
    59  C   -0.032645
    60  C    0.075931
    61  C    0.082178
    62  C    0.066652
    63  C    0.113863
    64  C   -0.083187
    65  C    0.085915
    66  C    0.091422
    67  H   -0.056870
    68  H   -0.103561
    69  H   -0.065545
    70  H   -0.018653
    71  H   -0.023804
    72  H   -0.006877
    73  H    0.001120
    74  H   -0.017547
    75  H   -0.015531
    76  H   -0.019198
    77  H    0.016314
    78  H    0.003650
    79  H    0.017028
    80  H   -0.037596
    81  H    0.008526
    82  H   -0.010214
    83  H    0.018981
    84  H   -0.007566
    85  H   -0.011078
    86  H   -0.023920
    87  H   -0.012188
    88  H   -0.003878
    89  H    0.002482
    90  H   -0.013362
    91  H   -0.027432
    92  H   -0.016002
    93  H   -0.007019
    94  H   -0.000533
    95  H    0.013092
    96  H   -0.017849
    97  H   -0.011548
    98  H   -0.004503
    99  H    0.026625
   100  H    0.025418
   101  H    0.015224
   102  H   -0.007328
   103  H   -0.010834
   104  H   -0.033378
   105  H   -0.002881
   106  H   -0.007739
   107  H   -0.013446
   108  H   -0.036388
   109  H   -0.036094
   110  H   -0.020666
   111  H   -0.024204
   112  H   -0.039279
   113  H   -0.030353
   114  H   -0.037657
   115  H   -0.017372
   116  H   -0.011168
   117  H   -0.018964
   118  H   -0.026956
   119  H   -0.037874
   120  H   -0.027285
   121  H   -0.036577
   122  H   -0.056237
   123  H   -0.041156
   124  H   -0.034137
   125  H   -0.016816
   126  H   -0.017836
   127  H   -0.008263
   128  H   -0.042946
   129  H   -0.044536
   130  H   -0.026547
   131  H   -0.021839
   132  H   -0.028835
   133  H   -0.043434
   134  H   -0.029047
   135  H   -0.010471
   136  H   -0.025227
   137  H   -0.027422
   138  H   -0.014818
   139  H   -0.012680
   140  H   -0.013140
 Sum of Mulliken charges =  -0.00000

 Dipole moment (field-independent basis, Debye):
    X=              1.7896    Y=              2.8805    Z=              3.5727  Tot=              4.9259
 Quadrupole moment (field-independent basis, Debye-Ang):
   XX=           -373.3989   YY=           -431.4105   ZZ=           -391.5055
   XY=             35.5085   XZ=             -7.9191   YZ=             15.3786

 Normal termination of Gaussian 16 at Thu Apr 28 12:42:06 2022.
