 Gaussian 16, Revision A.03,
 Gaussian 16:  ES64L-G16RevA.03 25-Dec-2016

 -----------------------------------
 #p cam-b3lyp/Def2SVP td=(nstates=5)
 -----------------------------------

 -------------------------------------------------------
 step_1551_chromophore_2 TDDFT with cam-b3lyp functional
 -------------------------------------------------------
 Symbolic Z-matrix:
 Charge =  0 Multiplicity = 1

                         Standard orientation:
 ---------------------------------------------------------------------
 Center     Atomic      Atomic             Coordinates (Angstroms)
 Number     Number       Type             X           Y           Z
 ---------------------------------------------------------------------
      1         12           0        4.264757    1.422108   -0.589901
      2          6           0        4.471297   -2.130723   -0.943164
      3          6           0        1.677958    1.323200   -2.825303
      4          6           0        3.072558    4.354123    0.568722
      5          6           0        6.301579    1.106089    2.261895
      6          7           0        3.333752   -0.199927   -1.928513
      7          6           0        3.516295   -1.573045   -1.857173
      8          6           0        2.670112   -2.333373   -2.888344
      9          6           0        2.117320   -1.136413   -3.752693
     10          6           0        2.336393    0.104231   -2.757185
     11          6           0        2.748887   -0.884276   -5.115206
     12          6           0        1.501067   -3.188056   -2.375181
     13          6           0        0.664833   -2.829259   -1.136531
     14          6           0       -0.872926   -2.641953   -1.199457
     15          8           0       -1.488423   -2.596012   -2.234530
     16          8           0       -1.432520   -2.688716    0.034200
     17          7           0        2.738732    2.712909   -1.207854
     18          6           0        1.788402    2.501513   -2.167209
     19          6           0        0.949784    3.671305   -2.341166
     20          6           0        1.484133    4.680861   -1.502017
     21          6           0        2.519172    3.936912   -0.660031
     22          6           0       -0.197801    3.829894   -3.352976
     23          6           0        0.927152    6.001382   -1.422574
     24          8           0       -0.028702    6.296032   -2.119526
     25          6           0        1.502167    7.114105   -0.526015
     26          7           0        4.709611    2.594819    1.145615
     27          6           0        4.043100    3.757046    1.419358
     28          6           0        4.440430    4.252241    2.805138
     29          6           0        5.638338    3.382305    3.262528
     30          6           0        5.571581    2.269234    2.156716
     31          6           0        4.527898    5.764063    3.205634
     32          6           0        5.498893    2.853372    4.783763
     33          6           0        6.545026    3.184283    5.854757
     34          7           0        5.309856   -0.117787    0.374293
     35          6           0        6.130034   -0.049694    1.486826
     36          6           0        6.749996   -1.397089    1.703365
     37          6           0        6.046417   -2.236506    0.878401
     38          6           0        5.228313   -1.381887    0.003589
     39          6           0        7.710599   -1.763845    2.822506
     40          6           0        5.834362   -3.623429    0.506734
     41          8           0        6.233368   -4.757783    0.863786
     42          6           0        4.829366   -3.620156   -0.759896
     43          6           0        5.651663   -4.134188   -1.938908
     44          8           0        5.162704   -4.727463   -2.901716
     45          8           0        6.981870   -3.774501   -1.850360
     46          6           0        7.902290   -4.485652   -2.841864
     47          6           0       -2.900850   -2.734254    0.070270
     48          6           0       -3.446271   -3.536383    1.184159
     49          6           0       -4.062045   -3.095365    2.319556
     50          6           0       -4.219602   -1.633751    2.611483
     51          6           0       -4.568391   -4.083765    3.348963
     52          6           0       -6.118219   -4.172367    3.421976
     53          6           0       -6.749813   -4.985361    2.283105
     54          6           0       -8.025128   -4.301496    1.757629
     55          6           0       -9.073238   -5.306820    1.230589
     56          6           0       -7.658540   -3.072865    0.707871
     57          6           0       -8.744459   -1.980443    0.727831
     58          6           0       -8.362814   -0.732858    1.573623
     59          6           0       -7.900869    0.537599    0.782741
     60          6           0       -6.525195    1.157897    1.262976
     61          6           0       -8.893120    1.674000    0.891742
     62          6           0       -8.998697    2.545524   -0.425675
     63          6           0      -10.197223    3.545574   -0.515642
     64          6           0      -11.152177    3.279089   -1.720594
     65          6           0      -10.902268    4.325526   -2.774894
     66          6           0      -12.672520    3.377517   -1.362441
     67          1           0        0.807700    1.276231   -3.483397
     68          1           0        2.752179    5.342255    0.903167
     69          1           0        6.909363    0.818137    3.121741
     70          1           0        3.276251   -2.978689   -3.524948
     71          1           0        1.048394   -1.204149   -3.952302
     72          1           0        1.979426   -0.651562   -5.851074
     73          1           0        3.400356   -1.686591   -5.462164
     74          1           0        3.313574    0.035448   -4.961706
     75          1           0        2.010657   -4.148777   -2.301550
     76          1           0        0.840258   -3.287807   -3.235735
     77          1           0        1.110963   -1.913247   -0.749182
     78          1           0        0.845147   -3.638053   -0.428641
     79          1           0       -1.176046    3.945724   -2.887013
     80          1           0       -0.087415    2.915002   -3.935501
     81          1           0        0.042267    4.661948   -4.015213
     82          1           0        2.577542    7.270537   -0.600310
     83          1           0        1.428692    7.009149    0.556741
     84          1           0        1.043002    8.044675   -0.861449
     85          1           0        3.534833    3.925622    3.316418
     86          1           0        6.550542    3.973776    3.340856
     87          1           0        3.627854    6.061939    3.744700
     88          1           0        4.448359    6.311444    2.266268
     89          1           0        5.455483    5.861529    3.770193
     90          1           0        5.243605    1.797899    4.693260
     91          1           0        4.597211    3.366465    5.121424
     92          1           0        6.147387    3.966238    6.501437
     93          1           0        7.473726    3.632893    5.500696
     94          1           0        6.699653    2.334315    6.520516
     95          1           0        7.511207   -2.770312    3.188860
     96          1           0        7.861461   -0.990726    3.576259
     97          1           0        8.742228   -1.862215    2.487490
     98          1           0        3.956875   -4.267198   -0.669628
     99          1           0        7.458974   -4.464331   -3.837418
    100          1           0        8.113046   -5.514400   -2.551293
    101          1           0        8.874854   -3.992683   -2.831390
    102          1           0       -3.272633   -3.343074   -0.752917
    103          1           0       -3.283699   -1.717522   -0.018734
    104          1           0       -3.552210   -4.602774    0.984525
    105          1           0       -3.560507   -1.380555    3.441943
    106          1           0       -5.248328   -1.391402    2.876982
    107          1           0       -4.021973   -0.902861    1.826945
    108          1           0       -4.137099   -3.767606    4.299668
    109          1           0       -4.113989   -5.071224    3.277910
    110          1           0       -6.561295   -3.185437    3.286096
    111          1           0       -6.338707   -4.679348    4.360490
    112          1           0       -6.884011   -5.981627    2.705937
    113          1           0       -6.062604   -5.073648    1.441960
    114          1           0       -8.571553   -3.840737    2.579756
    115          1           0       -9.352023   -4.986978    0.226079
    116          1           0       -9.897846   -5.309492    1.943142
    117          1           0       -8.660178   -6.311409    1.132198
    118          1           0       -7.432733   -3.327616   -0.328205
    119          1           0       -6.744338   -2.617966    1.088924
    120          1           0       -9.696166   -2.449946    0.974681
    121          1           0       -8.745478   -1.694380   -0.323603
    122          1           0       -7.565897   -1.027242    2.256464
    123          1           0       -9.179326   -0.632824    2.288768
    124          1           0       -7.745783    0.297224   -0.269483
    125          1           0       -6.481311    2.195942    0.933204
    126          1           0       -5.643182    0.670949    0.848143
    127          1           0       -6.411223    1.137445    2.346608
    128          1           0       -8.622277    2.154453    1.831617
    129          1           0       -9.915151    1.414060    1.168566
    130          1           0       -9.177515    1.835165   -1.233285
    131          1           0       -8.077539    3.085812   -0.646576
    132          1           0       -9.758183    4.543382   -0.499280
    133          1           0      -10.864518    3.492556    0.344718
    134          1           0      -10.943092    2.308188   -2.168324
    135          1           0      -11.337312    5.324846   -2.788283
    136          1           0      -11.129718    3.886312   -3.746350
    137          1           0       -9.824916    4.476268   -2.702773
    138          1           0      -12.621364    4.312880   -0.804393
    139          1           0      -13.066903    2.573767   -0.740191
    140          1           0      -13.295623    3.496395   -2.247687
 ---------------------------------------------------------------------

 SCF Done:  E(RCAM-B3LYP) =  -3007.16843186     A.U. after   17 cycles

 Excitation energies and oscillator strengths:

 Excited State   1:      Singlet-A      1.7171 eV  722.07 nm  f=0.3706  <S**2>=0.000
     245 -> 248       -0.17975
     246 -> 247        0.68458
     245 <- 248       -0.10540
 This state for optimization and/or second-order correction.
 Total Energy, E(TD-HF/TD-DFT) =  -3007.10533087
 Copying the excited state density for this state as the 1-particle RhoCI density.

 Excited State   2:      Singlet-A      2.3136 eV  535.89 nm  f=0.0387  <S**2>=0.000
     245 -> 247        0.59456
     246 -> 248        0.37006

 Excited State   3:      Singlet-A      3.3679 eV  368.14 nm  f=0.2798  <S**2>=0.000
     242 -> 247        0.12930
     244 -> 247       -0.36083
     244 -> 249        0.25103
     244 -> 251       -0.14272
     245 -> 247       -0.23667
     246 -> 248        0.39546

 Excited State   4:      Singlet-A      3.4420 eV  360.21 nm  f=0.3334  <S**2>=0.000
     241 -> 247        0.11549
     242 -> 249        0.12816
     244 -> 247        0.38008
     244 -> 249       -0.17330
     244 -> 251        0.12856
     245 -> 247       -0.23754
     246 -> 248        0.40630

 Excited State   5:      Singlet-A      3.5198 eV  352.25 nm  f=0.0918  <S**2>=0.000
     239 -> 247        0.18579
     239 -> 251        0.12156
     240 -> 247        0.24506
     240 -> 248        0.10808
     240 -> 249        0.19090
     240 -> 251        0.15915
     241 -> 247        0.22398
     241 -> 249        0.11531
     242 -> 247        0.38241
     245 -> 247        0.11696
     246 -> 248       -0.15434

 The electronic state is 1-A.
 Alpha  occ. eigenvalues --  -46.90138 -19.24943 -19.24495 -19.19729 -19.19244
 Alpha  occ. eigenvalues --  -19.18538 -19.18447 -14.42430 -14.42345 -14.40238
 Alpha  occ. eigenvalues --  -14.40084 -10.39484 -10.38904 -10.35202 -10.34671
 Alpha  occ. eigenvalues --  -10.32144 -10.32073 -10.31700 -10.31277 -10.31227
 Alpha  occ. eigenvalues --  -10.31041 -10.30792 -10.29959 -10.29925 -10.29377
 Alpha  occ. eigenvalues --  -10.28857 -10.28637 -10.28492 -10.28483 -10.28427
 Alpha  occ. eigenvalues --  -10.28046 -10.27691 -10.27360 -10.27184 -10.27148
 Alpha  occ. eigenvalues --  -10.27147 -10.27009 -10.27001 -10.26838 -10.26572
 Alpha  occ. eigenvalues --  -10.26455 -10.26435 -10.26163 -10.26155 -10.26020
 Alpha  occ. eigenvalues --  -10.25997 -10.25979 -10.25938 -10.25861 -10.25804
 Alpha  occ. eigenvalues --  -10.25797 -10.25601 -10.25462 -10.25427 -10.25345
 Alpha  occ. eigenvalues --  -10.25320 -10.25114 -10.25103 -10.24819 -10.24743
 Alpha  occ. eigenvalues --  -10.24687 -10.24639 -10.24537 -10.24330 -10.24290
 Alpha  occ. eigenvalues --  -10.23744  -3.18548  -1.93439  -1.92977  -1.92864
 Alpha  occ. eigenvalues --   -1.16424  -1.14893  -1.10363  -1.07899  -1.07599
 Alpha  occ. eigenvalues --   -1.06523  -1.04551  -1.03854  -1.03558  -1.02754
 Alpha  occ. eigenvalues --   -0.91583  -0.90718  -0.89528  -0.88999  -0.88803
 Alpha  occ. eigenvalues --   -0.88750  -0.88433  -0.87557  -0.87365  -0.87003
 Alpha  occ. eigenvalues --   -0.86585  -0.85130  -0.84371  -0.83730  -0.83391
 Alpha  occ. eigenvalues --   -0.82549  -0.81667  -0.81015  -0.80437  -0.80213
 Alpha  occ. eigenvalues --   -0.80007  -0.78135  -0.77795  -0.77381  -0.76311
 Alpha  occ. eigenvalues --   -0.76104  -0.75668  -0.75030  -0.74698  -0.73960
 Alpha  occ. eigenvalues --   -0.73261  -0.72587  -0.72150  -0.70206  -0.69599
 Alpha  occ. eigenvalues --   -0.69015  -0.68053  -0.67841  -0.66621  -0.65776
 Alpha  occ. eigenvalues --   -0.65372  -0.64864  -0.64750  -0.64432  -0.64281
 Alpha  occ. eigenvalues --   -0.63108  -0.62855  -0.62611  -0.62298  -0.60164
 Alpha  occ. eigenvalues --   -0.59792  -0.59526  -0.58841  -0.58411  -0.57862
 Alpha  occ. eigenvalues --   -0.57204  -0.56881  -0.56337  -0.56085  -0.55580
 Alpha  occ. eigenvalues --   -0.55056  -0.54948  -0.54070  -0.54001  -0.53833
 Alpha  occ. eigenvalues --   -0.53667  -0.53491  -0.53111  -0.52615  -0.52580
 Alpha  occ. eigenvalues --   -0.52483  -0.52046  -0.51963  -0.51633  -0.51477
 Alpha  occ. eigenvalues --   -0.51372  -0.51081  -0.51030  -0.50784  -0.50609
 Alpha  occ. eigenvalues --   -0.50365  -0.50054  -0.49755  -0.49558  -0.49295
 Alpha  occ. eigenvalues --   -0.49186  -0.49165  -0.49041  -0.48818  -0.48687
 Alpha  occ. eigenvalues --   -0.48586  -0.48289  -0.48096  -0.48058  -0.47820
 Alpha  occ. eigenvalues --   -0.47558  -0.47480  -0.47211  -0.46756  -0.46663
 Alpha  occ. eigenvalues --   -0.46507  -0.46261  -0.46077  -0.45850  -0.45702
 Alpha  occ. eigenvalues --   -0.45583  -0.45413  -0.45174  -0.45079  -0.44923
 Alpha  occ. eigenvalues --   -0.44435  -0.44365  -0.44262  -0.44047  -0.43926
 Alpha  occ. eigenvalues --   -0.43551  -0.43426  -0.43109  -0.43004  -0.42760
 Alpha  occ. eigenvalues --   -0.42588  -0.42375  -0.42226  -0.42010  -0.41871
 Alpha  occ. eigenvalues --   -0.41645  -0.41577  -0.41377  -0.41288  -0.41035
 Alpha  occ. eigenvalues --   -0.40925  -0.40474  -0.40076  -0.39805  -0.39718
 Alpha  occ. eigenvalues --   -0.39491  -0.39488  -0.39290  -0.39248  -0.39079
 Alpha  occ. eigenvalues --   -0.38163  -0.38006  -0.37995  -0.37727  -0.37707
 Alpha  occ. eigenvalues --   -0.37081  -0.36757  -0.36458  -0.36406  -0.36305
 Alpha  occ. eigenvalues --   -0.36228  -0.35927  -0.35718  -0.34422  -0.34238
 Alpha  occ. eigenvalues --   -0.34186  -0.33810  -0.33235  -0.31566  -0.31308
 Alpha  occ. eigenvalues --   -0.30705  -0.30341  -0.30104  -0.29933  -0.24508
 Alpha  occ. eigenvalues --   -0.20857
 Alpha virt. eigenvalues --   -0.08282  -0.02366  -0.00087   0.01133   0.01782
 Alpha virt. eigenvalues --    0.04138   0.05000   0.05615   0.06115   0.07153
 Alpha virt. eigenvalues --    0.07998   0.08252   0.08521   0.09088   0.09447

 Mulliken charges:
               1
     1  Mg   0.846730
     2  C   -0.051310
     3  C   -0.085995
     4  C   -0.082242
     5  C   -0.047272
     6  N   -0.246382
     7  C   -0.021200
     8  C   -0.012863
     9  C   -0.078517
    10  C   -0.027690
    11  C    0.093704
    12  C    0.050363
    13  C    0.042809
    14  C    0.157513
    15  O   -0.221445
    16  O   -0.324417
    17  N   -0.370686
    18  C    0.171838
    19  C   -0.162084
    20  C    0.014435
    21  C    0.159045
    22  C    0.174754
    23  C   -0.035083
    24  O   -0.210569
    25  C    0.019174
    26  N   -0.310539
    27  C    0.059104
    28  C   -0.059571
    29  C   -0.041766
    30  C    0.090186
    31  C    0.093748
    32  C    0.000472
    33  C    0.015440
    34  N   -0.313692
    35  C    0.042695
    36  C   -0.157186
    37  C    0.009300
    38  C    0.107212
    39  C    0.114667
    40  C    0.100920
    41  O   -0.205756
    42  C   -0.032938
    43  C    0.236170
    44  O   -0.239610
    45  O   -0.352493
    46  C    0.179395
    47  C    0.297612
    48  C   -0.119536
    49  C   -0.168527
    50  C    0.093061
    51  C    0.082558
    52  C    0.019769
    53  C    0.062964
    54  C   -0.160157
    55  C    0.063659
    56  C    0.018590
    57  C    0.011614
    58  C    0.092545
    59  C   -0.093529
    60  C    0.025736
    61  C    0.029461
    62  C    0.017315
    63  C    0.051621
    64  C   -0.142971
    65  C    0.026756
    66  C    0.033801
    67  H   -0.021692
    68  H   -0.070347
    69  H   -0.033115
    70  H    0.019656
    71  H    0.010539
    72  H    0.017503
    73  H    0.026214
    74  H    0.008436
    75  H    0.014001
    76  H    0.015131
    77  H    0.045494
    78  H    0.035955
    79  H    0.046062
    80  H   -0.011594
    81  H    0.037855
    82  H    0.019628
    83  H    0.045232
    84  H    0.028541
    85  H    0.024307
    86  H    0.008037
    87  H    0.013239
    88  H    0.017924
    89  H    0.026026
    90  H    0.016495
    91  H    0.001037
    92  H    0.007192
    93  H    0.015805
    94  H    0.023899
    95  H    0.039287
    96  H    0.006708
    97  H    0.015968
    98  H    0.035624
    99  H    0.051073
   100  H    0.046625
   101  H    0.038747
   102  H    0.023503
   103  H    0.016858
   104  H   -0.002450
   105  H    0.023687
   106  H    0.009244
   107  H    0.009239
   108  H   -0.004689
   109  H   -0.003608
   110  H    0.001294
   111  H    0.005702
   112  H   -0.008459
   113  H   -0.003682
   114  H   -0.006109
   115  H    0.006206
   116  H    0.012213
   117  H    0.006157
   118  H    0.001385
   119  H   -0.016980
   120  H    0.000690
   121  H   -0.007574
   122  H   -0.032028
   123  H   -0.010235
   124  H   -0.002475
   125  H    0.007674
   126  H    0.003094
   127  H    0.013510
   128  H   -0.013996
   129  H   -0.014850
   130  H   -0.000158
   131  H    0.003234
   132  H    0.001444
   133  H   -0.012954
   134  H    0.002367
   135  H    0.014437
   136  H    0.000363
   137  H   -0.003935
   138  H    0.006545
   139  H    0.011719
   140  H    0.011412
 Sum of Mulliken charges =  -0.00000

 Dipole moment (field-independent basis, Debye):
    X=              1.5478    Y=              3.5521    Z=              3.3743  Tot=              5.1380
 Quadrupole moment (field-independent basis, Debye-Ang):
   XX=           -375.1629   YY=           -426.8633   ZZ=           -389.8238
   XY=             36.8734   XZ=             -8.3508   YZ=             15.6586

 Normal termination of Gaussian 16 at Thu Apr 28 11:42:22 2022.
