 Gaussian 16, Revision A.03,
 Gaussian 16:  ES64L-G16RevA.03 25-Dec-2016

 ---------------------------------
 #p PBE1PBE/Def2SVP td=(nstates=5)
 ---------------------------------

 -----------------------------------------------------
 step_1551_chromophore_2 TDDFT with PBE1PBE functional
 -----------------------------------------------------
 Symbolic Z-matrix:
 Charge =  0 Multiplicity = 1

                         Standard orientation:
 ---------------------------------------------------------------------
 Center     Atomic      Atomic             Coordinates (Angstroms)
 Number     Number       Type             X           Y           Z
 ---------------------------------------------------------------------
      1         12           0        4.264757    1.422108   -0.589901
      2          6           0        4.471297   -2.130723   -0.943164
      3          6           0        1.677958    1.323200   -2.825303
      4          6           0        3.072558    4.354123    0.568722
      5          6           0        6.301579    1.106089    2.261895
      6          7           0        3.333752   -0.199927   -1.928513
      7          6           0        3.516295   -1.573045   -1.857173
      8          6           0        2.670112   -2.333373   -2.888344
      9          6           0        2.117320   -1.136413   -3.752693
     10          6           0        2.336393    0.104231   -2.757185
     11          6           0        2.748887   -0.884276   -5.115206
     12          6           0        1.501067   -3.188056   -2.375181
     13          6           0        0.664833   -2.829259   -1.136531
     14          6           0       -0.872926   -2.641953   -1.199457
     15          8           0       -1.488423   -2.596012   -2.234530
     16          8           0       -1.432520   -2.688716    0.034200
     17          7           0        2.738732    2.712909   -1.207854
     18          6           0        1.788402    2.501513   -2.167209
     19          6           0        0.949784    3.671305   -2.341166
     20          6           0        1.484133    4.680861   -1.502017
     21          6           0        2.519172    3.936912   -0.660031
     22          6           0       -0.197801    3.829894   -3.352976
     23          6           0        0.927152    6.001382   -1.422574
     24          8           0       -0.028702    6.296032   -2.119526
     25          6           0        1.502167    7.114105   -0.526015
     26          7           0        4.709611    2.594819    1.145615
     27          6           0        4.043100    3.757046    1.419358
     28          6           0        4.440430    4.252241    2.805138
     29          6           0        5.638338    3.382305    3.262528
     30          6           0        5.571581    2.269234    2.156716
     31          6           0        4.527898    5.764063    3.205634
     32          6           0        5.498893    2.853372    4.783763
     33          6           0        6.545026    3.184283    5.854757
     34          7           0        5.309856   -0.117787    0.374293
     35          6           0        6.130034   -0.049694    1.486826
     36          6           0        6.749996   -1.397089    1.703365
     37          6           0        6.046417   -2.236506    0.878401
     38          6           0        5.228313   -1.381887    0.003589
     39          6           0        7.710599   -1.763845    2.822506
     40          6           0        5.834362   -3.623429    0.506734
     41          8           0        6.233368   -4.757783    0.863786
     42          6           0        4.829366   -3.620156   -0.759896
     43          6           0        5.651663   -4.134188   -1.938908
     44          8           0        5.162704   -4.727463   -2.901716
     45          8           0        6.981870   -3.774501   -1.850360
     46          6           0        7.902290   -4.485652   -2.841864
     47          6           0       -2.900850   -2.734254    0.070270
     48          6           0       -3.446271   -3.536383    1.184159
     49          6           0       -4.062045   -3.095365    2.319556
     50          6           0       -4.219602   -1.633751    2.611483
     51          6           0       -4.568391   -4.083765    3.348963
     52          6           0       -6.118219   -4.172367    3.421976
     53          6           0       -6.749813   -4.985361    2.283105
     54          6           0       -8.025128   -4.301496    1.757629
     55          6           0       -9.073238   -5.306820    1.230589
     56          6           0       -7.658540   -3.072865    0.707871
     57          6           0       -8.744459   -1.980443    0.727831
     58          6           0       -8.362814   -0.732858    1.573623
     59          6           0       -7.900869    0.537599    0.782741
     60          6           0       -6.525195    1.157897    1.262976
     61          6           0       -8.893120    1.674000    0.891742
     62          6           0       -8.998697    2.545524   -0.425675
     63          6           0      -10.197223    3.545574   -0.515642
     64          6           0      -11.152177    3.279089   -1.720594
     65          6           0      -10.902268    4.325526   -2.774894
     66          6           0      -12.672520    3.377517   -1.362441
     67          1           0        0.807700    1.276231   -3.483397
     68          1           0        2.752179    5.342255    0.903167
     69          1           0        6.909363    0.818137    3.121741
     70          1           0        3.276251   -2.978689   -3.524948
     71          1           0        1.048394   -1.204149   -3.952302
     72          1           0        1.979426   -0.651562   -5.851074
     73          1           0        3.400356   -1.686591   -5.462164
     74          1           0        3.313574    0.035448   -4.961706
     75          1           0        2.010657   -4.148777   -2.301550
     76          1           0        0.840258   -3.287807   -3.235735
     77          1           0        1.110963   -1.913247   -0.749182
     78          1           0        0.845147   -3.638053   -0.428641
     79          1           0       -1.176046    3.945724   -2.887013
     80          1           0       -0.087415    2.915002   -3.935501
     81          1           0        0.042267    4.661948   -4.015213
     82          1           0        2.577542    7.270537   -0.600310
     83          1           0        1.428692    7.009149    0.556741
     84          1           0        1.043002    8.044675   -0.861449
     85          1           0        3.534833    3.925622    3.316418
     86          1           0        6.550542    3.973776    3.340856
     87          1           0        3.627854    6.061939    3.744700
     88          1           0        4.448359    6.311444    2.266268
     89          1           0        5.455483    5.861529    3.770193
     90          1           0        5.243605    1.797899    4.693260
     91          1           0        4.597211    3.366465    5.121424
     92          1           0        6.147387    3.966238    6.501437
     93          1           0        7.473726    3.632893    5.500696
     94          1           0        6.699653    2.334315    6.520516
     95          1           0        7.511207   -2.770312    3.188860
     96          1           0        7.861461   -0.990726    3.576259
     97          1           0        8.742228   -1.862215    2.487490
     98          1           0        3.956875   -4.267198   -0.669628
     99          1           0        7.458974   -4.464331   -3.837418
    100          1           0        8.113046   -5.514400   -2.551293
    101          1           0        8.874854   -3.992683   -2.831390
    102          1           0       -3.272633   -3.343074   -0.752917
    103          1           0       -3.283699   -1.717522   -0.018734
    104          1           0       -3.552210   -4.602774    0.984525
    105          1           0       -3.560507   -1.380555    3.441943
    106          1           0       -5.248328   -1.391402    2.876982
    107          1           0       -4.021973   -0.902861    1.826945
    108          1           0       -4.137099   -3.767606    4.299668
    109          1           0       -4.113989   -5.071224    3.277910
    110          1           0       -6.561295   -3.185437    3.286096
    111          1           0       -6.338707   -4.679348    4.360490
    112          1           0       -6.884011   -5.981627    2.705937
    113          1           0       -6.062604   -5.073648    1.441960
    114          1           0       -8.571553   -3.840737    2.579756
    115          1           0       -9.352023   -4.986978    0.226079
    116          1           0       -9.897846   -5.309492    1.943142
    117          1           0       -8.660178   -6.311409    1.132198
    118          1           0       -7.432733   -3.327616   -0.328205
    119          1           0       -6.744338   -2.617966    1.088924
    120          1           0       -9.696166   -2.449946    0.974681
    121          1           0       -8.745478   -1.694380   -0.323603
    122          1           0       -7.565897   -1.027242    2.256464
    123          1           0       -9.179326   -0.632824    2.288768
    124          1           0       -7.745783    0.297224   -0.269483
    125          1           0       -6.481311    2.195942    0.933204
    126          1           0       -5.643182    0.670949    0.848143
    127          1           0       -6.411223    1.137445    2.346608
    128          1           0       -8.622277    2.154453    1.831617
    129          1           0       -9.915151    1.414060    1.168566
    130          1           0       -9.177515    1.835165   -1.233285
    131          1           0       -8.077539    3.085812   -0.646576
    132          1           0       -9.758183    4.543382   -0.499280
    133          1           0      -10.864518    3.492556    0.344718
    134          1           0      -10.943092    2.308188   -2.168324
    135          1           0      -11.337312    5.324846   -2.788283
    136          1           0      -11.129718    3.886312   -3.746350
    137          1           0       -9.824916    4.476268   -2.702773
    138          1           0      -12.621364    4.312880   -0.804393
    139          1           0      -13.066903    2.573767   -0.740191
    140          1           0      -13.295623    3.496395   -2.247687
 ---------------------------------------------------------------------

 SCF Done:  E(RPBE1PBE) =  -3005.35695523     A.U. after   15 cycles

 Excitation energies and oscillator strengths:

 Excited State   1:      Singlet-A      1.8525 eV  669.28 nm  f=0.3623  <S**2>=0.000
     245 -> 248        0.17090
     246 -> 247        0.69185
     246 <- 247       -0.10218
 This state for optimization and/or second-order correction.
 Total Energy, E(TD-HF/TD-DFT) =  -3005.28887693
 Copying the excited state density for this state as the 1-particle RhoCI density.

 Excited State   2:      Singlet-A      2.2974 eV  539.67 nm  f=0.0510  <S**2>=0.000
     245 -> 247        0.61967
     246 -> 248       -0.32546

 Excited State   3:      Singlet-A      2.9171 eV  425.02 nm  f=0.0074  <S**2>=0.000
     244 -> 247        0.64450
     244 -> 249       -0.19412
     246 -> 248        0.13361

 Excited State   4:      Singlet-A      3.0590 eV  405.31 nm  f=0.0006  <S**2>=0.000
     241 -> 247        0.15717
     242 -> 247        0.63403
     242 -> 249        0.12429
     242 -> 250        0.10268

 Excited State   5:      Singlet-A      3.2050 eV  386.84 nm  f=0.3473  <S**2>=0.000
     240 -> 247        0.10661
     244 -> 247       -0.11503
     245 -> 247        0.26346
     246 -> 248        0.56205
     246 -> 249        0.24188
     246 -> 250        0.11094

 The electronic state is 1-A.
 Alpha  occ. eigenvalues --  -46.93538 -19.25628 -19.25163 -19.20040 -19.19510
 Alpha  occ. eigenvalues --  -19.18908 -19.18542 -14.41953 -14.41863 -14.39779
 Alpha  occ. eigenvalues --  -14.39776 -10.36581 -10.35912 -10.32474 -10.31644
 Alpha  occ. eigenvalues --  -10.29730 -10.29311 -10.29161 -10.29127 -10.28943
 Alpha  occ. eigenvalues --  -10.28631 -10.28407 -10.27916 -10.27375 -10.27265
 Alpha  occ. eigenvalues --  -10.26466 -10.26411 -10.26314 -10.26267 -10.26159
 Alpha  occ. eigenvalues --  -10.25873 -10.25339 -10.25208 -10.24923 -10.24867
 Alpha  occ. eigenvalues --  -10.24623 -10.24550 -10.24545 -10.24490 -10.24313
 Alpha  occ. eigenvalues --  -10.24002 -10.23918 -10.23846 -10.23737 -10.23676
 Alpha  occ. eigenvalues --  -10.23632 -10.23521 -10.23471 -10.23252 -10.23234
 Alpha  occ. eigenvalues --  -10.23232 -10.23204 -10.23002 -10.22980 -10.22865
 Alpha  occ. eigenvalues --  -10.22763 -10.22683 -10.22666 -10.22272 -10.22223
 Alpha  occ. eigenvalues --  -10.22214 -10.22194 -10.22077 -10.21707 -10.21662
 Alpha  occ. eigenvalues --  -10.21107  -3.15528  -1.88357  -1.87877  -1.87765
 Alpha  occ. eigenvalues --   -1.11232  -1.09672  -1.04964  -1.02767  -1.02423
 Alpha  occ. eigenvalues --   -1.01400  -0.99219  -0.98498  -0.98175  -0.97396
 Alpha  occ. eigenvalues --   -0.85969  -0.84810  -0.83593  -0.83268  -0.83086
 Alpha  occ. eigenvalues --   -0.83035  -0.82525  -0.81720  -0.81650  -0.81408
 Alpha  occ. eigenvalues --   -0.80777  -0.79307  -0.78542  -0.78054  -0.77626
 Alpha  occ. eigenvalues --   -0.76745  -0.75843  -0.75148  -0.74665  -0.74509
 Alpha  occ. eigenvalues --   -0.74168  -0.72450  -0.72116  -0.71534  -0.70595
 Alpha  occ. eigenvalues --   -0.70270  -0.70009  -0.69095  -0.68808  -0.68116
 Alpha  occ. eigenvalues --   -0.67657  -0.66975  -0.66578  -0.64499  -0.64025
 Alpha  occ. eigenvalues --   -0.63429  -0.62561  -0.62084  -0.60892  -0.60193
 Alpha  occ. eigenvalues --   -0.59622  -0.59378  -0.59352  -0.58815  -0.58390
 Alpha  occ. eigenvalues --   -0.57373  -0.57247  -0.56893  -0.56776  -0.54764
 Alpha  occ. eigenvalues --   -0.54129  -0.54123  -0.53441  -0.52930  -0.52523
 Alpha  occ. eigenvalues --   -0.51634  -0.51228  -0.50847  -0.50557  -0.50110
 Alpha  occ. eigenvalues --   -0.49668  -0.49400  -0.48484  -0.48390  -0.48312
 Alpha  occ. eigenvalues --   -0.48240  -0.48133  -0.47782  -0.47174  -0.47031
 Alpha  occ. eigenvalues --   -0.46932  -0.46576  -0.46387  -0.46113  -0.45929
 Alpha  occ. eigenvalues --   -0.45918  -0.45655  -0.45519  -0.45430  -0.45174
 Alpha  occ. eigenvalues --   -0.44882  -0.44701  -0.44295  -0.44093  -0.43813
 Alpha  occ. eigenvalues --   -0.43738  -0.43707  -0.43661  -0.43389  -0.43249
 Alpha  occ. eigenvalues --   -0.43133  -0.42937  -0.42820  -0.42698  -0.42357
 Alpha  occ. eigenvalues --   -0.42283  -0.42062  -0.41859  -0.41435  -0.41285
 Alpha  occ. eigenvalues --   -0.41170  -0.40920  -0.40769  -0.40544  -0.40340
 Alpha  occ. eigenvalues --   -0.40255  -0.40203  -0.39862  -0.39800  -0.39666
 Alpha  occ. eigenvalues --   -0.39199  -0.39030  -0.38926  -0.38790  -0.38621
 Alpha  occ. eigenvalues --   -0.38408  -0.38174  -0.37933  -0.37844  -0.37559
 Alpha  occ. eigenvalues --   -0.37388  -0.37249  -0.37038  -0.36734  -0.36645
 Alpha  occ. eigenvalues --   -0.36450  -0.36359  -0.36205  -0.36102  -0.35888
 Alpha  occ. eigenvalues --   -0.35769  -0.35404  -0.34856  -0.34558  -0.34517
 Alpha  occ. eigenvalues --   -0.34464  -0.34397  -0.34122  -0.34039  -0.33797
 Alpha  occ. eigenvalues --   -0.33033  -0.32966  -0.32780  -0.32701  -0.32493
 Alpha  occ. eigenvalues --   -0.32132  -0.31592  -0.31394  -0.31293  -0.31244
 Alpha  occ. eigenvalues --   -0.31062  -0.31013  -0.30600  -0.29509  -0.29309
 Alpha  occ. eigenvalues --   -0.29180  -0.28727  -0.28610  -0.27051  -0.26506
 Alpha  occ. eigenvalues --   -0.26155  -0.25508  -0.25454  -0.24982  -0.21349
 Alpha  occ. eigenvalues --   -0.18565
 Alpha virt. eigenvalues --   -0.10889  -0.05816  -0.04255  -0.02578  -0.01604
 Alpha virt. eigenvalues --   -0.00300   0.00308   0.01199   0.02431   0.02931
 Alpha virt. eigenvalues --    0.03852   0.04855   0.04989   0.05244   0.06151

 Mulliken charges:
               1
     1  Mg   0.984148
     2  C   -0.061735
     3  C   -0.088510
     4  C   -0.076756
     5  C   -0.044125
     6  N   -0.344771
     7  C    0.052722
     8  C   -0.083913
     9  C   -0.147504
    10  C    0.011287
    11  C    0.037183
    12  C    0.005427
    13  C   -0.038484
    14  C    0.225968
    15  O   -0.255117
    16  O   -0.355138
    17  N   -0.485943
    18  C    0.190058
    19  C   -0.178420
    20  C   -0.030675
    21  C    0.182860
    22  C    0.111241
    23  C    0.009002
    24  O   -0.245393
    25  C   -0.051183
    26  N   -0.417847
    27  C    0.095988
    28  C   -0.131162
    29  C   -0.116342
    30  C    0.125486
    31  C    0.030242
    32  C   -0.057895
    33  C   -0.056475
    34  N   -0.443899
    35  C    0.068021
    36  C   -0.162919
    37  C   -0.047992
    38  C    0.170545
    39  C    0.061877
    40  C    0.187716
    41  O   -0.248154
    42  C   -0.144707
    43  C    0.327059
    44  O   -0.274540
    45  O   -0.380050
    46  C    0.123807
    47  C    0.252211
    48  C   -0.125315
    49  C   -0.218142
    50  C    0.027145
    51  C    0.025872
    52  C   -0.057729
    53  C    0.012520
    54  C   -0.244936
    55  C    0.004714
    56  C   -0.041204
    57  C   -0.050799
    58  C    0.035082
    59  C   -0.182294
    60  C   -0.037440
    61  C   -0.023200
    62  C   -0.045258
    63  C   -0.003411
    64  C   -0.236615
    65  C   -0.032553
    66  C   -0.030685
    67  H    0.010024
    68  H   -0.030792
    69  H    0.001548
    70  H    0.057804
    71  H    0.046406
    72  H    0.044733
    73  H    0.052330
    74  H    0.038204
    75  H    0.046151
    76  H    0.048005
    77  H    0.081295
    78  H    0.067492
    79  H    0.072382
    80  H    0.017284
    81  H    0.065324
    82  H    0.046336
    83  H    0.068642
    84  H    0.055743
    85  H    0.063950
    86  H    0.045831
    87  H    0.040707
    88  H    0.046241
    89  H    0.053095
    90  H    0.048547
    91  H    0.035634
    92  H    0.035231
    93  H    0.042369
    94  H    0.051478
    95  H    0.066821
    96  H    0.033045
    97  H    0.045316
    98  H    0.072152
    99  H    0.071812
   100  H    0.068005
   101  H    0.060323
   102  H    0.050309
   103  H    0.043018
   104  H    0.025635
   105  H    0.052238
   106  H    0.039166
   107  H    0.037445
   108  H    0.028785
   109  H    0.027601
   110  H    0.038810
   111  H    0.038655
   112  H    0.024086
   113  H    0.031104
   114  H    0.032493
   115  H    0.034019
   116  H    0.038977
   117  H    0.033623
   118  H    0.032214
   119  H    0.024493
   120  H    0.033064
   121  H    0.026098
   122  H    0.006412
   123  H    0.021156
   124  H    0.034410
   125  H    0.036983
   126  H    0.033035
   127  H    0.040577
   128  H    0.019112
   129  H    0.018066
   130  H    0.032523
   131  H    0.034191
   132  H    0.033610
   133  H    0.020095
   134  H    0.039121
   135  H    0.040849
   136  H    0.029157
   137  H    0.025982
   138  H    0.035003
   139  H    0.039824
   140  H    0.039647
 Sum of Mulliken charges =  -0.00000

 Dipole moment (field-independent basis, Debye):
    X=              1.7760    Y=              3.3532    Z=              3.6202  Tot=              5.2444
 Quadrupole moment (field-independent basis, Debye-Ang):
   XX=           -369.8756   YY=           -424.3301   ZZ=           -385.4971
   XY=             36.8215   XZ=             -6.6538   YZ=             16.8590

 Normal termination of Gaussian 16 at Thu Apr 28 12:03:12 2022.
