 Gaussian 16, Revision A.03,
 Gaussian 16:  ES64L-G16RevA.03 25-Dec-2016

 --------------------------------
 #p wB97XD/Def2SVP td=(nstates=5)
 --------------------------------

 ----------------------------------------------------
 step_1551_chromophore_2 TDDFT with wB97XD functional
 ----------------------------------------------------
 Symbolic Z-matrix:
 Charge =  0 Multiplicity = 1

                         Standard orientation:
 ---------------------------------------------------------------------
 Center     Atomic      Atomic             Coordinates (Angstroms)
 Number     Number       Type             X           Y           Z
 ---------------------------------------------------------------------
      1         12           0        4.264757    1.422108   -0.589901
      2          6           0        4.471297   -2.130723   -0.943164
      3          6           0        1.677958    1.323200   -2.825303
      4          6           0        3.072558    4.354123    0.568722
      5          6           0        6.301579    1.106089    2.261895
      6          7           0        3.333752   -0.199927   -1.928513
      7          6           0        3.516295   -1.573045   -1.857173
      8          6           0        2.670112   -2.333373   -2.888344
      9          6           0        2.117320   -1.136413   -3.752693
     10          6           0        2.336393    0.104231   -2.757185
     11          6           0        2.748887   -0.884276   -5.115206
     12          6           0        1.501067   -3.188056   -2.375181
     13          6           0        0.664833   -2.829259   -1.136531
     14          6           0       -0.872926   -2.641953   -1.199457
     15          8           0       -1.488423   -2.596012   -2.234530
     16          8           0       -1.432520   -2.688716    0.034200
     17          7           0        2.738732    2.712909   -1.207854
     18          6           0        1.788402    2.501513   -2.167209
     19          6           0        0.949784    3.671305   -2.341166
     20          6           0        1.484133    4.680861   -1.502017
     21          6           0        2.519172    3.936912   -0.660031
     22          6           0       -0.197801    3.829894   -3.352976
     23          6           0        0.927152    6.001382   -1.422574
     24          8           0       -0.028702    6.296032   -2.119526
     25          6           0        1.502167    7.114105   -0.526015
     26          7           0        4.709611    2.594819    1.145615
     27          6           0        4.043100    3.757046    1.419358
     28          6           0        4.440430    4.252241    2.805138
     29          6           0        5.638338    3.382305    3.262528
     30          6           0        5.571581    2.269234    2.156716
     31          6           0        4.527898    5.764063    3.205634
     32          6           0        5.498893    2.853372    4.783763
     33          6           0        6.545026    3.184283    5.854757
     34          7           0        5.309856   -0.117787    0.374293
     35          6           0        6.130034   -0.049694    1.486826
     36          6           0        6.749996   -1.397089    1.703365
     37          6           0        6.046417   -2.236506    0.878401
     38          6           0        5.228313   -1.381887    0.003589
     39          6           0        7.710599   -1.763845    2.822506
     40          6           0        5.834362   -3.623429    0.506734
     41          8           0        6.233368   -4.757783    0.863786
     42          6           0        4.829366   -3.620156   -0.759896
     43          6           0        5.651663   -4.134188   -1.938908
     44          8           0        5.162704   -4.727463   -2.901716
     45          8           0        6.981870   -3.774501   -1.850360
     46          6           0        7.902290   -4.485652   -2.841864
     47          6           0       -2.900850   -2.734254    0.070270
     48          6           0       -3.446271   -3.536383    1.184159
     49          6           0       -4.062045   -3.095365    2.319556
     50          6           0       -4.219602   -1.633751    2.611483
     51          6           0       -4.568391   -4.083765    3.348963
     52          6           0       -6.118219   -4.172367    3.421976
     53          6           0       -6.749813   -4.985361    2.283105
     54          6           0       -8.025128   -4.301496    1.757629
     55          6           0       -9.073238   -5.306820    1.230589
     56          6           0       -7.658540   -3.072865    0.707871
     57          6           0       -8.744459   -1.980443    0.727831
     58          6           0       -8.362814   -0.732858    1.573623
     59          6           0       -7.900869    0.537599    0.782741
     60          6           0       -6.525195    1.157897    1.262976
     61          6           0       -8.893120    1.674000    0.891742
     62          6           0       -8.998697    2.545524   -0.425675
     63          6           0      -10.197223    3.545574   -0.515642
     64          6           0      -11.152177    3.279089   -1.720594
     65          6           0      -10.902268    4.325526   -2.774894
     66          6           0      -12.672520    3.377517   -1.362441
     67          1           0        0.807700    1.276231   -3.483397
     68          1           0        2.752179    5.342255    0.903167
     69          1           0        6.909363    0.818137    3.121741
     70          1           0        3.276251   -2.978689   -3.524948
     71          1           0        1.048394   -1.204149   -3.952302
     72          1           0        1.979426   -0.651562   -5.851074
     73          1           0        3.400356   -1.686591   -5.462164
     74          1           0        3.313574    0.035448   -4.961706
     75          1           0        2.010657   -4.148777   -2.301550
     76          1           0        0.840258   -3.287807   -3.235735
     77          1           0        1.110963   -1.913247   -0.749182
     78          1           0        0.845147   -3.638053   -0.428641
     79          1           0       -1.176046    3.945724   -2.887013
     80          1           0       -0.087415    2.915002   -3.935501
     81          1           0        0.042267    4.661948   -4.015213
     82          1           0        2.577542    7.270537   -0.600310
     83          1           0        1.428692    7.009149    0.556741
     84          1           0        1.043002    8.044675   -0.861449
     85          1           0        3.534833    3.925622    3.316418
     86          1           0        6.550542    3.973776    3.340856
     87          1           0        3.627854    6.061939    3.744700
     88          1           0        4.448359    6.311444    2.266268
     89          1           0        5.455483    5.861529    3.770193
     90          1           0        5.243605    1.797899    4.693260
     91          1           0        4.597211    3.366465    5.121424
     92          1           0        6.147387    3.966238    6.501437
     93          1           0        7.473726    3.632893    5.500696
     94          1           0        6.699653    2.334315    6.520516
     95          1           0        7.511207   -2.770312    3.188860
     96          1           0        7.861461   -0.990726    3.576259
     97          1           0        8.742228   -1.862215    2.487490
     98          1           0        3.956875   -4.267198   -0.669628
     99          1           0        7.458974   -4.464331   -3.837418
    100          1           0        8.113046   -5.514400   -2.551293
    101          1           0        8.874854   -3.992683   -2.831390
    102          1           0       -3.272633   -3.343074   -0.752917
    103          1           0       -3.283699   -1.717522   -0.018734
    104          1           0       -3.552210   -4.602774    0.984525
    105          1           0       -3.560507   -1.380555    3.441943
    106          1           0       -5.248328   -1.391402    2.876982
    107          1           0       -4.021973   -0.902861    1.826945
    108          1           0       -4.137099   -3.767606    4.299668
    109          1           0       -4.113989   -5.071224    3.277910
    110          1           0       -6.561295   -3.185437    3.286096
    111          1           0       -6.338707   -4.679348    4.360490
    112          1           0       -6.884011   -5.981627    2.705937
    113          1           0       -6.062604   -5.073648    1.441960
    114          1           0       -8.571553   -3.840737    2.579756
    115          1           0       -9.352023   -4.986978    0.226079
    116          1           0       -9.897846   -5.309492    1.943142
    117          1           0       -8.660178   -6.311409    1.132198
    118          1           0       -7.432733   -3.327616   -0.328205
    119          1           0       -6.744338   -2.617966    1.088924
    120          1           0       -9.696166   -2.449946    0.974681
    121          1           0       -8.745478   -1.694380   -0.323603
    122          1           0       -7.565897   -1.027242    2.256464
    123          1           0       -9.179326   -0.632824    2.288768
    124          1           0       -7.745783    0.297224   -0.269483
    125          1           0       -6.481311    2.195942    0.933204
    126          1           0       -5.643182    0.670949    0.848143
    127          1           0       -6.411223    1.137445    2.346608
    128          1           0       -8.622277    2.154453    1.831617
    129          1           0       -9.915151    1.414060    1.168566
    130          1           0       -9.177515    1.835165   -1.233285
    131          1           0       -8.077539    3.085812   -0.646576
    132          1           0       -9.758183    4.543382   -0.499280
    133          1           0      -10.864518    3.492556    0.344718
    134          1           0      -10.943092    2.308188   -2.168324
    135          1           0      -11.337312    5.324846   -2.788283
    136          1           0      -11.129718    3.886312   -3.746350
    137          1           0       -9.824916    4.476268   -2.702773
    138          1           0      -12.621364    4.312880   -0.804393
    139          1           0      -13.066903    2.573767   -0.740191
    140          1           0      -13.295623    3.496395   -2.247687
 ---------------------------------------------------------------------

 SCF Done:  E(RwB97XD) =  -3007.86833426     A.U. after   17 cycles

 Excitation energies and oscillator strengths:

 Excited State   1:      Singlet-A      1.6671 eV  743.70 nm  f=0.3685  <S**2>=0.000
     245 -> 248       -0.18514
     246 -> 247        0.68225
     245 <- 248       -0.11440
 This state for optimization and/or second-order correction.
 Total Energy, E(TD-HF/TD-DFT) =  -3007.80706869
 Copying the excited state density for this state as the 1-particle RhoCI density.

 Excited State   2:      Singlet-A      2.2628 eV  547.92 nm  f=0.0377  <S**2>=0.000
     245 -> 247        0.59368
     246 -> 248        0.37033

 Excited State   3:      Singlet-A      3.4004 eV  364.62 nm  f=0.3559  <S**2>=0.000
     242 -> 247        0.10657
     244 -> 247       -0.32332
     244 -> 249        0.25933
     244 -> 250       -0.15344
     245 -> 247       -0.26105
     246 -> 248        0.42985

 Excited State   4:      Singlet-A      3.4654 eV  357.77 nm  f=0.2414  <S**2>=0.000
     241 -> 247        0.16058
     242 -> 247        0.18331
     242 -> 249        0.14121
     244 -> 247        0.38615
     244 -> 249       -0.21100
     244 -> 250        0.15445
     245 -> 247       -0.19227
     246 -> 248        0.33973

 Excited State   5:      Singlet-A      3.5257 eV  351.66 nm  f=0.1660  <S**2>=0.000
     239 -> 247        0.12336
     240 -> 247        0.22426
     240 -> 248        0.10055
     240 -> 249        0.20080
     240 -> 250        0.15211
     241 -> 247        0.22092
     241 -> 249        0.14592
     241 -> 250        0.10557
     242 -> 247        0.35133
     242 -> 250        0.10360
     244 -> 249        0.11704
     245 -> 247        0.15805
     246 -> 248       -0.22125

 The electronic state is 1-A.
 Alpha  occ. eigenvalues --  -46.96475 -19.30145 -19.29728 -19.24673 -19.24153
 Alpha  occ. eigenvalues --  -19.23589 -19.23503 -14.47036 -14.46914 -14.44849
 Alpha  occ. eigenvalues --  -14.44634 -10.43334 -10.42679 -10.39226 -10.38655
 Alpha  occ. eigenvalues --  -10.36208 -10.35811 -10.35807 -10.35237 -10.35155
 Alpha  occ. eigenvalues --  -10.35014 -10.34855 -10.33986 -10.33920 -10.33324
 Alpha  occ. eigenvalues --  -10.33070 -10.32785 -10.32534 -10.32518 -10.32492
 Alpha  occ. eigenvalues --  -10.32077 -10.31691 -10.31427 -10.31244 -10.31210
 Alpha  occ. eigenvalues --  -10.31140 -10.31021 -10.30892 -10.30767 -10.30542
 Alpha  occ. eigenvalues --  -10.30512 -10.30277 -10.30154 -10.30015 -10.29962
 Alpha  occ. eigenvalues --  -10.29919 -10.29900 -10.29892 -10.29799 -10.29776
 Alpha  occ. eigenvalues --  -10.29709 -10.29535 -10.29377 -10.29354 -10.29258
 Alpha  occ. eigenvalues --  -10.29198 -10.29054 -10.29045 -10.28673 -10.28651
 Alpha  occ. eigenvalues --  -10.28609 -10.28561 -10.28457 -10.28147 -10.28097
 Alpha  occ. eigenvalues --  -10.27555  -3.22352  -1.95926  -1.95445  -1.95331
 Alpha  occ. eigenvalues --   -1.18590  -1.17036  -1.12606  -1.10083  -1.09810
 Alpha  occ. eigenvalues --   -1.08720  -1.06550  -1.05890  -1.05551  -1.04786
 Alpha  occ. eigenvalues --   -0.93524  -0.92499  -0.91280  -0.90921  -0.90642
 Alpha  occ. eigenvalues --   -0.90633  -0.90200  -0.89341  -0.89289  -0.88940
 Alpha  occ. eigenvalues --   -0.88582  -0.86972  -0.86212  -0.85591  -0.85291
 Alpha  occ. eigenvalues --   -0.84411  -0.83594  -0.82880  -0.82324  -0.82120
 Alpha  occ. eigenvalues --   -0.81842  -0.80025  -0.79700  -0.79329  -0.78231
 Alpha  occ. eigenvalues --   -0.77939  -0.77612  -0.76812  -0.76511  -0.75791
 Alpha  occ. eigenvalues --   -0.75201  -0.74531  -0.74141  -0.72127  -0.71513
 Alpha  occ. eigenvalues --   -0.71040  -0.70050  -0.69728  -0.68506  -0.67674
 Alpha  occ. eigenvalues --   -0.67242  -0.66842  -0.66749  -0.66353  -0.66088
 Alpha  occ. eigenvalues --   -0.64921  -0.64807  -0.64435  -0.64291  -0.62188
 Alpha  occ. eigenvalues --   -0.61666  -0.61473  -0.60840  -0.60352  -0.59870
 Alpha  occ. eigenvalues --   -0.59154  -0.58741  -0.58276  -0.57980  -0.57540
 Alpha  occ. eigenvalues --   -0.57007  -0.56851  -0.55909  -0.55848  -0.55702
 Alpha  occ. eigenvalues --   -0.55619  -0.55457  -0.55041  -0.54531  -0.54468
 Alpha  occ. eigenvalues --   -0.54356  -0.53956  -0.53883  -0.53579  -0.53373
 Alpha  occ. eigenvalues --   -0.53258  -0.52991  -0.52906  -0.52711  -0.52495
 Alpha  occ. eigenvalues --   -0.52238  -0.51958  -0.51631  -0.51432  -0.51256
 Alpha  occ. eigenvalues --   -0.51150  -0.51050  -0.50950  -0.50751  -0.50604
 Alpha  occ. eigenvalues --   -0.50474  -0.50183  -0.50008  -0.49959  -0.49679
 Alpha  occ. eigenvalues --   -0.49484  -0.49430  -0.49169  -0.48672  -0.48539
 Alpha  occ. eigenvalues --   -0.48405  -0.48144  -0.47986  -0.47782  -0.47569
 Alpha  occ. eigenvalues --   -0.47497  -0.47362  -0.47032  -0.46975  -0.46832
 Alpha  occ. eigenvalues --   -0.46332  -0.46239  -0.46152  -0.45940  -0.45800
 Alpha  occ. eigenvalues --   -0.45435  -0.45337  -0.45012  -0.44886  -0.44713
 Alpha  occ. eigenvalues --   -0.44489  -0.44307  -0.44144  -0.44026  -0.43798
 Alpha  occ. eigenvalues --   -0.43542  -0.43479  -0.43276  -0.43204  -0.42885
 Alpha  occ. eigenvalues --   -0.42879  -0.42391  -0.41920  -0.41647  -0.41569
 Alpha  occ. eigenvalues --   -0.41465  -0.41379  -0.41159  -0.41120  -0.40895
 Alpha  occ. eigenvalues --   -0.40008  -0.39937  -0.39837  -0.39688  -0.39545
 Alpha  occ. eigenvalues --   -0.39081  -0.38624  -0.38424  -0.38329  -0.38240
 Alpha  occ. eigenvalues --   -0.38057  -0.37878  -0.37554  -0.36406  -0.36161
 Alpha  occ. eigenvalues --   -0.36071  -0.35711  -0.35433  -0.33728  -0.33364
 Alpha  occ. eigenvalues --   -0.32812  -0.32487  -0.32112  -0.31927  -0.26437
 Alpha  occ. eigenvalues --   -0.22657
 Alpha virt. eigenvalues --   -0.06609  -0.00452   0.01985   0.03866   0.04415
 Alpha virt. eigenvalues --    0.06350   0.07203   0.07956   0.09022   0.09504
 Alpha virt. eigenvalues --    0.10698   0.11478   0.11681   0.11787   0.12952

 Mulliken charges:
               1
     1  Mg   0.976678
     2  C   -0.063299
     3  C   -0.099725
     4  C   -0.089809
     5  C   -0.055435
     6  N   -0.310634
     7  C    0.013796
     8  C   -0.056555
     9  C   -0.123534
    10  C   -0.003629
    11  C    0.045404
    12  C    0.014216
    13  C   -0.018757
    14  C    0.216711
    15  O   -0.252994
    16  O   -0.354588
    17  N   -0.453196
    18  C    0.185556
    19  C   -0.172034
    20  C   -0.027903
    21  C    0.182095
    22  C    0.126245
    23  C    0.007819
    24  O   -0.240109
    25  C   -0.040887
    26  N   -0.385932
    27  C    0.085497
    28  C   -0.107914
    29  C   -0.088731
    30  C    0.111389
    31  C    0.044791
    32  C   -0.043084
    33  C   -0.040852
    34  N   -0.402915
    35  C    0.057568
    36  C   -0.165603
    37  C   -0.042100
    38  C    0.146460
    39  C    0.071422
    40  C    0.175915
    41  O   -0.240829
    42  C   -0.104137
    43  C    0.304355
    44  O   -0.270213
    45  O   -0.381672
    46  C    0.139596
    47  C    0.267126
    48  C   -0.136366
    49  C   -0.199282
    50  C    0.049639
    51  C    0.038145
    52  C   -0.027213
    53  C    0.023556
    54  C   -0.211541
    55  C    0.013630
    56  C   -0.013264
    57  C   -0.035666
    58  C    0.056693
    59  C   -0.152917
    60  C   -0.020453
    61  C   -0.007012
    62  C   -0.026158
    63  C    0.007790
    64  C   -0.205263
    65  C   -0.022509
    66  C   -0.015943
    67  H    0.003347
    68  H   -0.048541
    69  H   -0.009409
    70  H    0.046833
    71  H    0.036424
    72  H    0.040098
    73  H    0.048556
    74  H    0.029709
    75  H    0.038808
    76  H    0.039504
    77  H    0.070000
    78  H    0.062616
    79  H    0.070537
    80  H    0.011182
    81  H    0.061565
    82  H    0.041569
    83  H    0.065997
    84  H    0.054892
    85  H    0.050388
    86  H    0.032794
    87  H    0.035959
    88  H    0.038112
    89  H    0.047442
    90  H    0.040340
    91  H    0.024976
    92  H    0.028488
    93  H    0.036471
    94  H    0.046464
    95  H    0.062541
    96  H    0.027838
    97  H    0.039178
    98  H    0.066105
    99  H    0.067902
   100  H    0.064119
   101  H    0.057140
   102  H    0.045349
   103  H    0.038425
   104  H    0.022408
   105  H    0.047768
   106  H    0.024964
   107  H    0.027582
   108  H    0.021666
   109  H    0.021718
   110  H    0.017995
   111  H    0.032976
   112  H    0.017351
   113  H    0.017468
   114  H    0.017789
   115  H    0.027665
   116  H    0.034384
   117  H    0.028169
   118  H    0.026210
   119  H   -0.003497
   120  H    0.024956
   121  H    0.016728
   122  H   -0.014023
   123  H    0.014949
   124  H    0.021598
   125  H    0.029155
   126  H    0.024715
   127  H    0.034045
   128  H    0.008987
   129  H    0.008443
   130  H    0.020235
   131  H    0.026401
   132  H    0.026264
   133  H    0.010535
   134  H    0.028478
   135  H    0.035998
   136  H    0.023487
   137  H    0.016981
   138  H    0.025326
   139  H    0.034880
   140  H    0.034090
 Sum of Mulliken charges =  -0.00000

 Dipole moment (field-independent basis, Debye):
    X=              1.4822    Y=              3.6931    Z=              3.3080  Tot=              5.1748
 Quadrupole moment (field-independent basis, Debye-Ang):
   XX=           -371.3031   YY=           -422.3961   ZZ=           -385.5433
   XY=             37.1120   XZ=             -8.0135   YZ=             15.7741

 Normal termination of Gaussian 16 at Thu Apr 28 12:29:02 2022.
