 Gaussian 16, Revision A.03,
 Gaussian 16:  ES64L-G16RevA.03 25-Dec-2016

 --------------------
 #p ZINDO=(nstates=5)
 --------------------

 -----------------------------
 step_1551_chromophore_2 ZINDO
 -----------------------------
 Symbolic Z-matrix:
 Charge =  0 Multiplicity = 1

                         Standard orientation:
 ---------------------------------------------------------------------
 Center     Atomic      Atomic             Coordinates (Angstroms)
 Number     Number       Type             X           Y           Z
 ---------------------------------------------------------------------
      1         12           0        4.264757    1.422108   -0.589901
      2          6           0        4.471297   -2.130723   -0.943164
      3          6           0        1.677958    1.323200   -2.825303
      4          6           0        3.072558    4.354123    0.568722
      5          6           0        6.301579    1.106089    2.261895
      6          7           0        3.333752   -0.199927   -1.928513
      7          6           0        3.516295   -1.573045   -1.857173
      8          6           0        2.670112   -2.333373   -2.888344
      9          6           0        2.117320   -1.136413   -3.752693
     10          6           0        2.336393    0.104231   -2.757185
     11          6           0        2.748887   -0.884276   -5.115206
     12          6           0        1.501067   -3.188056   -2.375181
     13          6           0        0.664833   -2.829259   -1.136531
     14          6           0       -0.872926   -2.641953   -1.199457
     15          8           0       -1.488423   -2.596012   -2.234530
     16          8           0       -1.432520   -2.688716    0.034200
     17          7           0        2.738732    2.712909   -1.207854
     18          6           0        1.788402    2.501513   -2.167209
     19          6           0        0.949784    3.671305   -2.341166
     20          6           0        1.484133    4.680861   -1.502017
     21          6           0        2.519172    3.936912   -0.660031
     22          6           0       -0.197801    3.829894   -3.352976
     23          6           0        0.927152    6.001382   -1.422574
     24          8           0       -0.028702    6.296032   -2.119526
     25          6           0        1.502167    7.114105   -0.526015
     26          7           0        4.709611    2.594819    1.145615
     27          6           0        4.043100    3.757046    1.419358
     28          6           0        4.440430    4.252241    2.805138
     29          6           0        5.638338    3.382305    3.262528
     30          6           0        5.571581    2.269234    2.156716
     31          6           0        4.527898    5.764063    3.205634
     32          6           0        5.498893    2.853372    4.783763
     33          6           0        6.545026    3.184283    5.854757
     34          7           0        5.309856   -0.117787    0.374293
     35          6           0        6.130034   -0.049694    1.486826
     36          6           0        6.749996   -1.397089    1.703365
     37          6           0        6.046417   -2.236506    0.878401
     38          6           0        5.228313   -1.381887    0.003589
     39          6           0        7.710599   -1.763845    2.822506
     40          6           0        5.834362   -3.623429    0.506734
     41          8           0        6.233368   -4.757783    0.863786
     42          6           0        4.829366   -3.620156   -0.759896
     43          6           0        5.651663   -4.134188   -1.938908
     44          8           0        5.162704   -4.727463   -2.901716
     45          8           0        6.981870   -3.774501   -1.850360
     46          6           0        7.902290   -4.485652   -2.841864
     47          6           0       -2.900850   -2.734254    0.070270
     48          6           0       -3.446271   -3.536383    1.184159
     49          6           0       -4.062045   -3.095365    2.319556
     50          6           0       -4.219602   -1.633751    2.611483
     51          6           0       -4.568391   -4.083765    3.348963
     52          6           0       -6.118219   -4.172367    3.421976
     53          6           0       -6.749813   -4.985361    2.283105
     54          6           0       -8.025128   -4.301496    1.757629
     55          6           0       -9.073238   -5.306820    1.230589
     56          6           0       -7.658540   -3.072865    0.707871
     57          6           0       -8.744459   -1.980443    0.727831
     58          6           0       -8.362814   -0.732858    1.573623
     59          6           0       -7.900869    0.537599    0.782741
     60          6           0       -6.525195    1.157897    1.262976
     61          6           0       -8.893120    1.674000    0.891742
     62          6           0       -8.998697    2.545524   -0.425675
     63          6           0      -10.197223    3.545574   -0.515642
     64          6           0      -11.152177    3.279089   -1.720594
     65          6           0      -10.902268    4.325526   -2.774894
     66          6           0      -12.672520    3.377517   -1.362441
     67          1           0        0.807700    1.276231   -3.483397
     68          1           0        2.752179    5.342255    0.903167
     69          1           0        6.909363    0.818137    3.121741
     70          1           0        3.276251   -2.978689   -3.524948
     71          1           0        1.048394   -1.204149   -3.952302
     72          1           0        1.979426   -0.651562   -5.851074
     73          1           0        3.400356   -1.686591   -5.462164
     74          1           0        3.313574    0.035448   -4.961706
     75          1           0        2.010657   -4.148777   -2.301550
     76          1           0        0.840258   -3.287807   -3.235735
     77          1           0        1.110963   -1.913247   -0.749182
     78          1           0        0.845147   -3.638053   -0.428641
     79          1           0       -1.176046    3.945724   -2.887013
     80          1           0       -0.087415    2.915002   -3.935501
     81          1           0        0.042267    4.661948   -4.015213
     82          1           0        2.577542    7.270537   -0.600310
     83          1           0        1.428692    7.009149    0.556741
     84          1           0        1.043002    8.044675   -0.861449
     85          1           0        3.534833    3.925622    3.316418
     86          1           0        6.550542    3.973776    3.340856
     87          1           0        3.627854    6.061939    3.744700
     88          1           0        4.448359    6.311444    2.266268
     89          1           0        5.455483    5.861529    3.770193
     90          1           0        5.243605    1.797899    4.693260
     91          1           0        4.597211    3.366465    5.121424
     92          1           0        6.147387    3.966238    6.501437
     93          1           0        7.473726    3.632893    5.500696
     94          1           0        6.699653    2.334315    6.520516
     95          1           0        7.511207   -2.770312    3.188860
     96          1           0        7.861461   -0.990726    3.576259
     97          1           0        8.742228   -1.862215    2.487490
     98          1           0        3.956875   -4.267198   -0.669628
     99          1           0        7.458974   -4.464331   -3.837418
    100          1           0        8.113046   -5.514400   -2.551293
    101          1           0        8.874854   -3.992683   -2.831390
    102          1           0       -3.272633   -3.343074   -0.752917
    103          1           0       -3.283699   -1.717522   -0.018734
    104          1           0       -3.552210   -4.602774    0.984525
    105          1           0       -3.560507   -1.380555    3.441943
    106          1           0       -5.248328   -1.391402    2.876982
    107          1           0       -4.021973   -0.902861    1.826945
    108          1           0       -4.137099   -3.767606    4.299668
    109          1           0       -4.113989   -5.071224    3.277910
    110          1           0       -6.561295   -3.185437    3.286096
    111          1           0       -6.338707   -4.679348    4.360490
    112          1           0       -6.884011   -5.981627    2.705937
    113          1           0       -6.062604   -5.073648    1.441960
    114          1           0       -8.571553   -3.840737    2.579756
    115          1           0       -9.352023   -4.986978    0.226079
    116          1           0       -9.897846   -5.309492    1.943142
    117          1           0       -8.660178   -6.311409    1.132198
    118          1           0       -7.432733   -3.327616   -0.328205
    119          1           0       -6.744338   -2.617966    1.088924
    120          1           0       -9.696166   -2.449946    0.974681
    121          1           0       -8.745478   -1.694380   -0.323603
    122          1           0       -7.565897   -1.027242    2.256464
    123          1           0       -9.179326   -0.632824    2.288768
    124          1           0       -7.745783    0.297224   -0.269483
    125          1           0       -6.481311    2.195942    0.933204
    126          1           0       -5.643182    0.670949    0.848143
    127          1           0       -6.411223    1.137445    2.346608
    128          1           0       -8.622277    2.154453    1.831617
    129          1           0       -9.915151    1.414060    1.168566
    130          1           0       -9.177515    1.835165   -1.233285
    131          1           0       -8.077539    3.085812   -0.646576
    132          1           0       -9.758183    4.543382   -0.499280
    133          1           0      -10.864518    3.492556    0.344718
    134          1           0      -10.943092    2.308188   -2.168324
    135          1           0      -11.337312    5.324846   -2.788283
    136          1           0      -11.129718    3.886312   -3.746350
    137          1           0       -9.824916    4.476268   -2.702773
    138          1           0      -12.621364    4.312880   -0.804393
    139          1           0      -13.066903    2.573767   -0.740191
    140          1           0      -13.295623    3.496395   -2.247687
 ---------------------------------------------------------------------

 SCF Done:  E(RZINDO/S) =  -474.044946934     A.U. after   19 cycles

 Excitation energies and oscillator strengths:

 Excited State   1:      Singlet-A      1.2903 eV  960.90 nm  f=0.5695  <S**2>=0.000
     175 ->178        -0.17090
     176 ->177         0.66896
 This state for optimization and/or second-order correction.
 Total Energy, E(CIS/TDA) =  -473.997529705
 Copying the excited state density for this state as the 1-particle RhoCI density.

 Excited State   2:      Singlet-A      1.9374 eV  639.96 nm  f=0.0018  <S**2>=0.000
     175 ->177         0.45182
     176 ->178         0.51802

 Excited State   3:      Singlet-A      2.7596 eV  449.28 nm  f=0.0157  <S**2>=0.000
     176 ->179        -0.24029
     176 ->180         0.65108

 Excited State   4:      Singlet-A      2.8469 eV  435.50 nm  f=0.0565  <S**2>=0.000
     176 ->179         0.55545
     176 ->180         0.24664
     176 ->181        -0.21428

 Excited State   5:      Singlet-A      2.8648 eV  432.79 nm  f=0.0139  <S**2>=0.000
     168 ->177         0.31154
     168 ->178         0.15749
     168 ->179        -0.35673
     168 ->181        -0.25408
     168 ->186        -0.19489
     171 ->177        -0.14915
     171 ->179         0.12667
     176 ->179         0.15455

 The electronic state is 1-A.
 Alpha  occ. eigenvalues --   -1.82791  -1.81407  -1.79213  -1.73571  -1.71021
 Alpha  occ. eigenvalues --   -1.69207  -1.64675  -1.61537  -1.60956  -1.55366
 Alpha  occ. eigenvalues --   -1.54230  -1.51514  -1.48518  -1.47036  -1.45477
 Alpha  occ. eigenvalues --   -1.43805  -1.42753  -1.39855  -1.39221  -1.38247
 Alpha  occ. eigenvalues --   -1.35350  -1.33488  -1.32183  -1.31458  -1.28462
 Alpha  occ. eigenvalues --   -1.27846  -1.26946  -1.22858  -1.22341  -1.18186
 Alpha  occ. eigenvalues --   -1.16686  -1.15356  -1.14653  -1.13825  -1.12136
 Alpha  occ. eigenvalues --   -1.12082  -1.11093  -1.09412  -1.05747  -1.04835
 Alpha  occ. eigenvalues --   -1.03472  -1.01084  -1.00251  -0.97970  -0.96626
 Alpha  occ. eigenvalues --   -0.95753  -0.94189  -0.93161  -0.92785  -0.92262
 Alpha  occ. eigenvalues --   -0.91249  -0.89796  -0.88697  -0.88554  -0.87752
 Alpha  occ. eigenvalues --   -0.86445  -0.84393  -0.84061  -0.81310  -0.79772
 Alpha  occ. eigenvalues --   -0.79283  -0.78996  -0.78089  -0.77203  -0.77141
 Alpha  occ. eigenvalues --   -0.76849  -0.75910  -0.74375  -0.74288  -0.74034
 Alpha  occ. eigenvalues --   -0.73609  -0.72023  -0.71699  -0.71239  -0.70360
 Alpha  occ. eigenvalues --   -0.70098  -0.69811  -0.69688  -0.68604  -0.67872
 Alpha  occ. eigenvalues --   -0.66845  -0.66651  -0.66202  -0.65671  -0.65375
 Alpha  occ. eigenvalues --   -0.64976  -0.64471  -0.64352  -0.64277  -0.63654
 Alpha  occ. eigenvalues --   -0.63103  -0.62666  -0.62489  -0.61629  -0.61414
 Alpha  occ. eigenvalues --   -0.60999  -0.60888  -0.60495  -0.59874  -0.59719
 Alpha  occ. eigenvalues --   -0.59638  -0.59115  -0.58837  -0.58704  -0.58570
 Alpha  occ. eigenvalues --   -0.58477  -0.57593  -0.57435  -0.56840  -0.56392
 Alpha  occ. eigenvalues --   -0.56143  -0.56010  -0.55739  -0.55255  -0.54562
 Alpha  occ. eigenvalues --   -0.54342  -0.53993  -0.53439  -0.53323  -0.52756
 Alpha  occ. eigenvalues --   -0.52691  -0.51937  -0.51826  -0.51677  -0.51431
 Alpha  occ. eigenvalues --   -0.51097  -0.50603  -0.50246  -0.50054  -0.49790
 Alpha  occ. eigenvalues --   -0.49489  -0.49288  -0.49027  -0.48667  -0.48608
 Alpha  occ. eigenvalues --   -0.48518  -0.48258  -0.48182  -0.48074  -0.47666
 Alpha  occ. eigenvalues --   -0.47455  -0.47286  -0.47126  -0.46944  -0.46849
 Alpha  occ. eigenvalues --   -0.46774  -0.46246  -0.46158  -0.46089  -0.45659
 Alpha  occ. eigenvalues --   -0.45326  -0.44626  -0.44575  -0.44362  -0.44077
 Alpha  occ. eigenvalues --   -0.43966  -0.43619  -0.43552  -0.42379  -0.42187
 Alpha  occ. eigenvalues --   -0.41961  -0.41935  -0.41436  -0.39626  -0.39011
 Alpha  occ. eigenvalues --   -0.38195  -0.37415  -0.36016  -0.35148  -0.34664
 Alpha  occ. eigenvalues --   -0.34290  -0.33006  -0.32791  -0.32206  -0.27503
 Alpha  occ. eigenvalues --   -0.21592
 Alpha virt. eigenvalues --   -0.08119  -0.02790  -0.01057   0.00167   0.00953
 Alpha virt. eigenvalues --    0.02181   0.02466   0.02686   0.04516   0.04658
 Alpha virt. eigenvalues --    0.06128   0.06537   0.06893   0.07789   0.07963

 Mulliken charges:
               1
     1  Mg   0.437858
     2  C   -0.040057
     3  C   -0.062708
     4  C   -0.109736
     5  C   -0.063501
     6  N   -0.279073
     7  C    0.089804
     8  C    0.012410
     9  C   -0.000482
    10  C    0.159955
    11  C   -0.047652
    12  C   -0.023153
    13  C    0.007567
    14  C    0.471743
    15  O   -0.514607
    16  O   -0.263796
    17  N   -0.328802
    18  C    0.140176
    19  C    0.061429
    20  C   -0.050054
    21  C    0.152516
    22  C   -0.033637
    23  C    0.335224
    24  O   -0.522685
    25  C   -0.038556
    26  N   -0.280047
    27  C    0.168827
    28  C   -0.000357
    29  C   -0.009922
    30  C    0.092097
    31  C   -0.056645
    32  C   -0.040930
    33  C   -0.052611
    34  N   -0.291153
    35  C    0.059527
    36  C    0.015781
    37  C   -0.050776
    38  C    0.094354
    39  C   -0.045160
    40  C    0.325181
    41  O   -0.540415
    42  C    0.048827
    43  C    0.487468
    44  O   -0.536177
    45  O   -0.263014
    46  C    0.074869
    47  C    0.107185
    48  C   -0.101002
    49  C    0.008596
    50  C   -0.041928
    51  C   -0.018640
    52  C   -0.035506
    53  C   -0.032180
    54  C   -0.019247
    55  C   -0.059825
    56  C   -0.044981
    57  C   -0.040677
    58  C   -0.033587
    59  C   -0.001866
    60  C   -0.059382
    61  C   -0.033419
    62  C   -0.038738
    63  C   -0.036271
    64  C   -0.006275
    65  C   -0.057236
    66  C   -0.063465
    67  H    0.019623
    68  H    0.020477
    69  H    0.031517
    70  H    0.046605
    71  H    0.027600
    72  H    0.022012
    73  H    0.032982
    74  H    0.019579
    75  H    0.023894
    76  H    0.027697
    77  H    0.042608
    78  H    0.039488
    79  H    0.053919
    80  H    0.018067
    81  H    0.046245
    82  H    0.025971
    83  H    0.039671
    84  H    0.034585
    85  H    0.031707
    86  H    0.036213
    87  H    0.023241
    88  H    0.023015
    89  H    0.035831
    90  H    0.027701
    91  H    0.011355
    92  H    0.011615
    93  H    0.024868
    94  H    0.024925
    95  H    0.037857
    96  H    0.025637
    97  H    0.025276
    98  H    0.061962
    99  H    0.049959
   100  H    0.047320
   101  H    0.032019
   102  H    0.044859
   103  H    0.047007
   104  H    0.027395
   105  H    0.026368
   106  H    0.024685
   107  H    0.023099
   108  H    0.013104
   109  H    0.022794
   110  H    0.029968
   111  H    0.021558
   112  H    0.017432
   113  H    0.021059
   114  H    0.017342
   115  H    0.019802
   116  H    0.022381
   117  H    0.018650
   118  H    0.027325
   119  H    0.013791
   120  H    0.026370
   121  H    0.012870
   122  H    0.011810
   123  H    0.018846
   124  H    0.024530
   125  H    0.017531
   126  H    0.012900
   127  H    0.019364
   128  H    0.017414
   129  H    0.010502
   130  H    0.019782
   131  H    0.023449
   132  H    0.021935
   133  H    0.014225
   134  H    0.024227
   135  H    0.028570
   136  H    0.007865
   137  H    0.006235
   138  H    0.019217
   139  H    0.018272
   140  H    0.020961
 Sum of Mulliken charges =  -0.00000

 Dipole moment (field-independent basis, Debye):
    X=             -0.2204    Y=              7.2760    Z=              3.8348  Tot=              8.2277
 N-N= 4.460956930221D+03 E-N= 0.000000000000D+00  KE=-9.595839915368D+03
 Leave Link  601 at Thu Apr 28 12:42:14 2022, MaxMem=  6710886400 cpu:               0.9 elap:               0.1
 (Enter /sw/apps/gaussian-16.0/g16/l9999.exe)
 1\1\GINC-BP1-COMPUTE060\SP\RZINDO CIS\STO-3G\C55H74Mg1N4O6\OF15641\28-
 Apr-2022\0\\#p ZINDO=(nstates=5)\\step_1551_chromophore_2 ZINDO\\0,1\M
 g,0,2.817,0.513,43.594\C,0,6.345,0.887,43.143\C,0,2.438,3.2,41.512\C,0
 ,-0.318,-0.453,42.82\C,0,3.479,-2.667,44.947\N,0,4.245,2.034,42.626\C,
 0,5.625,1.955,42.511\C,0,6.22,3.142,41.74\C,0,4.954,4.073,41.614\C,0,3
 .763,3.031,41.886\C,0,4.862,5.286,42.53\C,0,6.811,2.876,40.347\C,0,6.2
 66,1.812,39.381\C,0,5.774,2.162,37.953\O,0,5.626,3.294,37.567\O,0,5.68

 Normal termination of Gaussian 16 at Thu Apr 28 12:42:14 2022.
