 Gaussian 16, Revision A.03,
 Gaussian 16:  ES64L-G16RevA.03 25-Dec-2016

 ------------------------------
 #p blyp/Def2SVP td=(nstates=5)
 ------------------------------

 --------------------------------------------------
 step_801_chromophore_16 TDDFT with blyp functional
 --------------------------------------------------
 Symbolic Z-matrix:
 Charge =  0 Multiplicity = 1

                         Standard orientation:
 ---------------------------------------------------------------------
 Center     Atomic      Atomic             Coordinates (Angstroms)
 Number     Number       Type             X           Y           Z
 ---------------------------------------------------------------------
      1         12           0        6.411720    0.510746    0.486035
      2          6           0        4.023179   -1.977140    0.280528
      3          6           0        3.953158    2.656411   -0.931594
      4          6           0        8.707856    2.903202   -0.174454
      5          6           0        8.862197   -1.774454    0.857637
      6          7           0        4.101239    0.352520   -0.104549
      7          6           0        3.403199   -0.755163   -0.098450
      8          6           0        1.954410   -0.510423   -0.581499
      9          6           0        2.006457    1.000599   -0.993791
     10          6           0        3.440192    1.365809   -0.730106
     11          6           0        1.549856    1.216544   -2.413415
     12          6           0        0.879793   -0.838743    0.476879
     13          6           0       -0.557522   -0.386097    0.300522
     14          6           0       -1.514122   -1.504461   -0.397991
     15          8           0       -1.248629   -2.351102   -1.243196
     16          8           0       -2.773385   -1.535206    0.089069
     17          7           0        6.265635    2.554717   -0.300977
     18          6           0        5.143000    3.288368   -0.680128
     19          6           0        5.485235    4.680398   -0.911941
     20          6           0        6.894549    4.706922   -0.655858
     21          6           0        7.344603    3.318898   -0.422446
     22          6           0        4.488630    5.714350   -1.386798
     23          6           0        7.884854    5.906744   -0.641544
     24          8           0        9.120822    5.828802   -0.436391
     25          6           0        7.298647    7.310460   -0.871892
     26          7           0        8.543069    0.525301    0.144011
     27          6           0        9.255473    1.685429    0.042512
     28          6           0       10.706555    1.408099    0.465381
     29          6           0       10.729666   -0.103158    0.894173
     30          6           0        9.246545   -0.430702    0.738518
     31          6           0       11.807744    1.797111   -0.590255
     32          6           0       11.395418   -0.446762    2.336860
     33          6           0       10.442903   -0.680161    3.513991
     34          7           0        6.515305   -1.457204    0.735746
     35          6           0        7.535433   -2.319768    0.868291
     36          6           0        7.058575   -3.712140    0.958221
     37          6           0        5.696868   -3.614336    0.750033
     38          6           0        5.369159   -2.201739    0.635742
     39          6           0        7.972672   -4.900632    1.040594
     40          6           0        4.513433   -4.360978    0.684944
     41          8           0        4.353563   -5.524788    0.800567
     42          6           0        3.350676   -3.369549    0.389744
     43          6           0        2.671364   -3.825627   -0.864077
     44          8           0        3.159775   -3.557177   -2.008830
     45          8           0        1.559572   -4.629357   -0.683359
     46          6           0        0.853150   -5.086437   -1.944800
     47          6           0       -3.777464   -2.483096   -0.549533
     48          6           0       -5.163662   -2.017037   -0.217351
     49          6           0       -6.349522   -2.718835   -0.197545
     50          6           0       -6.367823   -4.174809   -0.735706
     51          6           0       -7.618717   -2.127946    0.403697
     52          6           0       -8.338705   -1.373436   -0.744084
     53          6           0       -9.061262   -0.146984   -0.297495
     54          6           0      -10.170833    0.312471   -1.337679
     55          6           0       -9.770140    1.629272   -1.994519
     56          6           0      -11.617525    0.292981   -0.653638
     57          6           0      -12.614309   -0.530477   -1.453312
     58          6           0      -13.881634    0.249296   -1.686085
     59          6           0      -14.765678    0.392771   -0.425938
     60          6           0      -15.893372   -0.658900   -0.582742
     61          6           0      -15.464092    1.762544   -0.296169
     62          6           0      -15.627803    2.126086    1.188351
     63          6           0      -14.539067    2.997692    1.761768
     64          6           0      -13.778018    2.490250    2.981806
     65          6           0      -12.241251    2.785522    2.799507
     66          6           0      -14.391859    2.965032    4.301299
     67          1           0        3.257995    3.372039   -1.376322
     68          1           0        9.538625    3.608655   -0.105433
     69          1           0        9.739472   -2.407492    1.005010
     70          1           0        1.890432   -1.061564   -1.518821
     71          1           0        1.527706    1.736614   -0.347800
     72          1           0        2.422740    1.165122   -3.063621
     73          1           0        1.283238    2.270676   -2.495465
     74          1           0        0.679619    0.651391   -2.747603
     75          1           0        1.266209   -0.481581    1.431384
     76          1           0        0.681986   -1.910381    0.482021
     77          1           0       -0.708891    0.537523   -0.257903
     78          1           0       -0.945665   -0.105270    1.279512
     79          1           0        4.418363    6.410299   -0.551005
     80          1           0        3.486787    5.342346   -1.602282
     81          1           0        4.854723    6.324157   -2.212196
     82          1           0        6.654161    7.396774   -1.746425
     83          1           0        8.105211    8.025972   -1.026886
     84          1           0        6.893394    7.497139    0.123383
     85          1           0       10.907602    1.983040    1.369663
     86          1           0       11.198606   -0.782083    0.181748
     87          1           0       12.764233    1.281291   -0.508875
     88          1           0       12.071495    2.849046   -0.470849
     89          1           0       11.538697    1.645685   -1.635947
     90          1           0       12.051135    0.386812    2.587306
     91          1           0       11.960307   -1.371728    2.219901
     92          1           0       10.763705   -0.087665    4.371406
     93          1           0       10.548178   -1.731531    3.782565
     94          1           0        9.393146   -0.508054    3.278599
     95          1           0        7.401409   -5.612025    0.443953
     96          1           0        8.024138   -5.319389    2.045640
     97          1           0        8.956108   -4.732746    0.602008
     98          1           0        2.670459   -3.576735    1.215250
     99          1           0        1.442397   -4.808333   -2.819106
    100          1           0       -0.072088   -4.544320   -2.142270
    101          1           0        0.781840   -6.173782   -1.941836
    102          1           0       -3.674321   -3.488349   -0.143203
    103          1           0       -3.685275   -2.524308   -1.635561
    104          1           0       -5.145356   -0.969438    0.086227
    105          1           0       -6.667582   -4.761328    0.133446
    106          1           0       -5.413873   -4.522853   -1.131666
    107          1           0       -7.228608   -4.214106   -1.402803
    108          1           0       -7.289497   -1.429581    1.172896
    109          1           0       -8.290105   -2.907135    0.766470
    110          1           0       -9.006894   -2.142782   -1.129338
    111          1           0       -7.658796   -1.001729   -1.510441
    112          1           0       -8.338009    0.659997   -0.186206
    113          1           0       -9.413177   -0.312410    0.720148
    114          1           0      -10.139596   -0.515743   -2.045708
    115          1           0       -9.226110    2.328617   -1.359639
    116          1           0      -10.617251    2.122479   -2.471149
    117          1           0       -9.155868    1.338716   -2.847064
    118          1           0      -12.042359    1.244442   -0.336319
    119          1           0      -11.517887   -0.300342    0.256102
    120          1           0      -12.846811   -1.486747   -0.982510
    121          1           0      -12.209100   -0.680012   -2.454097
    122          1           0      -14.496749   -0.176467   -2.478156
    123          1           0      -13.607189    1.239185   -2.051462
    124          1           0      -14.227277    0.125073    0.483706
    125          1           0      -16.814715   -0.347170   -1.076687
    126          1           0      -16.286804   -1.186470    0.285813
    127          1           0      -15.537743   -1.491293   -1.190505
    128          1           0      -16.449430    1.847189   -0.753078
    129          1           0      -14.919652    2.535907   -0.838040
    130          1           0      -15.789631    1.187338    1.717363
    131          1           0      -16.488959    2.769037    1.373561
    132          1           0      -14.964801    3.897049    2.206072
    133          1           0      -13.933232    3.459297    0.982043
    134          1           0      -13.987936    1.425031    2.887846
    135          1           0      -11.794529    1.816240    2.574776
    136          1           0      -11.808986    3.003223    3.776145
    137          1           0      -11.947528    3.545268    2.076196
    138          1           0      -15.400815    3.374928    4.269449
    139          1           0      -13.779319    3.699440    4.824439
    140          1           0      -14.463228    2.164621    5.038355
 ---------------------------------------------------------------------

 SCF Done:  E(RB-LYP) =  -3007.34806562     A.U. after   20 cycles

 Excitation energies and oscillator strengths:

 Excited State   1:      Singlet-A      1.7853 eV  694.49 nm  f=0.2369  <S**2>=0.000
     244 -> 247       -0.18870
     245 -> 247        0.10629
     245 -> 248        0.18281
     246 -> 247        0.65678
     246 <- 247       -0.13487
 This state for optimization and/or second-order correction.
 Total Energy, E(TD-HF/TD-DFT) =  -3007.28245862
 Copying the excited state density for this state as the 1-particle RhoCI density.

 Excited State   2:      Singlet-A      1.9072 eV  650.08 nm  f=0.0520  <S**2>=0.000
     244 -> 247        0.64442
     245 -> 247       -0.18919
     246 -> 247        0.20230

 Excited State   3:      Singlet-A      2.0191 eV  614.06 nm  f=0.0830  <S**2>=0.000
     243 -> 247        0.16858
     244 -> 247        0.21461
     245 -> 247        0.59815
     246 -> 248       -0.23319

 Excited State   4:      Singlet-A      2.1871 eV  566.88 nm  f=0.0059  <S**2>=0.000
     243 -> 247        0.68228
     245 -> 247       -0.13469
     246 -> 248        0.10552

 Excited State   5:      Singlet-A      2.1986 eV  563.92 nm  f=0.0002  <S**2>=0.000
     242 -> 247        0.70571

 The electronic state is 1-A.
 Alpha  occ. eigenvalues --  -46.28459 -18.82253 -18.81554 -18.77031 -18.75584
 Alpha  occ. eigenvalues --  -18.75222 -18.75168 -14.02871 -14.02067 -14.01316
 Alpha  occ. eigenvalues --  -14.00732 -10.04909 -10.03293  -9.99800  -9.98876
 Alpha  occ. eigenvalues --   -9.98624  -9.96218  -9.96201  -9.95740  -9.95734
 Alpha  occ. eigenvalues --   -9.95714  -9.95564  -9.95169  -9.95145  -9.95145
 Alpha  occ. eigenvalues --   -9.94726  -9.94009  -9.93935  -9.93810  -9.93720
 Alpha  occ. eigenvalues --   -9.93645  -9.93594  -9.93539  -9.93515  -9.93496
 Alpha  occ. eigenvalues --   -9.93374  -9.93371  -9.92929  -9.92877  -9.92721
 Alpha  occ. eigenvalues --   -9.92647  -9.92516  -9.92355  -9.92232  -9.92074
 Alpha  occ. eigenvalues --   -9.92069  -9.91896  -9.91885  -9.91696  -9.91692
 Alpha  occ. eigenvalues --   -9.91679  -9.91615  -9.91471  -9.91331  -9.91095
 Alpha  occ. eigenvalues --   -9.91044  -9.91028  -9.91001  -9.90994  -9.90918
 Alpha  occ. eigenvalues --   -9.90775  -9.90742  -9.90673  -9.90572  -9.90535
 Alpha  occ. eigenvalues --   -9.89999  -2.92950  -1.73339  -1.72861  -1.72661
 Alpha  occ. eigenvalues --   -0.98289  -0.94891  -0.93572  -0.89308  -0.88865
 Alpha  occ. eigenvalues --   -0.87183  -0.86506  -0.86371  -0.85856  -0.84976
 Alpha  occ. eigenvalues --   -0.75240  -0.73988  -0.73425  -0.73062  -0.72150
 Alpha  occ. eigenvalues --   -0.71975  -0.71284  -0.71083  -0.70761  -0.70208
 Alpha  occ. eigenvalues --   -0.69865  -0.69125  -0.68577  -0.67241  -0.66746
 Alpha  occ. eigenvalues --   -0.66388  -0.65602  -0.65195  -0.64496  -0.64376
 Alpha  occ. eigenvalues --   -0.64006  -0.62644  -0.62105  -0.61360  -0.60814
 Alpha  occ. eigenvalues --   -0.60720  -0.60354  -0.59798  -0.59423  -0.59276
 Alpha  occ. eigenvalues --   -0.57914  -0.57593  -0.56733  -0.55451  -0.54598
 Alpha  occ. eigenvalues --   -0.54365  -0.54161  -0.52431  -0.52016  -0.51164
 Alpha  occ. eigenvalues --   -0.50852  -0.50788  -0.50578  -0.50539  -0.50035
 Alpha  occ. eigenvalues --   -0.49743  -0.49536  -0.48804  -0.47614  -0.46338
 Alpha  occ. eigenvalues --   -0.46038  -0.45862  -0.45342  -0.44814  -0.44461
 Alpha  occ. eigenvalues --   -0.43621  -0.43399  -0.42862  -0.42612  -0.42437
 Alpha  occ. eigenvalues --   -0.42070  -0.41890  -0.41538  -0.41440  -0.41099
 Alpha  occ. eigenvalues --   -0.40939  -0.40598  -0.40392  -0.39858  -0.39808
 Alpha  occ. eigenvalues --   -0.39691  -0.39343  -0.39037  -0.38948  -0.38714
 Alpha  occ. eigenvalues --   -0.38519  -0.38382  -0.38329  -0.38123  -0.37985
 Alpha  occ. eigenvalues --   -0.37926  -0.37553  -0.37423  -0.37297  -0.37052
 Alpha  occ. eigenvalues --   -0.36989  -0.36804  -0.36580  -0.36363  -0.36183
 Alpha  occ. eigenvalues --   -0.36114  -0.35783  -0.35641  -0.35515  -0.35277
 Alpha  occ. eigenvalues --   -0.35213  -0.35099  -0.35034  -0.34903  -0.34624
 Alpha  occ. eigenvalues --   -0.34469  -0.34445  -0.34283  -0.34020  -0.33975
 Alpha  occ. eigenvalues --   -0.33796  -0.33512  -0.33440  -0.33205  -0.33093
 Alpha  occ. eigenvalues --   -0.32849  -0.32645  -0.32546  -0.32512  -0.32463
 Alpha  occ. eigenvalues --   -0.32127  -0.32035  -0.31774  -0.31586  -0.31338
 Alpha  occ. eigenvalues --   -0.31117  -0.31018  -0.30944  -0.30757  -0.30687
 Alpha  occ. eigenvalues --   -0.30414  -0.30268  -0.29932  -0.29609  -0.29397
 Alpha  occ. eigenvalues --   -0.29254  -0.29121  -0.28954  -0.28911  -0.28826
 Alpha  occ. eigenvalues --   -0.28655  -0.28409  -0.27983  -0.27925  -0.27849
 Alpha  occ. eigenvalues --   -0.27627  -0.27497  -0.27458  -0.26966  -0.26345
 Alpha  occ. eigenvalues --   -0.26285  -0.25988  -0.25840  -0.25548  -0.25099
 Alpha  occ. eigenvalues --   -0.24891  -0.24558  -0.23663  -0.23514  -0.23321
 Alpha  occ. eigenvalues --   -0.23266  -0.22036  -0.21794  -0.21125  -0.20222
 Alpha  occ. eigenvalues --   -0.20055  -0.19077  -0.18855  -0.17919  -0.16793
 Alpha  occ. eigenvalues --   -0.15323
 Alpha virt. eigenvalues --   -0.10997  -0.06450  -0.05898  -0.04444  -0.03763
 Alpha virt. eigenvalues --   -0.02772  -0.02602  -0.02119  -0.01191   0.00913
 Alpha virt. eigenvalues --    0.01628   0.02156   0.02279   0.02436   0.02555

 Mulliken charges:
               1
     1  Mg   0.693834
     2  C    0.062764
     3  C   -0.033269
     4  C   -0.010999
     5  C   -0.074591
     6  N   -0.141722
     7  C   -0.140364
     8  C    0.121196
     9  C   -0.031361
    10  C   -0.020203
    11  C    0.135080
    12  C    0.124910
    13  C    0.108866
    14  C    0.080571
    15  O   -0.198909
    16  O   -0.270331
    17  N   -0.238947
    18  C    0.077867
    19  C   -0.112062
    20  C    0.001767
    21  C    0.106700
    22  C    0.176797
    23  C   -0.058112
    24  O   -0.189545
    25  C    0.123021
    26  N   -0.220168
    27  C   -0.031139
    28  C    0.065884
    29  C    0.029747
    30  C   -0.021824
    31  C    0.104227
    32  C    0.060601
    33  C    0.067522
    34  N   -0.298422
    35  C    0.124789
    36  C   -0.171827
    37  C    0.101402
    38  C    0.087895
    39  C    0.172659
    40  C   -0.116735
    41  O   -0.077446
    42  C    0.074950
    43  C    0.128386
    44  O   -0.239586
    45  O   -0.276663
    46  C    0.197155
    47  C    0.314656
    48  C   -0.139964
    49  C   -0.172053
    50  C    0.148367
    51  C    0.171465
    52  C    0.029612
    53  C    0.091824
    54  C   -0.057971
    55  C    0.125877
    56  C    0.097004
    57  C    0.082869
    58  C    0.100403
    59  C   -0.065400
    60  C    0.085474
    61  C    0.134284
    62  C    0.081084
    63  C    0.092663
    64  C   -0.085402
    65  C    0.109893
    66  C    0.110506
    67  H   -0.093408
    68  H   -0.048133
    69  H   -0.067505
    70  H   -0.010512
    71  H   -0.022798
    72  H   -0.004437
    73  H   -0.027647
    74  H    0.010123
    75  H   -0.022915
    76  H    0.005381
    77  H   -0.000197
    78  H   -0.007100
    79  H   -0.000478
    80  H   -0.007516
    81  H    0.007826
    82  H    0.006462
    83  H   -0.013932
    84  H    0.012925
    85  H   -0.023605
    86  H   -0.019819
    87  H   -0.017481
    88  H   -0.000516
    89  H   -0.006302
    90  H   -0.015564
    91  H   -0.019872
    92  H   -0.009713
    93  H   -0.014070
    94  H    0.011921
    95  H    0.008327
    96  H    0.005780
    97  H    0.002036
    98  H   -0.011740
    99  H    0.012140
   100  H    0.033049
   101  H    0.022841
   102  H    0.013927
   103  H    0.019118
   104  H   -0.038520
   105  H   -0.006346
   106  H    0.002711
   107  H   -0.005677
   108  H   -0.018700
   109  H   -0.028678
   110  H   -0.023337
   111  H   -0.015853
   112  H   -0.044135
   113  H   -0.035908
   114  H   -0.031244
   115  H   -0.001446
   116  H   -0.021391
   117  H   -0.023235
   118  H   -0.012597
   119  H   -0.041813
   120  H   -0.031609
   121  H   -0.031615
   122  H   -0.043990
   123  H   -0.047232
   124  H   -0.022285
   125  H   -0.019676
   126  H   -0.029621
   127  H   -0.031453
   128  H   -0.039763
   129  H   -0.049871
   130  H   -0.028855
   131  H   -0.043053
   132  H   -0.056725
   133  H   -0.046120
   134  H   -0.036450
   135  H   -0.014668
   136  H   -0.033691
   137  H    0.002572
   138  H   -0.017290
   139  H   -0.023489
   140  H   -0.025098
 Sum of Mulliken charges =  -0.00000

 Dipole moment (field-independent basis, Debye):
    X=             -4.4847    Y=              2.2349    Z=              2.1467  Tot=              5.4512
 Quadrupole moment (field-independent basis, Debye-Ang):
   XX=           -388.6999   YY=           -421.9993   ZZ=           -404.7936
   XY=             -2.2807   XZ=             21.4584   YZ=             -1.4041

 Normal termination of Gaussian 16 at Thu May  5 10:05:34 2022.
