 Gaussian 16, Revision A.03,
 Gaussian 16:  ES64L-G16RevA.03 25-Dec-2016

 -----------------------------------
 #p cam-b3lyp/Def2SVP td=(nstates=5)
 -----------------------------------

 -------------------------------------------------------
 step_801_chromophore_16 TDDFT with cam-b3lyp functional
 -------------------------------------------------------
 Symbolic Z-matrix:
 Charge =  0 Multiplicity = 1

                         Standard orientation:
 ---------------------------------------------------------------------
 Center     Atomic      Atomic             Coordinates (Angstroms)
 Number     Number       Type             X           Y           Z
 ---------------------------------------------------------------------
      1         12           0        6.411720    0.510746    0.486035
      2          6           0        4.023179   -1.977140    0.280528
      3          6           0        3.953158    2.656411   -0.931594
      4          6           0        8.707856    2.903202   -0.174454
      5          6           0        8.862197   -1.774454    0.857637
      6          7           0        4.101239    0.352520   -0.104549
      7          6           0        3.403199   -0.755163   -0.098450
      8          6           0        1.954410   -0.510423   -0.581499
      9          6           0        2.006457    1.000599   -0.993791
     10          6           0        3.440192    1.365809   -0.730106
     11          6           0        1.549856    1.216544   -2.413415
     12          6           0        0.879793   -0.838743    0.476879
     13          6           0       -0.557522   -0.386097    0.300522
     14          6           0       -1.514122   -1.504461   -0.397991
     15          8           0       -1.248629   -2.351102   -1.243196
     16          8           0       -2.773385   -1.535206    0.089069
     17          7           0        6.265635    2.554717   -0.300977
     18          6           0        5.143000    3.288368   -0.680128
     19          6           0        5.485235    4.680398   -0.911941
     20          6           0        6.894549    4.706922   -0.655858
     21          6           0        7.344603    3.318898   -0.422446
     22          6           0        4.488630    5.714350   -1.386798
     23          6           0        7.884854    5.906744   -0.641544
     24          8           0        9.120822    5.828802   -0.436391
     25          6           0        7.298647    7.310460   -0.871892
     26          7           0        8.543069    0.525301    0.144011
     27          6           0        9.255473    1.685429    0.042512
     28          6           0       10.706555    1.408099    0.465381
     29          6           0       10.729666   -0.103158    0.894173
     30          6           0        9.246545   -0.430702    0.738518
     31          6           0       11.807744    1.797111   -0.590255
     32          6           0       11.395418   -0.446762    2.336860
     33          6           0       10.442903   -0.680161    3.513991
     34          7           0        6.515305   -1.457204    0.735746
     35          6           0        7.535433   -2.319768    0.868291
     36          6           0        7.058575   -3.712140    0.958221
     37          6           0        5.696868   -3.614336    0.750033
     38          6           0        5.369159   -2.201739    0.635742
     39          6           0        7.972672   -4.900632    1.040594
     40          6           0        4.513433   -4.360978    0.684944
     41          8           0        4.353563   -5.524788    0.800567
     42          6           0        3.350676   -3.369549    0.389744
     43          6           0        2.671364   -3.825627   -0.864077
     44          8           0        3.159775   -3.557177   -2.008830
     45          8           0        1.559572   -4.629357   -0.683359
     46          6           0        0.853150   -5.086437   -1.944800
     47          6           0       -3.777464   -2.483096   -0.549533
     48          6           0       -5.163662   -2.017037   -0.217351
     49          6           0       -6.349522   -2.718835   -0.197545
     50          6           0       -6.367823   -4.174809   -0.735706
     51          6           0       -7.618717   -2.127946    0.403697
     52          6           0       -8.338705   -1.373436   -0.744084
     53          6           0       -9.061262   -0.146984   -0.297495
     54          6           0      -10.170833    0.312471   -1.337679
     55          6           0       -9.770140    1.629272   -1.994519
     56          6           0      -11.617525    0.292981   -0.653638
     57          6           0      -12.614309   -0.530477   -1.453312
     58          6           0      -13.881634    0.249296   -1.686085
     59          6           0      -14.765678    0.392771   -0.425938
     60          6           0      -15.893372   -0.658900   -0.582742
     61          6           0      -15.464092    1.762544   -0.296169
     62          6           0      -15.627803    2.126086    1.188351
     63          6           0      -14.539067    2.997692    1.761768
     64          6           0      -13.778018    2.490250    2.981806
     65          6           0      -12.241251    2.785522    2.799507
     66          6           0      -14.391859    2.965032    4.301299
     67          1           0        3.257995    3.372039   -1.376322
     68          1           0        9.538625    3.608655   -0.105433
     69          1           0        9.739472   -2.407492    1.005010
     70          1           0        1.890432   -1.061564   -1.518821
     71          1           0        1.527706    1.736614   -0.347800
     72          1           0        2.422740    1.165122   -3.063621
     73          1           0        1.283238    2.270676   -2.495465
     74          1           0        0.679619    0.651391   -2.747603
     75          1           0        1.266209   -0.481581    1.431384
     76          1           0        0.681986   -1.910381    0.482021
     77          1           0       -0.708891    0.537523   -0.257903
     78          1           0       -0.945665   -0.105270    1.279512
     79          1           0        4.418363    6.410299   -0.551005
     80          1           0        3.486787    5.342346   -1.602282
     81          1           0        4.854723    6.324157   -2.212196
     82          1           0        6.654161    7.396774   -1.746425
     83          1           0        8.105211    8.025972   -1.026886
     84          1           0        6.893394    7.497139    0.123383
     85          1           0       10.907602    1.983040    1.369663
     86          1           0       11.198606   -0.782083    0.181748
     87          1           0       12.764233    1.281291   -0.508875
     88          1           0       12.071495    2.849046   -0.470849
     89          1           0       11.538697    1.645685   -1.635947
     90          1           0       12.051135    0.386812    2.587306
     91          1           0       11.960307   -1.371728    2.219901
     92          1           0       10.763705   -0.087665    4.371406
     93          1           0       10.548178   -1.731531    3.782565
     94          1           0        9.393146   -0.508054    3.278599
     95          1           0        7.401409   -5.612025    0.443953
     96          1           0        8.024138   -5.319389    2.045640
     97          1           0        8.956108   -4.732746    0.602008
     98          1           0        2.670459   -3.576735    1.215250
     99          1           0        1.442397   -4.808333   -2.819106
    100          1           0       -0.072088   -4.544320   -2.142270
    101          1           0        0.781840   -6.173782   -1.941836
    102          1           0       -3.674321   -3.488349   -0.143203
    103          1           0       -3.685275   -2.524308   -1.635561
    104          1           0       -5.145356   -0.969438    0.086227
    105          1           0       -6.667582   -4.761328    0.133446
    106          1           0       -5.413873   -4.522853   -1.131666
    107          1           0       -7.228608   -4.214106   -1.402803
    108          1           0       -7.289497   -1.429581    1.172896
    109          1           0       -8.290105   -2.907135    0.766470
    110          1           0       -9.006894   -2.142782   -1.129338
    111          1           0       -7.658796   -1.001729   -1.510441
    112          1           0       -8.338009    0.659997   -0.186206
    113          1           0       -9.413177   -0.312410    0.720148
    114          1           0      -10.139596   -0.515743   -2.045708
    115          1           0       -9.226110    2.328617   -1.359639
    116          1           0      -10.617251    2.122479   -2.471149
    117          1           0       -9.155868    1.338716   -2.847064
    118          1           0      -12.042359    1.244442   -0.336319
    119          1           0      -11.517887   -0.300342    0.256102
    120          1           0      -12.846811   -1.486747   -0.982510
    121          1           0      -12.209100   -0.680012   -2.454097
    122          1           0      -14.496749   -0.176467   -2.478156
    123          1           0      -13.607189    1.239185   -2.051462
    124          1           0      -14.227277    0.125073    0.483706
    125          1           0      -16.814715   -0.347170   -1.076687
    126          1           0      -16.286804   -1.186470    0.285813
    127          1           0      -15.537743   -1.491293   -1.190505
    128          1           0      -16.449430    1.847189   -0.753078
    129          1           0      -14.919652    2.535907   -0.838040
    130          1           0      -15.789631    1.187338    1.717363
    131          1           0      -16.488959    2.769037    1.373561
    132          1           0      -14.964801    3.897049    2.206072
    133          1           0      -13.933232    3.459297    0.982043
    134          1           0      -13.987936    1.425031    2.887846
    135          1           0      -11.794529    1.816240    2.574776
    136          1           0      -11.808986    3.003223    3.776145
    137          1           0      -11.947528    3.545268    2.076196
    138          1           0      -15.400815    3.374928    4.269449
    139          1           0      -13.779319    3.699440    4.824439
    140          1           0      -14.463228    2.164621    5.038355
 ---------------------------------------------------------------------

 SCF Done:  E(RCAM-B3LYP) =  -3007.14109465     A.U. after   18 cycles

 Excitation energies and oscillator strengths:

 Excited State   1:      Singlet-A      1.7370 eV  713.77 nm  f=0.3684  <S**2>=0.000
     245 -> 248       -0.18688
     246 -> 247        0.68324
     245 <- 248       -0.10554
 This state for optimization and/or second-order correction.
 Total Energy, E(TD-HF/TD-DFT) =  -3007.07725981
 Copying the excited state density for this state as the 1-particle RhoCI density.

 Excited State   2:      Singlet-A      2.2819 eV  543.35 nm  f=0.1114  <S**2>=0.000
     245 -> 247        0.63484
     246 -> 248        0.30297

 Excited State   3:      Singlet-A      3.4701 eV  357.29 nm  f=0.5989  <S**2>=0.000
     239 -> 247       -0.11487
     241 -> 247       -0.15904
     243 -> 247       -0.15681
     245 -> 247       -0.26251
     246 -> 248        0.58170
     245 <- 247        0.10091

 Excited State   4:      Singlet-A      3.5326 eV  350.97 nm  f=0.0511  <S**2>=0.000
     239 -> 247       -0.14003
     240 -> 247       -0.11739
     241 -> 247       -0.17609
     242 -> 249       -0.12614
     242 -> 251       -0.11781
     243 -> 247        0.56717
     243 -> 249        0.10890
     246 -> 250        0.11682

 Excited State   5:      Singlet-A      3.5770 eV  346.61 nm  f=0.0022  <S**2>=0.000
     239 -> 247        0.10778
     240 -> 247        0.10964
     246 -> 249        0.18955
     246 -> 250        0.64355

 The electronic state is 1-A.
 Alpha  occ. eigenvalues --  -46.90121 -19.25084 -19.24661 -19.19961 -19.19185
 Alpha  occ. eigenvalues --  -19.18471 -19.18054 -14.41879 -14.40635 -14.39903
 Alpha  occ. eigenvalues --  -14.39023 -10.40224 -10.39091 -10.34849 -10.34420
 Alpha  occ. eigenvalues --  -10.32740 -10.30805 -10.30514 -10.30379 -10.30356
 Alpha  occ. eigenvalues --  -10.29844 -10.29672 -10.29628 -10.29317 -10.29247
 Alpha  occ. eigenvalues --  -10.28715 -10.28541 -10.28394 -10.28255 -10.28213
 Alpha  occ. eigenvalues --  -10.27807 -10.27790 -10.27500 -10.27463 -10.27363
 Alpha  occ. eigenvalues --  -10.27180 -10.27164 -10.26693 -10.26633 -10.26578
 Alpha  occ. eigenvalues --  -10.26458 -10.26374 -10.26327 -10.26288 -10.25972
 Alpha  occ. eigenvalues --  -10.25776 -10.25696 -10.25600 -10.25576 -10.25575
 Alpha  occ. eigenvalues --  -10.25469 -10.25264 -10.25239 -10.25089 -10.24885
 Alpha  occ. eigenvalues --  -10.24778 -10.24686 -10.24646 -10.24642 -10.24513
 Alpha  occ. eigenvalues --  -10.24421 -10.24324 -10.24279 -10.24209 -10.24133
 Alpha  occ. eigenvalues --  -10.23603  -3.18506  -1.93373  -1.92967  -1.92806
 Alpha  occ. eigenvalues --   -1.16722  -1.13561  -1.12383  -1.07338  -1.06611
 Alpha  occ. eigenvalues --   -1.05069  -1.04379  -1.04268  -1.03476  -1.02230
 Alpha  occ. eigenvalues --   -0.92647  -0.90867  -0.90259  -0.89864  -0.88841
 Alpha  occ. eigenvalues --   -0.88627  -0.87899  -0.87663  -0.87347  -0.86847
 Alpha  occ. eigenvalues --   -0.86309  -0.85426  -0.84854  -0.83321  -0.82976
 Alpha  occ. eigenvalues --   -0.82450  -0.81610  -0.81109  -0.80402  -0.80224
 Alpha  occ. eigenvalues --   -0.79826  -0.78419  -0.77605  -0.76823  -0.76216
 Alpha  occ. eigenvalues --   -0.76142  -0.75715  -0.75086  -0.74696  -0.74531
 Alpha  occ. eigenvalues --   -0.73001  -0.72627  -0.71592  -0.70210  -0.69358
 Alpha  occ. eigenvalues --   -0.69001  -0.68789  -0.66729  -0.66315  -0.65317
 Alpha  occ. eigenvalues --   -0.64956  -0.64750  -0.64688  -0.64611  -0.63947
 Alpha  occ. eigenvalues --   -0.63715  -0.63271  -0.62678  -0.61470  -0.59882
 Alpha  occ. eigenvalues --   -0.59542  -0.59405  -0.58967  -0.58120  -0.57757
 Alpha  occ. eigenvalues --   -0.57379  -0.56651  -0.55984  -0.55732  -0.55265
 Alpha  occ. eigenvalues --   -0.54972  -0.54897  -0.54469  -0.54435  -0.54243
 Alpha  occ. eigenvalues --   -0.53650  -0.53505  -0.53338  -0.52917  -0.52418
 Alpha  occ. eigenvalues --   -0.52195  -0.52169  -0.51719  -0.51605  -0.51307
 Alpha  occ. eigenvalues --   -0.51220  -0.51141  -0.51084  -0.50754  -0.50592
 Alpha  occ. eigenvalues --   -0.50329  -0.49866  -0.49722  -0.49527  -0.49376
 Alpha  occ. eigenvalues --   -0.49202  -0.49111  -0.48878  -0.48597  -0.48446
 Alpha  occ. eigenvalues --   -0.48182  -0.48108  -0.47768  -0.47741  -0.47514
 Alpha  occ. eigenvalues --   -0.47223  -0.47094  -0.46923  -0.46784  -0.46588
 Alpha  occ. eigenvalues --   -0.46553  -0.46306  -0.46172  -0.45938  -0.45735
 Alpha  occ. eigenvalues --   -0.45681  -0.45248  -0.45025  -0.44919  -0.44875
 Alpha  occ. eigenvalues --   -0.44737  -0.44488  -0.44267  -0.44123  -0.44046
 Alpha  occ. eigenvalues --   -0.43868  -0.43640  -0.43597  -0.43060  -0.42768
 Alpha  occ. eigenvalues --   -0.42669  -0.42471  -0.42403  -0.42166  -0.42119
 Alpha  occ. eigenvalues --   -0.41783  -0.41581  -0.41303  -0.40790  -0.40741
 Alpha  occ. eigenvalues --   -0.40713  -0.40268  -0.40181  -0.40055  -0.39938
 Alpha  occ. eigenvalues --   -0.39924  -0.39654  -0.39377  -0.38824  -0.38713
 Alpha  occ. eigenvalues --   -0.38617  -0.38346  -0.38315  -0.37709  -0.37615
 Alpha  occ. eigenvalues --   -0.37042  -0.36992  -0.36634  -0.36464  -0.35812
 Alpha  occ. eigenvalues --   -0.35697  -0.35282  -0.35023  -0.34265  -0.34027
 Alpha  occ. eigenvalues --   -0.33787  -0.33043  -0.32803  -0.31377  -0.30944
 Alpha  occ. eigenvalues --   -0.30577  -0.29892  -0.28959  -0.28657  -0.23557
 Alpha  occ. eigenvalues --   -0.20608
 Alpha virt. eigenvalues --   -0.07926  -0.01257   0.00608   0.01030   0.02753
 Alpha virt. eigenvalues --    0.04767   0.05287   0.05470   0.06126   0.07419
 Alpha virt. eigenvalues --    0.08142   0.08254   0.08797   0.08961   0.09239

 Mulliken charges:
               1
     1  Mg   0.823767
     2  C    0.033840
     3  C   -0.040149
     4  C   -0.034832
     5  C   -0.090156
     6  N   -0.205848
     7  C   -0.089395
     8  C    0.060303
     9  C   -0.083032
    10  C   -0.003767
    11  C    0.074243
    12  C    0.071760
    13  C    0.044937
    14  C    0.159431
    15  O   -0.244793
    16  O   -0.336354
    17  N   -0.321205
    18  C    0.078911
    19  C   -0.118668
    20  C   -0.071733
    21  C    0.131537
    22  C    0.120990
    23  C    0.021757
    24  O   -0.234031
    25  C    0.044429
    26  N   -0.292770
    27  C   -0.005897
    28  C    0.000706
    29  C   -0.024539
    30  C    0.003555
    31  C    0.049186
    32  C    0.009772
    33  C    0.006223
    34  N   -0.392989
    35  C    0.135149
    36  C   -0.158355
    37  C    0.023117
    38  C    0.123280
    39  C    0.121258
    40  C   -0.017560
    41  O   -0.113235
    42  C   -0.001739
    43  C    0.217135
    44  O   -0.278077
    45  O   -0.341007
    46  C    0.162549
    47  C    0.285309
    48  C   -0.156679
    49  C   -0.197994
    50  C    0.088902
    51  C    0.107575
    52  C   -0.018360
    53  C    0.041518
    54  C   -0.116345
    55  C    0.069307
    56  C    0.044744
    57  C    0.030286
    58  C    0.047533
    59  C   -0.128719
    60  C    0.030887
    61  C    0.079498
    62  C    0.023740
    63  C    0.037078
    64  C   -0.141191
    65  C    0.052385
    66  C    0.046828
    67  H   -0.059964
    68  H   -0.008355
    69  H   -0.034369
    70  H    0.026013
    71  H    0.010224
    72  H    0.022781
    73  H   -0.003113
    74  H    0.032999
    75  H    0.009868
    76  H    0.031155
    77  H    0.030556
    78  H    0.030018
    79  H    0.024526
    80  H    0.019159
    81  H    0.031325
    82  H    0.031902
    83  H    0.020499
    84  H    0.039264
    85  H    0.011058
    86  H    0.016438
    87  H    0.006514
    88  H    0.023121
    89  H    0.018970
    90  H    0.012767
    91  H    0.008028
    92  H    0.015401
    93  H    0.009180
    94  H    0.032474
    95  H    0.035237
    96  H    0.034539
    97  H    0.028378
    98  H    0.032843
    99  H    0.041136
   100  H    0.054882
   101  H    0.044897
   102  H    0.038670
   103  H    0.047693
   104  H   -0.003623
   105  H    0.017968
   106  H    0.025588
   107  H    0.017532
   108  H    0.012876
   109  H    0.002711
   110  H    0.002086
   111  H    0.011798
   112  H   -0.015522
   113  H   -0.007875
   114  H    0.000983
   115  H    0.021135
   116  H    0.002168
   117  H    0.001010
   118  H    0.010396
   119  H   -0.012749
   120  H   -0.004396
   121  H   -0.002436
   122  H   -0.012559
   123  H   -0.018945
   124  H    0.006198
   125  H    0.004683
   126  H   -0.004103
   127  H   -0.007037
   128  H   -0.009054
   129  H   -0.020588
   130  H   -0.002681
   131  H   -0.010939
   132  H   -0.025094
   133  H   -0.016855
   134  H   -0.006150
   135  H    0.007095
   136  H   -0.008080
   137  H    0.024820
   138  H    0.007342
   139  H    0.001293
   140  H    0.000283
 Sum of Mulliken charges =  -0.00000

 Dipole moment (field-independent basis, Debye):
    X=             -4.7285    Y=              1.9260    Z=              2.3352  Tot=              5.6144
 Quadrupole moment (field-independent basis, Debye-Ang):
   XX=           -388.2511   YY=           -417.9571   ZZ=           -404.4085
   XY=             -5.1305   XZ=             23.1401   YZ=             -1.8749

 Normal termination of Gaussian 16 at Thu May  5 08:47:56 2022.
