 Gaussian 16, Revision A.03,
 Gaussian 16:  ES64L-G16RevA.03 25-Dec-2016

 ---------------------------------
 #p PBE1PBE/Def2SVP td=(nstates=5)
 ---------------------------------

 -----------------------------------------------------
 step_801_chromophore_16 TDDFT with PBE1PBE functional
 -----------------------------------------------------
 Symbolic Z-matrix:
 Charge =  0 Multiplicity = 1

                         Standard orientation:
 ---------------------------------------------------------------------
 Center     Atomic      Atomic             Coordinates (Angstroms)
 Number     Number       Type             X           Y           Z
 ---------------------------------------------------------------------
      1         12           0        6.411720    0.510746    0.486035
      2          6           0        4.023179   -1.977140    0.280528
      3          6           0        3.953158    2.656411   -0.931594
      4          6           0        8.707856    2.903202   -0.174454
      5          6           0        8.862197   -1.774454    0.857637
      6          7           0        4.101239    0.352520   -0.104549
      7          6           0        3.403199   -0.755163   -0.098450
      8          6           0        1.954410   -0.510423   -0.581499
      9          6           0        2.006457    1.000599   -0.993791
     10          6           0        3.440192    1.365809   -0.730106
     11          6           0        1.549856    1.216544   -2.413415
     12          6           0        0.879793   -0.838743    0.476879
     13          6           0       -0.557522   -0.386097    0.300522
     14          6           0       -1.514122   -1.504461   -0.397991
     15          8           0       -1.248629   -2.351102   -1.243196
     16          8           0       -2.773385   -1.535206    0.089069
     17          7           0        6.265635    2.554717   -0.300977
     18          6           0        5.143000    3.288368   -0.680128
     19          6           0        5.485235    4.680398   -0.911941
     20          6           0        6.894549    4.706922   -0.655858
     21          6           0        7.344603    3.318898   -0.422446
     22          6           0        4.488630    5.714350   -1.386798
     23          6           0        7.884854    5.906744   -0.641544
     24          8           0        9.120822    5.828802   -0.436391
     25          6           0        7.298647    7.310460   -0.871892
     26          7           0        8.543069    0.525301    0.144011
     27          6           0        9.255473    1.685429    0.042512
     28          6           0       10.706555    1.408099    0.465381
     29          6           0       10.729666   -0.103158    0.894173
     30          6           0        9.246545   -0.430702    0.738518
     31          6           0       11.807744    1.797111   -0.590255
     32          6           0       11.395418   -0.446762    2.336860
     33          6           0       10.442903   -0.680161    3.513991
     34          7           0        6.515305   -1.457204    0.735746
     35          6           0        7.535433   -2.319768    0.868291
     36          6           0        7.058575   -3.712140    0.958221
     37          6           0        5.696868   -3.614336    0.750033
     38          6           0        5.369159   -2.201739    0.635742
     39          6           0        7.972672   -4.900632    1.040594
     40          6           0        4.513433   -4.360978    0.684944
     41          8           0        4.353563   -5.524788    0.800567
     42          6           0        3.350676   -3.369549    0.389744
     43          6           0        2.671364   -3.825627   -0.864077
     44          8           0        3.159775   -3.557177   -2.008830
     45          8           0        1.559572   -4.629357   -0.683359
     46          6           0        0.853150   -5.086437   -1.944800
     47          6           0       -3.777464   -2.483096   -0.549533
     48          6           0       -5.163662   -2.017037   -0.217351
     49          6           0       -6.349522   -2.718835   -0.197545
     50          6           0       -6.367823   -4.174809   -0.735706
     51          6           0       -7.618717   -2.127946    0.403697
     52          6           0       -8.338705   -1.373436   -0.744084
     53          6           0       -9.061262   -0.146984   -0.297495
     54          6           0      -10.170833    0.312471   -1.337679
     55          6           0       -9.770140    1.629272   -1.994519
     56          6           0      -11.617525    0.292981   -0.653638
     57          6           0      -12.614309   -0.530477   -1.453312
     58          6           0      -13.881634    0.249296   -1.686085
     59          6           0      -14.765678    0.392771   -0.425938
     60          6           0      -15.893372   -0.658900   -0.582742
     61          6           0      -15.464092    1.762544   -0.296169
     62          6           0      -15.627803    2.126086    1.188351
     63          6           0      -14.539067    2.997692    1.761768
     64          6           0      -13.778018    2.490250    2.981806
     65          6           0      -12.241251    2.785522    2.799507
     66          6           0      -14.391859    2.965032    4.301299
     67          1           0        3.257995    3.372039   -1.376322
     68          1           0        9.538625    3.608655   -0.105433
     69          1           0        9.739472   -2.407492    1.005010
     70          1           0        1.890432   -1.061564   -1.518821
     71          1           0        1.527706    1.736614   -0.347800
     72          1           0        2.422740    1.165122   -3.063621
     73          1           0        1.283238    2.270676   -2.495465
     74          1           0        0.679619    0.651391   -2.747603
     75          1           0        1.266209   -0.481581    1.431384
     76          1           0        0.681986   -1.910381    0.482021
     77          1           0       -0.708891    0.537523   -0.257903
     78          1           0       -0.945665   -0.105270    1.279512
     79          1           0        4.418363    6.410299   -0.551005
     80          1           0        3.486787    5.342346   -1.602282
     81          1           0        4.854723    6.324157   -2.212196
     82          1           0        6.654161    7.396774   -1.746425
     83          1           0        8.105211    8.025972   -1.026886
     84          1           0        6.893394    7.497139    0.123383
     85          1           0       10.907602    1.983040    1.369663
     86          1           0       11.198606   -0.782083    0.181748
     87          1           0       12.764233    1.281291   -0.508875
     88          1           0       12.071495    2.849046   -0.470849
     89          1           0       11.538697    1.645685   -1.635947
     90          1           0       12.051135    0.386812    2.587306
     91          1           0       11.960307   -1.371728    2.219901
     92          1           0       10.763705   -0.087665    4.371406
     93          1           0       10.548178   -1.731531    3.782565
     94          1           0        9.393146   -0.508054    3.278599
     95          1           0        7.401409   -5.612025    0.443953
     96          1           0        8.024138   -5.319389    2.045640
     97          1           0        8.956108   -4.732746    0.602008
     98          1           0        2.670459   -3.576735    1.215250
     99          1           0        1.442397   -4.808333   -2.819106
    100          1           0       -0.072088   -4.544320   -2.142270
    101          1           0        0.781840   -6.173782   -1.941836
    102          1           0       -3.674321   -3.488349   -0.143203
    103          1           0       -3.685275   -2.524308   -1.635561
    104          1           0       -5.145356   -0.969438    0.086227
    105          1           0       -6.667582   -4.761328    0.133446
    106          1           0       -5.413873   -4.522853   -1.131666
    107          1           0       -7.228608   -4.214106   -1.402803
    108          1           0       -7.289497   -1.429581    1.172896
    109          1           0       -8.290105   -2.907135    0.766470
    110          1           0       -9.006894   -2.142782   -1.129338
    111          1           0       -7.658796   -1.001729   -1.510441
    112          1           0       -8.338009    0.659997   -0.186206
    113          1           0       -9.413177   -0.312410    0.720148
    114          1           0      -10.139596   -0.515743   -2.045708
    115          1           0       -9.226110    2.328617   -1.359639
    116          1           0      -10.617251    2.122479   -2.471149
    117          1           0       -9.155868    1.338716   -2.847064
    118          1           0      -12.042359    1.244442   -0.336319
    119          1           0      -11.517887   -0.300342    0.256102
    120          1           0      -12.846811   -1.486747   -0.982510
    121          1           0      -12.209100   -0.680012   -2.454097
    122          1           0      -14.496749   -0.176467   -2.478156
    123          1           0      -13.607189    1.239185   -2.051462
    124          1           0      -14.227277    0.125073    0.483706
    125          1           0      -16.814715   -0.347170   -1.076687
    126          1           0      -16.286804   -1.186470    0.285813
    127          1           0      -15.537743   -1.491293   -1.190505
    128          1           0      -16.449430    1.847189   -0.753078
    129          1           0      -14.919652    2.535907   -0.838040
    130          1           0      -15.789631    1.187338    1.717363
    131          1           0      -16.488959    2.769037    1.373561
    132          1           0      -14.964801    3.897049    2.206072
    133          1           0      -13.933232    3.459297    0.982043
    134          1           0      -13.987936    1.425031    2.887846
    135          1           0      -11.794529    1.816240    2.574776
    136          1           0      -11.808986    3.003223    3.776145
    137          1           0      -11.947528    3.545268    2.076196
    138          1           0      -15.400815    3.374928    4.269449
    139          1           0      -13.779319    3.699440    4.824439
    140          1           0      -14.463228    2.164621    5.038355
 ---------------------------------------------------------------------

 SCF Done:  E(RPBE1PBE) =  -3005.32929018     A.U. after   16 cycles

 Excitation energies and oscillator strengths:

 Excited State   1:      Singlet-A      1.8636 eV  665.28 nm  f=0.3509  <S**2>=0.000
     245 -> 248        0.18096
     246 -> 247        0.69035
     246 <- 247       -0.10153
 This state for optimization and/or second-order correction.
 Total Energy, E(TD-HF/TD-DFT) =  -3005.26080293
 Copying the excited state density for this state as the 1-particle RhoCI density.

 Excited State   2:      Singlet-A      2.2522 eV  550.51 nm  f=0.1137  <S**2>=0.000
     245 -> 247        0.64740
     246 -> 248       -0.27547

 Excited State   3:      Singlet-A      3.0149 eV  411.24 nm  f=0.0007  <S**2>=0.000
     242 -> 247        0.12191
     243 -> 247        0.66319
     243 -> 249        0.12294

 Excited State   4:      Singlet-A      3.1337 eV  395.64 nm  f=0.0134  <S**2>=0.000
     241 -> 247        0.62641
     241 -> 249       -0.16262
     242 -> 247       -0.20264
     246 -> 248        0.11005

 Excited State   5:      Singlet-A      3.2196 eV  385.09 nm  f=0.0001  <S**2>=0.000
     241 -> 247        0.18763
     242 -> 247        0.64013
     243 -> 247       -0.14346
     246 -> 248        0.10344

 The electronic state is 1-A.
 Alpha  occ. eigenvalues --  -46.93498 -19.25770 -19.25212 -19.20231 -19.19109
 Alpha  occ. eigenvalues --  -19.18632 -19.18512 -14.41240 -14.40243 -14.39449
 Alpha  occ. eigenvalues --  -14.38761 -10.37286 -10.36001 -10.32214 -10.31294
 Alpha  occ. eigenvalues --  -10.30147 -10.28416 -10.27898 -10.27886 -10.27695
 Alpha  occ. eigenvalues --  -10.27563 -10.27521 -10.27374 -10.27093 -10.26778
 Alpha  occ. eigenvalues --  -10.26465 -10.26182 -10.26174 -10.26103 -10.25676
 Alpha  occ. eigenvalues --  -10.25569 -10.25480 -10.25330 -10.25186 -10.25035
 Alpha  occ. eigenvalues --  -10.25031 -10.24772 -10.24650 -10.24297 -10.24025
 Alpha  occ. eigenvalues --  -10.24015 -10.24011 -10.23975 -10.23733 -10.23573
 Alpha  occ. eigenvalues --  -10.23476 -10.23244 -10.23235 -10.23017 -10.23003
 Alpha  occ. eigenvalues --  -10.22970 -10.22798 -10.22781 -10.22629 -10.22461
 Alpha  occ. eigenvalues --  -10.22269 -10.22252 -10.22217 -10.22034 -10.22032
 Alpha  occ. eigenvalues --  -10.21983 -10.21803 -10.21762 -10.21699 -10.21548
 Alpha  occ. eigenvalues --  -10.21142  -3.15468  -1.88272  -1.87847  -1.87690
 Alpha  occ. eigenvalues --   -1.11538  -1.08160  -1.06945  -1.02248  -1.01471
 Alpha  occ. eigenvalues --   -0.99631  -0.99055  -0.98854  -0.98129  -0.97105
 Alpha  occ. eigenvalues --   -0.86843  -0.84968  -0.84355  -0.84072  -0.83024
 Alpha  occ. eigenvalues --   -0.82924  -0.82178  -0.81793  -0.81617  -0.81093
 Alpha  occ. eigenvalues --   -0.80677  -0.79691  -0.79088  -0.77515  -0.77202
 Alpha  occ. eigenvalues --   -0.76744  -0.75867  -0.75313  -0.74644  -0.74396
 Alpha  occ. eigenvalues --   -0.74159  -0.72628  -0.72040  -0.71117  -0.70477
 Alpha  occ. eigenvalues --   -0.70315  -0.69789  -0.69414  -0.68859  -0.68662
 Alpha  occ. eigenvalues --   -0.67359  -0.66962  -0.66041  -0.64534  -0.63721
 Alpha  occ. eigenvalues --   -0.63354  -0.62985  -0.61125  -0.60649  -0.59876
 Alpha  occ. eigenvalues --   -0.59270  -0.59240  -0.59124  -0.58744  -0.58529
 Alpha  occ. eigenvalues --   -0.57870  -0.57764  -0.56873  -0.55977  -0.54269
 Alpha  occ. eigenvalues --   -0.54143  -0.54013  -0.53499  -0.52528  -0.52353
 Alpha  occ. eigenvalues --   -0.51651  -0.51274  -0.50540  -0.50178  -0.49674
 Alpha  occ. eigenvalues --   -0.49435  -0.49366  -0.49130  -0.48854  -0.48640
 Alpha  occ. eigenvalues --   -0.48165  -0.47967  -0.47895  -0.47399  -0.46881
 Alpha  occ. eigenvalues --   -0.46783  -0.46652  -0.46206  -0.46114  -0.45841
 Alpha  occ. eigenvalues --   -0.45755  -0.45646  -0.45586  -0.45314  -0.45179
 Alpha  occ. eigenvalues --   -0.44879  -0.44488  -0.44283  -0.44075  -0.43927
 Alpha  occ. eigenvalues --   -0.43876  -0.43684  -0.43545  -0.43165  -0.43089
 Alpha  occ. eigenvalues --   -0.42855  -0.42729  -0.42446  -0.42334  -0.42211
 Alpha  occ. eigenvalues --   -0.41849  -0.41712  -0.41538  -0.41515  -0.41210
 Alpha  occ. eigenvalues --   -0.41138  -0.40950  -0.40808  -0.40706  -0.40494
 Alpha  occ. eigenvalues --   -0.40272  -0.40005  -0.39753  -0.39644  -0.39591
 Alpha  occ. eigenvalues --   -0.39500  -0.39182  -0.38978  -0.38932  -0.38730
 Alpha  occ. eigenvalues --   -0.38551  -0.38429  -0.38240  -0.37881  -0.37548
 Alpha  occ. eigenvalues --   -0.37404  -0.37366  -0.37255  -0.37045  -0.37014
 Alpha  occ. eigenvalues --   -0.36597  -0.36348  -0.36063  -0.35668  -0.35530
 Alpha  occ. eigenvalues --   -0.35467  -0.35063  -0.34945  -0.34835  -0.34794
 Alpha  occ. eigenvalues --   -0.34636  -0.34423  -0.34320  -0.33572  -0.33567
 Alpha  occ. eigenvalues --   -0.33474  -0.33324  -0.33208  -0.32637  -0.32535
 Alpha  occ. eigenvalues --   -0.31974  -0.31800  -0.31743  -0.31278  -0.30875
 Alpha  occ. eigenvalues --   -0.30588  -0.30126  -0.29964  -0.29354  -0.28958
 Alpha  occ. eigenvalues --   -0.28640  -0.28623  -0.27431  -0.26772  -0.26192
 Alpha  occ. eigenvalues --   -0.25712  -0.25142  -0.24512  -0.23944  -0.20461
 Alpha  occ. eigenvalues --   -0.18232
 Alpha virt. eigenvalues --   -0.10500  -0.04771  -0.03608  -0.01982  -0.01408
 Alpha virt. eigenvalues --    0.00278   0.00668   0.00891   0.01688   0.03961
 Alpha virt. eigenvalues --    0.04403   0.05047   0.05280   0.05473   0.05635

 Mulliken charges:
               1
     1  Mg   0.960169
     2  C    0.020926
     3  C   -0.050036
     4  C   -0.035707
     5  C   -0.074822
     6  N   -0.310806
     7  C   -0.004655
     8  C   -0.017594
     9  C   -0.163522
    10  C    0.049222
    11  C    0.016466
    12  C    0.013439
    13  C   -0.020540
    14  C    0.221054
    15  O   -0.277229
    16  O   -0.367657
    17  N   -0.432264
    18  C    0.112627
    19  C   -0.148346
    20  C   -0.116196
    21  C    0.172150
    22  C    0.062487
    23  C    0.070078
    24  O   -0.268518
    25  C   -0.029640
    26  N   -0.391378
    27  C    0.036931
    28  C   -0.088506
    29  C   -0.083336
    30  C    0.029725
    31  C   -0.007196
    32  C   -0.052687
    33  C   -0.067383
    34  N   -0.521029
    35  C    0.149886
    36  C   -0.167628
    37  C   -0.036902
    38  C    0.169601
    39  C    0.067773
    40  C    0.083146
    41  O   -0.164243
    42  C   -0.109258
    43  C    0.303266
    44  O   -0.309581
    45  O   -0.373182
    46  C    0.108479
    47  C    0.242602
    48  C   -0.157047
    49  C   -0.249762
    50  C    0.024197
    51  C    0.041201
    52  C   -0.081433
    53  C   -0.008117
    54  C   -0.203710
    55  C    0.008477
    56  C   -0.009448
    57  C   -0.034137
    58  C   -0.012636
    59  C   -0.219596
    60  C   -0.021847
    61  C    0.029310
    62  C   -0.044559
    63  C   -0.009662
    64  C   -0.234222
    65  C   -0.010009
    66  C   -0.014471
    67  H   -0.024453
    68  H    0.025984
    69  H   -0.001583
    70  H    0.064631
    71  H    0.047840
    72  H    0.051648
    73  H    0.025157
    74  H    0.061186
    75  H    0.042160
    76  H    0.068971
    77  H    0.061180
    78  H    0.061397
    79  H    0.054170
    80  H    0.046037
    81  H    0.059299
    82  H    0.057844
    83  H    0.049096
    84  H    0.067422
    85  H    0.049584
    86  H    0.053019
    87  H    0.034946
    88  H    0.049622
    89  H    0.046609
    90  H    0.044451
    91  H    0.039511
    92  H    0.043308
    93  H    0.037070
    94  H    0.063362
    95  H    0.062846
    96  H    0.061470
    97  H    0.053043
    98  H    0.068361
    99  H    0.061567
   100  H    0.077670
   101  H    0.066276
   102  H    0.064981
   103  H    0.073526
   104  H    0.026965
   105  H    0.046834
   106  H    0.051217
   107  H    0.046710
   108  H    0.045052
   109  H    0.035261
   110  H    0.034713
   111  H    0.045611
   112  H    0.017863
   113  H    0.023673
   114  H    0.038638
   115  H    0.047092
   116  H    0.030837
   117  H    0.029830
   118  H    0.044128
   119  H    0.021152
   120  H    0.027954
   121  H    0.031193
   122  H    0.020427
   123  H    0.014960
   124  H    0.044461
   125  H    0.031524
   126  H    0.023323
   127  H    0.020900
   128  H    0.022799
   129  H    0.010705
   130  H    0.029210
   131  H    0.022603
   132  H    0.009495
   133  H    0.013623
   134  H    0.032700
   135  H    0.035591
   136  H    0.020221
   137  H    0.050051
   138  H    0.033965
   139  H    0.028525
   140  H    0.028267
 Sum of Mulliken charges =  -0.00000

 Dipole moment (field-independent basis, Debye):
    X=             -4.6382    Y=              2.4118    Z=              2.2276  Tot=              5.6826
 Quadrupole moment (field-independent basis, Debye-Ang):
   XX=           -381.1781   YY=           -414.7108   ZZ=           -401.9637
   XY=             -2.5685   XZ=             23.1425   YZ=             -1.8881

 Normal termination of Gaussian 16 at Thu May  5 09:12:45 2022.
