 Gaussian 16, Revision A.03,
 Gaussian 16:  ES64L-G16RevA.03 25-Dec-2016

 --------------------------------
 #p wB97XD/Def2SVP td=(nstates=5)
 --------------------------------

 ----------------------------------------------------
 step_801_chromophore_16 TDDFT with wB97XD functional
 ----------------------------------------------------
 Symbolic Z-matrix:
 Charge =  0 Multiplicity = 1

                         Standard orientation:
 ---------------------------------------------------------------------
 Center     Atomic      Atomic             Coordinates (Angstroms)
 Number     Number       Type             X           Y           Z
 ---------------------------------------------------------------------
      1         12           0        6.411720    0.510746    0.486035
      2          6           0        4.023179   -1.977140    0.280528
      3          6           0        3.953158    2.656411   -0.931594
      4          6           0        8.707856    2.903202   -0.174454
      5          6           0        8.862197   -1.774454    0.857637
      6          7           0        4.101239    0.352520   -0.104549
      7          6           0        3.403199   -0.755163   -0.098450
      8          6           0        1.954410   -0.510423   -0.581499
      9          6           0        2.006457    1.000599   -0.993791
     10          6           0        3.440192    1.365809   -0.730106
     11          6           0        1.549856    1.216544   -2.413415
     12          6           0        0.879793   -0.838743    0.476879
     13          6           0       -0.557522   -0.386097    0.300522
     14          6           0       -1.514122   -1.504461   -0.397991
     15          8           0       -1.248629   -2.351102   -1.243196
     16          8           0       -2.773385   -1.535206    0.089069
     17          7           0        6.265635    2.554717   -0.300977
     18          6           0        5.143000    3.288368   -0.680128
     19          6           0        5.485235    4.680398   -0.911941
     20          6           0        6.894549    4.706922   -0.655858
     21          6           0        7.344603    3.318898   -0.422446
     22          6           0        4.488630    5.714350   -1.386798
     23          6           0        7.884854    5.906744   -0.641544
     24          8           0        9.120822    5.828802   -0.436391
     25          6           0        7.298647    7.310460   -0.871892
     26          7           0        8.543069    0.525301    0.144011
     27          6           0        9.255473    1.685429    0.042512
     28          6           0       10.706555    1.408099    0.465381
     29          6           0       10.729666   -0.103158    0.894173
     30          6           0        9.246545   -0.430702    0.738518
     31          6           0       11.807744    1.797111   -0.590255
     32          6           0       11.395418   -0.446762    2.336860
     33          6           0       10.442903   -0.680161    3.513991
     34          7           0        6.515305   -1.457204    0.735746
     35          6           0        7.535433   -2.319768    0.868291
     36          6           0        7.058575   -3.712140    0.958221
     37          6           0        5.696868   -3.614336    0.750033
     38          6           0        5.369159   -2.201739    0.635742
     39          6           0        7.972672   -4.900632    1.040594
     40          6           0        4.513433   -4.360978    0.684944
     41          8           0        4.353563   -5.524788    0.800567
     42          6           0        3.350676   -3.369549    0.389744
     43          6           0        2.671364   -3.825627   -0.864077
     44          8           0        3.159775   -3.557177   -2.008830
     45          8           0        1.559572   -4.629357   -0.683359
     46          6           0        0.853150   -5.086437   -1.944800
     47          6           0       -3.777464   -2.483096   -0.549533
     48          6           0       -5.163662   -2.017037   -0.217351
     49          6           0       -6.349522   -2.718835   -0.197545
     50          6           0       -6.367823   -4.174809   -0.735706
     51          6           0       -7.618717   -2.127946    0.403697
     52          6           0       -8.338705   -1.373436   -0.744084
     53          6           0       -9.061262   -0.146984   -0.297495
     54          6           0      -10.170833    0.312471   -1.337679
     55          6           0       -9.770140    1.629272   -1.994519
     56          6           0      -11.617525    0.292981   -0.653638
     57          6           0      -12.614309   -0.530477   -1.453312
     58          6           0      -13.881634    0.249296   -1.686085
     59          6           0      -14.765678    0.392771   -0.425938
     60          6           0      -15.893372   -0.658900   -0.582742
     61          6           0      -15.464092    1.762544   -0.296169
     62          6           0      -15.627803    2.126086    1.188351
     63          6           0      -14.539067    2.997692    1.761768
     64          6           0      -13.778018    2.490250    2.981806
     65          6           0      -12.241251    2.785522    2.799507
     66          6           0      -14.391859    2.965032    4.301299
     67          1           0        3.257995    3.372039   -1.376322
     68          1           0        9.538625    3.608655   -0.105433
     69          1           0        9.739472   -2.407492    1.005010
     70          1           0        1.890432   -1.061564   -1.518821
     71          1           0        1.527706    1.736614   -0.347800
     72          1           0        2.422740    1.165122   -3.063621
     73          1           0        1.283238    2.270676   -2.495465
     74          1           0        0.679619    0.651391   -2.747603
     75          1           0        1.266209   -0.481581    1.431384
     76          1           0        0.681986   -1.910381    0.482021
     77          1           0       -0.708891    0.537523   -0.257903
     78          1           0       -0.945665   -0.105270    1.279512
     79          1           0        4.418363    6.410299   -0.551005
     80          1           0        3.486787    5.342346   -1.602282
     81          1           0        4.854723    6.324157   -2.212196
     82          1           0        6.654161    7.396774   -1.746425
     83          1           0        8.105211    8.025972   -1.026886
     84          1           0        6.893394    7.497139    0.123383
     85          1           0       10.907602    1.983040    1.369663
     86          1           0       11.198606   -0.782083    0.181748
     87          1           0       12.764233    1.281291   -0.508875
     88          1           0       12.071495    2.849046   -0.470849
     89          1           0       11.538697    1.645685   -1.635947
     90          1           0       12.051135    0.386812    2.587306
     91          1           0       11.960307   -1.371728    2.219901
     92          1           0       10.763705   -0.087665    4.371406
     93          1           0       10.548178   -1.731531    3.782565
     94          1           0        9.393146   -0.508054    3.278599
     95          1           0        7.401409   -5.612025    0.443953
     96          1           0        8.024138   -5.319389    2.045640
     97          1           0        8.956108   -4.732746    0.602008
     98          1           0        2.670459   -3.576735    1.215250
     99          1           0        1.442397   -4.808333   -2.819106
    100          1           0       -0.072088   -4.544320   -2.142270
    101          1           0        0.781840   -6.173782   -1.941836
    102          1           0       -3.674321   -3.488349   -0.143203
    103          1           0       -3.685275   -2.524308   -1.635561
    104          1           0       -5.145356   -0.969438    0.086227
    105          1           0       -6.667582   -4.761328    0.133446
    106          1           0       -5.413873   -4.522853   -1.131666
    107          1           0       -7.228608   -4.214106   -1.402803
    108          1           0       -7.289497   -1.429581    1.172896
    109          1           0       -8.290105   -2.907135    0.766470
    110          1           0       -9.006894   -2.142782   -1.129338
    111          1           0       -7.658796   -1.001729   -1.510441
    112          1           0       -8.338009    0.659997   -0.186206
    113          1           0       -9.413177   -0.312410    0.720148
    114          1           0      -10.139596   -0.515743   -2.045708
    115          1           0       -9.226110    2.328617   -1.359639
    116          1           0      -10.617251    2.122479   -2.471149
    117          1           0       -9.155868    1.338716   -2.847064
    118          1           0      -12.042359    1.244442   -0.336319
    119          1           0      -11.517887   -0.300342    0.256102
    120          1           0      -12.846811   -1.486747   -0.982510
    121          1           0      -12.209100   -0.680012   -2.454097
    122          1           0      -14.496749   -0.176467   -2.478156
    123          1           0      -13.607189    1.239185   -2.051462
    124          1           0      -14.227277    0.125073    0.483706
    125          1           0      -16.814715   -0.347170   -1.076687
    126          1           0      -16.286804   -1.186470    0.285813
    127          1           0      -15.537743   -1.491293   -1.190505
    128          1           0      -16.449430    1.847189   -0.753078
    129          1           0      -14.919652    2.535907   -0.838040
    130          1           0      -15.789631    1.187338    1.717363
    131          1           0      -16.488959    2.769037    1.373561
    132          1           0      -14.964801    3.897049    2.206072
    133          1           0      -13.933232    3.459297    0.982043
    134          1           0      -13.987936    1.425031    2.887846
    135          1           0      -11.794529    1.816240    2.574776
    136          1           0      -11.808986    3.003223    3.776145
    137          1           0      -11.947528    3.545268    2.076196
    138          1           0      -15.400815    3.374928    4.269449
    139          1           0      -13.779319    3.699440    4.824439
    140          1           0      -14.463228    2.164621    5.038355
 ---------------------------------------------------------------------

 SCF Done:  E(RwB97XD) =  -3007.83859784     A.U. after   19 cycles

 Excitation energies and oscillator strengths:

 Excited State   1:      Singlet-A      1.6910 eV  733.18 nm  f=0.3659  <S**2>=0.000
     245 -> 248       -0.19164
     246 -> 247        0.68056
     245 <- 248       -0.11361
 This state for optimization and/or second-order correction.
 Total Energy, E(TD-HF/TD-DFT) =  -3007.77645333
 Copying the excited state density for this state as the 1-particle RhoCI density.

 Excited State   2:      Singlet-A      2.2381 eV  553.97 nm  f=0.1121  <S**2>=0.000
     245 -> 247        0.63346
     246 -> 248        0.30322

 Excited State   3:      Singlet-A      3.4826 eV  356.01 nm  f=0.6317  <S**2>=0.000
     239 -> 247       -0.11622
     241 -> 247       -0.20961
     245 -> 247       -0.26264
     246 -> 248        0.57936
     245 <- 247        0.10606

 Excited State   4:      Singlet-A      3.5657 eV  347.71 nm  f=0.0029  <S**2>=0.000
     239 -> 247       -0.14647
     240 -> 247       -0.24224
     240 -> 249       -0.15200
     241 -> 247       -0.21262
     242 -> 249        0.10558
     243 -> 247        0.49149
     243 -> 249       -0.13440

 Excited State   5:      Singlet-A      3.6091 eV  343.53 nm  f=0.1381  <S**2>=0.000
     239 -> 247        0.14537
     239 -> 249        0.10167
     240 -> 247        0.42801
     240 -> 249        0.19787
     243 -> 247        0.33763
     243 -> 249       -0.10421
     245 -> 247       -0.10908
     246 -> 248        0.18383

 The electronic state is 1-A.
 Alpha  occ. eigenvalues --  -46.96441 -19.30331 -19.29912 -19.24884 -19.24281
 Alpha  occ. eigenvalues --  -19.23476 -19.23031 -14.46462 -14.45179 -14.44518
 Alpha  occ. eigenvalues --  -14.43555 -10.44049 -10.42996 -10.38782 -10.38455
 Alpha  occ. eigenvalues --  -10.36663 -10.34845 -10.34631 -10.34395 -10.34162
 Alpha  occ. eigenvalues --  -10.33949 -10.33609 -10.33579 -10.33239 -10.33219
 Alpha  occ. eigenvalues --  -10.32927 -10.32747 -10.32329 -10.32319 -10.32304
 Alpha  occ. eigenvalues --  -10.31872 -10.31829 -10.31491 -10.31477 -10.31429
 Alpha  occ. eigenvalues --  -10.31169 -10.31063 -10.30644 -10.30604 -10.30477
 Alpha  occ. eigenvalues --  -10.30405 -10.30392 -10.30299 -10.30259 -10.30011
 Alpha  occ. eigenvalues --  -10.29765 -10.29700 -10.29649 -10.29513 -10.29413
 Alpha  occ. eigenvalues --  -10.29304 -10.29162 -10.29111 -10.28918 -10.28764
 Alpha  occ. eigenvalues --  -10.28704 -10.28615 -10.28574 -10.28454 -10.28410
 Alpha  occ. eigenvalues --  -10.28347 -10.28175 -10.28130 -10.28128 -10.27979
 Alpha  occ. eigenvalues --  -10.27500  -3.22309  -1.95858  -1.95432  -1.95265
 Alpha  occ. eigenvalues --   -1.18903  -1.15769  -1.14674  -1.09484  -1.08812
 Alpha  occ. eigenvalues --   -1.07108  -1.06587  -1.06302  -1.05492  -1.04210
 Alpha  occ. eigenvalues --   -0.94690  -0.92651  -0.92027  -0.91698  -0.90625
 Alpha  occ. eigenvalues --   -0.90521  -0.89796  -0.89457  -0.89255  -0.88778
 Alpha  occ. eigenvalues --   -0.88193  -0.87282  -0.86698  -0.85168  -0.84912
 Alpha  occ. eigenvalues --   -0.84340  -0.83511  -0.82974  -0.82298  -0.82068
 Alpha  occ. eigenvalues --   -0.81786  -0.80352  -0.79497  -0.78740  -0.78151
 Alpha  occ. eigenvalues --   -0.78004  -0.77487  -0.77003  -0.76521  -0.76338
 Alpha  occ. eigenvalues --   -0.74991  -0.74580  -0.73547  -0.72131  -0.71370
 Alpha  occ. eigenvalues --   -0.70923  -0.70639  -0.68639  -0.68215  -0.67306
 Alpha  occ. eigenvalues --   -0.66815  -0.66680  -0.66651  -0.66425  -0.65946
 Alpha  occ. eigenvalues --   -0.65512  -0.65248  -0.64503  -0.63516  -0.61798
 Alpha  occ. eigenvalues --   -0.61523  -0.61402  -0.60957  -0.60020  -0.59748
 Alpha  occ. eigenvalues --   -0.59357  -0.58638  -0.57944  -0.57633  -0.57138
 Alpha  occ. eigenvalues --   -0.56903  -0.56811  -0.56445  -0.56359  -0.56107
 Alpha  occ. eigenvalues --   -0.55554  -0.55396  -0.55292  -0.54800  -0.54303
 Alpha  occ. eigenvalues --   -0.54134  -0.54037  -0.53674  -0.53493  -0.53237
 Alpha  occ. eigenvalues --   -0.53190  -0.53064  -0.52972  -0.52637  -0.52539
 Alpha  occ. eigenvalues --   -0.52212  -0.51799  -0.51645  -0.51389  -0.51265
 Alpha  occ. eigenvalues --   -0.51101  -0.51018  -0.50774  -0.50483  -0.50394
 Alpha  occ. eigenvalues --   -0.50069  -0.50007  -0.49674  -0.49659  -0.49408
 Alpha  occ. eigenvalues --   -0.49183  -0.48977  -0.48779  -0.48706  -0.48561
 Alpha  occ. eigenvalues --   -0.48505  -0.48171  -0.48047  -0.47861  -0.47649
 Alpha  occ. eigenvalues --   -0.47514  -0.47153  -0.46926  -0.46867  -0.46795
 Alpha  occ. eigenvalues --   -0.46645  -0.46408  -0.46180  -0.46007  -0.45934
 Alpha  occ. eigenvalues --   -0.45751  -0.45602  -0.45455  -0.44987  -0.44679
 Alpha  occ. eigenvalues --   -0.44525  -0.44325  -0.44307  -0.44095  -0.44033
 Alpha  occ. eigenvalues --   -0.43690  -0.43457  -0.43171  -0.42719  -0.42637
 Alpha  occ. eigenvalues --   -0.42580  -0.42234  -0.42081  -0.41921  -0.41808
 Alpha  occ. eigenvalues --   -0.41761  -0.41501  -0.41271  -0.40647  -0.40546
 Alpha  occ. eigenvalues --   -0.40500  -0.40242  -0.40183  -0.39562  -0.39529
 Alpha  occ. eigenvalues --   -0.39051  -0.38832  -0.38738  -0.38306  -0.37785
 Alpha  occ. eigenvalues --   -0.37523  -0.37331  -0.36880  -0.36188  -0.35981
 Alpha  occ. eigenvalues --   -0.35619  -0.35284  -0.34753  -0.33557  -0.33076
 Alpha  occ. eigenvalues --   -0.32752  -0.31815  -0.31022  -0.30689  -0.25489
 Alpha  occ. eigenvalues --   -0.22429
 Alpha virt. eigenvalues --   -0.06258   0.00685   0.02672   0.04147   0.04966
 Alpha virt. eigenvalues --    0.06881   0.07504   0.07665   0.08494   0.10483
 Alpha virt. eigenvalues --    0.10891   0.11733   0.12057   0.12287   0.12447

 Mulliken charges:
               1
     1  Mg   0.955376
     2  C    0.020779
     3  C   -0.049863
     4  C   -0.047966
     5  C   -0.100169
     6  N   -0.271630
     7  C   -0.043484
     8  C    0.009218
     9  C   -0.134759
    10  C    0.024664
    11  C    0.025231
    12  C    0.030779
    13  C   -0.009684
    14  C    0.211748
    15  O   -0.275567
    16  O   -0.366628
    17  N   -0.399653
    18  C    0.094372
    19  C   -0.136636
    20  C   -0.115079
    21  C    0.157299
    22  C    0.073318
    23  C    0.066305
    24  O   -0.265106
    25  C   -0.017296
    26  N   -0.361786
    27  C    0.020817
    28  C   -0.058399
    29  C   -0.068920
    30  C    0.029602
    31  C    0.001903
    32  C   -0.038463
    33  C   -0.048494
    34  N   -0.486074
    35  C    0.148036
    36  C   -0.165677
    37  C   -0.026833
    38  C    0.155320
    39  C    0.077999
    40  C    0.064460
    41  O   -0.151827
    42  C   -0.071600
    43  C    0.280099
    44  O   -0.304699
    45  O   -0.372049
    46  C    0.125482
    47  C    0.256535
    48  C   -0.171157
    49  C   -0.230368
    50  C    0.039035
    51  C    0.055526
    52  C   -0.061165
    53  C    0.005345
    54  C   -0.171060
    55  C    0.020846
    56  C    0.006387
    57  C   -0.016678
    58  C    0.010705
    59  C   -0.190645
    60  C   -0.011716
    61  C    0.042658
    62  C   -0.024046
    63  C    0.001663
    64  C   -0.202241
    65  C    0.004024
    66  C   -0.003383
    67  H   -0.037902
    68  H    0.018984
    69  H   -0.009200
    70  H    0.053919
    71  H    0.035879
    72  H    0.045481
    73  H    0.018888
    74  H    0.055394
    75  H    0.036326
    76  H    0.053359
    77  H    0.054983
    78  H    0.057827
    79  H    0.046968
    80  H    0.042838
    81  H    0.052826
    82  H    0.052081
    83  H    0.046672
    84  H    0.061514
    85  H    0.038688
    86  H    0.043508
    87  H    0.028566
    88  H    0.044613
    89  H    0.041135
    90  H    0.037394
    91  H    0.032903
    92  H    0.039065
    93  H    0.030993
    94  H    0.051492
    95  H    0.058501
    96  H    0.058826
    97  H    0.050255
    98  H    0.063816
    99  H    0.057642
   100  H    0.074168
   101  H    0.063049
   102  H    0.059015
   103  H    0.069117
   104  H    0.023565
   105  H    0.040175
   106  H    0.046744
   107  H    0.040191
   108  H    0.037593
   109  H    0.029778
   110  H    0.024787
   111  H    0.034572
   112  H    0.008263
   113  H    0.013897
   114  H    0.022617
   115  H    0.041605
   116  H    0.024537
   117  H    0.023392
   118  H    0.030577
   119  H    0.009950
   120  H    0.020083
   121  H    0.022031
   122  H    0.011945
   123  H    0.003161
   124  H    0.028368
   125  H    0.024996
   126  H    0.018409
   127  H    0.012729
   128  H    0.015338
   129  H    0.001010
   130  H    0.017834
   131  H    0.016120
   132  H   -0.001235
   133  H    0.003886
   134  H    0.018042
   135  H    0.028536
   136  H    0.014022
   137  H    0.045070
   138  H    0.027945
   139  H    0.022292
   140  H    0.022860
 Sum of Mulliken charges =  -0.00000

 Dipole moment (field-independent basis, Debye):
    X=             -4.7800    Y=              1.8000    Z=              2.4105  Tot=              5.6479
 Quadrupole moment (field-independent basis, Debye-Ang):
   XX=           -383.0976   YY=           -413.4860   ZZ=           -401.4706
   XY=             -6.0880   XZ=             24.2119   YZ=             -1.9480

 Normal termination of Gaussian 16 at Thu May  5 09:49:59 2022.
