 Gaussian 16, Revision A.03,
 Gaussian 16:  ES64L-G16RevA.03 25-Dec-2016

 --------------------
 #p ZINDO=(nstates=5)
 --------------------

 -----------------------------
 step_801_chromophore_16 ZINDO
 -----------------------------
 Symbolic Z-matrix:
 Charge =  0 Multiplicity = 1

                         Standard orientation:
 ---------------------------------------------------------------------
 Center     Atomic      Atomic             Coordinates (Angstroms)
 Number     Number       Type             X           Y           Z
 ---------------------------------------------------------------------
      1         12           0        6.411720    0.510746    0.486035
      2          6           0        4.023179   -1.977140    0.280528
      3          6           0        3.953158    2.656411   -0.931594
      4          6           0        8.707856    2.903202   -0.174454
      5          6           0        8.862197   -1.774454    0.857637
      6          7           0        4.101239    0.352520   -0.104549
      7          6           0        3.403199   -0.755163   -0.098450
      8          6           0        1.954410   -0.510423   -0.581499
      9          6           0        2.006457    1.000599   -0.993791
     10          6           0        3.440192    1.365809   -0.730106
     11          6           0        1.549856    1.216544   -2.413415
     12          6           0        0.879793   -0.838743    0.476879
     13          6           0       -0.557522   -0.386097    0.300522
     14          6           0       -1.514122   -1.504461   -0.397991
     15          8           0       -1.248629   -2.351102   -1.243196
     16          8           0       -2.773385   -1.535206    0.089069
     17          7           0        6.265635    2.554717   -0.300977
     18          6           0        5.143000    3.288368   -0.680128
     19          6           0        5.485235    4.680398   -0.911941
     20          6           0        6.894549    4.706922   -0.655858
     21          6           0        7.344603    3.318898   -0.422446
     22          6           0        4.488630    5.714350   -1.386798
     23          6           0        7.884854    5.906744   -0.641544
     24          8           0        9.120822    5.828802   -0.436391
     25          6           0        7.298647    7.310460   -0.871892
     26          7           0        8.543069    0.525301    0.144011
     27          6           0        9.255473    1.685429    0.042512
     28          6           0       10.706555    1.408099    0.465381
     29          6           0       10.729666   -0.103158    0.894173
     30          6           0        9.246545   -0.430702    0.738518
     31          6           0       11.807744    1.797111   -0.590255
     32          6           0       11.395418   -0.446762    2.336860
     33          6           0       10.442903   -0.680161    3.513991
     34          7           0        6.515305   -1.457204    0.735746
     35          6           0        7.535433   -2.319768    0.868291
     36          6           0        7.058575   -3.712140    0.958221
     37          6           0        5.696868   -3.614336    0.750033
     38          6           0        5.369159   -2.201739    0.635742
     39          6           0        7.972672   -4.900632    1.040594
     40          6           0        4.513433   -4.360978    0.684944
     41          8           0        4.353563   -5.524788    0.800567
     42          6           0        3.350676   -3.369549    0.389744
     43          6           0        2.671364   -3.825627   -0.864077
     44          8           0        3.159775   -3.557177   -2.008830
     45          8           0        1.559572   -4.629357   -0.683359
     46          6           0        0.853150   -5.086437   -1.944800
     47          6           0       -3.777464   -2.483096   -0.549533
     48          6           0       -5.163662   -2.017037   -0.217351
     49          6           0       -6.349522   -2.718835   -0.197545
     50          6           0       -6.367823   -4.174809   -0.735706
     51          6           0       -7.618717   -2.127946    0.403697
     52          6           0       -8.338705   -1.373436   -0.744084
     53          6           0       -9.061262   -0.146984   -0.297495
     54          6           0      -10.170833    0.312471   -1.337679
     55          6           0       -9.770140    1.629272   -1.994519
     56          6           0      -11.617525    0.292981   -0.653638
     57          6           0      -12.614309   -0.530477   -1.453312
     58          6           0      -13.881634    0.249296   -1.686085
     59          6           0      -14.765678    0.392771   -0.425938
     60          6           0      -15.893372   -0.658900   -0.582742
     61          6           0      -15.464092    1.762544   -0.296169
     62          6           0      -15.627803    2.126086    1.188351
     63          6           0      -14.539067    2.997692    1.761768
     64          6           0      -13.778018    2.490250    2.981806
     65          6           0      -12.241251    2.785522    2.799507
     66          6           0      -14.391859    2.965032    4.301299
     67          1           0        3.257995    3.372039   -1.376322
     68          1           0        9.538625    3.608655   -0.105433
     69          1           0        9.739472   -2.407492    1.005010
     70          1           0        1.890432   -1.061564   -1.518821
     71          1           0        1.527706    1.736614   -0.347800
     72          1           0        2.422740    1.165122   -3.063621
     73          1           0        1.283238    2.270676   -2.495465
     74          1           0        0.679619    0.651391   -2.747603
     75          1           0        1.266209   -0.481581    1.431384
     76          1           0        0.681986   -1.910381    0.482021
     77          1           0       -0.708891    0.537523   -0.257903
     78          1           0       -0.945665   -0.105270    1.279512
     79          1           0        4.418363    6.410299   -0.551005
     80          1           0        3.486787    5.342346   -1.602282
     81          1           0        4.854723    6.324157   -2.212196
     82          1           0        6.654161    7.396774   -1.746425
     83          1           0        8.105211    8.025972   -1.026886
     84          1           0        6.893394    7.497139    0.123383
     85          1           0       10.907602    1.983040    1.369663
     86          1           0       11.198606   -0.782083    0.181748
     87          1           0       12.764233    1.281291   -0.508875
     88          1           0       12.071495    2.849046   -0.470849
     89          1           0       11.538697    1.645685   -1.635947
     90          1           0       12.051135    0.386812    2.587306
     91          1           0       11.960307   -1.371728    2.219901
     92          1           0       10.763705   -0.087665    4.371406
     93          1           0       10.548178   -1.731531    3.782565
     94          1           0        9.393146   -0.508054    3.278599
     95          1           0        7.401409   -5.612025    0.443953
     96          1           0        8.024138   -5.319389    2.045640
     97          1           0        8.956108   -4.732746    0.602008
     98          1           0        2.670459   -3.576735    1.215250
     99          1           0        1.442397   -4.808333   -2.819106
    100          1           0       -0.072088   -4.544320   -2.142270
    101          1           0        0.781840   -6.173782   -1.941836
    102          1           0       -3.674321   -3.488349   -0.143203
    103          1           0       -3.685275   -2.524308   -1.635561
    104          1           0       -5.145356   -0.969438    0.086227
    105          1           0       -6.667582   -4.761328    0.133446
    106          1           0       -5.413873   -4.522853   -1.131666
    107          1           0       -7.228608   -4.214106   -1.402803
    108          1           0       -7.289497   -1.429581    1.172896
    109          1           0       -8.290105   -2.907135    0.766470
    110          1           0       -9.006894   -2.142782   -1.129338
    111          1           0       -7.658796   -1.001729   -1.510441
    112          1           0       -8.338009    0.659997   -0.186206
    113          1           0       -9.413177   -0.312410    0.720148
    114          1           0      -10.139596   -0.515743   -2.045708
    115          1           0       -9.226110    2.328617   -1.359639
    116          1           0      -10.617251    2.122479   -2.471149
    117          1           0       -9.155868    1.338716   -2.847064
    118          1           0      -12.042359    1.244442   -0.336319
    119          1           0      -11.517887   -0.300342    0.256102
    120          1           0      -12.846811   -1.486747   -0.982510
    121          1           0      -12.209100   -0.680012   -2.454097
    122          1           0      -14.496749   -0.176467   -2.478156
    123          1           0      -13.607189    1.239185   -2.051462
    124          1           0      -14.227277    0.125073    0.483706
    125          1           0      -16.814715   -0.347170   -1.076687
    126          1           0      -16.286804   -1.186470    0.285813
    127          1           0      -15.537743   -1.491293   -1.190505
    128          1           0      -16.449430    1.847189   -0.753078
    129          1           0      -14.919652    2.535907   -0.838040
    130          1           0      -15.789631    1.187338    1.717363
    131          1           0      -16.488959    2.769037    1.373561
    132          1           0      -14.964801    3.897049    2.206072
    133          1           0      -13.933232    3.459297    0.982043
    134          1           0      -13.987936    1.425031    2.887846
    135          1           0      -11.794529    1.816240    2.574776
    136          1           0      -11.808986    3.003223    3.776145
    137          1           0      -11.947528    3.545268    2.076196
    138          1           0      -15.400815    3.374928    4.269449
    139          1           0      -13.779319    3.699440    4.824439
    140          1           0      -14.463228    2.164621    5.038355
 ---------------------------------------------------------------------

 SCF Done:  E(RZINDO/S) =  -474.265761587     A.U. after   19 cycles

 Excitation energies and oscillator strengths:

 Excited State   1:      Singlet-A      1.3006 eV  953.32 nm  f=0.5373  <S**2>=0.000
     175 ->178         0.18060
     176 ->177         0.66491
 This state for optimization and/or second-order correction.
 Total Energy, E(CIS/TDA) =  -474.217967139
 Copying the excited state density for this state as the 1-particle RhoCI density.

 Excited State   2:      Singlet-A      1.9327 eV  641.52 nm  f=0.0275  <S**2>=0.000
     175 ->177         0.52819
     176 ->178        -0.43768

 Excited State   3:      Singlet-A      2.8710 eV  431.85 nm  f=0.1744  <S**2>=0.000
     168 ->177         0.27283
     168 ->178        -0.11737
     168 ->179        -0.26864
     168 ->183         0.11883
     168 ->186         0.11502
     175 ->177         0.13990
     176 ->178         0.18062
     176 ->180         0.45143

 Excited State   4:      Singlet-A      2.8789 eV  430.67 nm  f=0.0050  <S**2>=0.000
     168 ->177        -0.27832
     168 ->178         0.12537
     168 ->179         0.27567
     168 ->183        -0.12048
     168 ->186        -0.12163
     176 ->180         0.49273

 Excited State   5:      Singlet-A      2.9292 eV  423.26 nm  f=0.8881  <S**2>=0.000
     175 ->177         0.34665
     176 ->178         0.46730
     176 ->179         0.23480
     176 ->180        -0.20205

 The electronic state is 1-A.
 Alpha  occ. eigenvalues --   -1.85572  -1.81262  -1.79903  -1.72257  -1.71398
 Alpha  occ. eigenvalues --   -1.69536  -1.67043  -1.61766  -1.60659  -1.56449
 Alpha  occ. eigenvalues --   -1.54361  -1.50743  -1.49242  -1.48055  -1.45993
 Alpha  occ. eigenvalues --   -1.42694  -1.40856  -1.40220  -1.39616  -1.38795
 Alpha  occ. eigenvalues --   -1.36039  -1.34580  -1.33077  -1.30966  -1.28322
 Alpha  occ. eigenvalues --   -1.28069  -1.24617  -1.21265  -1.20130  -1.18152
 Alpha  occ. eigenvalues --   -1.17624  -1.16662  -1.14642  -1.14543  -1.12669
 Alpha  occ. eigenvalues --   -1.12474  -1.11400  -1.09550  -1.04963  -1.04677
 Alpha  occ. eigenvalues --   -1.01574  -1.01250  -0.99791  -0.97922  -0.97775
 Alpha  occ. eigenvalues --   -0.96481  -0.94852  -0.94371  -0.93372  -0.92471
 Alpha  occ. eigenvalues --   -0.90411  -0.89810  -0.89320  -0.87622  -0.86881
 Alpha  occ. eigenvalues --   -0.85363  -0.83984  -0.82876  -0.80865  -0.80291
 Alpha  occ. eigenvalues --   -0.79232  -0.78186  -0.78023  -0.77877  -0.76288
 Alpha  occ. eigenvalues --   -0.76044  -0.75105  -0.74806  -0.74128  -0.73742
 Alpha  occ. eigenvalues --   -0.73563  -0.72736  -0.72585  -0.71532  -0.71161
 Alpha  occ. eigenvalues --   -0.70682  -0.69215  -0.68892  -0.68333  -0.68067
 Alpha  occ. eigenvalues --   -0.66510  -0.66254  -0.65733  -0.65505  -0.64570
 Alpha  occ. eigenvalues --   -0.64247  -0.64177  -0.63591  -0.63536  -0.63220
 Alpha  occ. eigenvalues --   -0.62933  -0.62678  -0.62469  -0.62128  -0.61779
 Alpha  occ. eigenvalues --   -0.61361  -0.61282  -0.60450  -0.60163  -0.59886
 Alpha  occ. eigenvalues --   -0.59748  -0.59305  -0.58791  -0.58386  -0.57981
 Alpha  occ. eigenvalues --   -0.57675  -0.57455  -0.56547  -0.56423  -0.56212
 Alpha  occ. eigenvalues --   -0.55665  -0.55354  -0.55253  -0.55147  -0.55036
 Alpha  occ. eigenvalues --   -0.54339  -0.54250  -0.53941  -0.53493  -0.53069
 Alpha  occ. eigenvalues --   -0.52886  -0.52496  -0.52184  -0.51706  -0.50773
 Alpha  occ. eigenvalues --   -0.50677  -0.50483  -0.50234  -0.50092  -0.50032
 Alpha  occ. eigenvalues --   -0.49682  -0.49360  -0.49287  -0.48962  -0.48730
 Alpha  occ. eigenvalues --   -0.48533  -0.48310  -0.48088  -0.47886  -0.47651
 Alpha  occ. eigenvalues --   -0.47568  -0.47330  -0.47213  -0.47016  -0.46769
 Alpha  occ. eigenvalues --   -0.46555  -0.45730  -0.45623  -0.45317  -0.45307
 Alpha  occ. eigenvalues --   -0.45064  -0.45030  -0.44392  -0.44353  -0.43590
 Alpha  occ. eigenvalues --   -0.43379  -0.43130  -0.42610  -0.42405  -0.42049
 Alpha  occ. eigenvalues --   -0.41862  -0.41033  -0.40750  -0.38751  -0.38306
 Alpha  occ. eigenvalues --   -0.37794  -0.37033  -0.35306  -0.34856  -0.34005
 Alpha  occ. eigenvalues --   -0.33625  -0.32135  -0.31334  -0.30673  -0.26249
 Alpha  occ. eigenvalues --   -0.21299
 Alpha virt. eigenvalues --   -0.07687  -0.01726  -0.00224   0.00778   0.01574
 Alpha virt. eigenvalues --    0.01952   0.02415   0.03282   0.04544   0.05370
 Alpha virt. eigenvalues --    0.06531   0.06926   0.07432   0.07970   0.08131

 Mulliken charges:
               1
     1  Mg   0.441665
     2  C   -0.050204
     3  C   -0.048776
     4  C   -0.061501
     5  C   -0.106395
     6  N   -0.265793
     7  C    0.152231
     8  C    0.010757
     9  C    0.003009
    10  C    0.073888
    11  C   -0.051164
    12  C   -0.018166
    13  C    0.014749
    14  C    0.454104
    15  O   -0.523182
    16  O   -0.274417
    17  N   -0.312398
    18  C    0.056873
    19  C   -0.002735
    20  C   -0.076037
    21  C    0.141391
    22  C   -0.037336
    23  C    0.314905
    24  O   -0.546587
    25  C   -0.037159
    26  N   -0.275374
    27  C    0.107865
    28  C    0.012142
    29  C   -0.010977
    30  C    0.176478
    31  C   -0.053717
    32  C   -0.031931
    33  C   -0.055055
    34  N   -0.317736
    35  C    0.135857
    36  C    0.050482
    37  C   -0.029084
    38  C    0.108268
    39  C   -0.038115
    40  C    0.350702
    41  O   -0.500703
    42  C    0.051793
    43  C    0.484183
    44  O   -0.549907
    45  O   -0.259919
    46  C    0.067998
    47  C    0.113764
    48  C   -0.108744
    49  C   -0.017156
    50  C   -0.049095
    51  C   -0.018102
    52  C   -0.027014
    53  C   -0.039396
    54  C   -0.016523
    55  C   -0.051296
    56  C   -0.039543
    57  C   -0.029762
    58  C   -0.030140
    59  C   -0.002529
    60  C   -0.063831
    61  C   -0.030568
    62  C   -0.033553
    63  C   -0.038234
    64  C   -0.006132
    65  C   -0.059881
    66  C   -0.052813
    67  H    0.011761
    68  H    0.046114
    69  H    0.021785
    70  H    0.052531
    71  H    0.030858
    72  H    0.029535
    73  H    0.004271
    74  H    0.029362
    75  H    0.026160
    76  H    0.031695
    77  H    0.041383
    78  H    0.034869
    79  H    0.023284
    80  H    0.030064
    81  H    0.029678
    82  H    0.039608
    83  H    0.030204
    84  H    0.044608
    85  H    0.031308
    86  H    0.036134
    87  H    0.014720
    88  H    0.021531
    89  H    0.024712
    90  H    0.024457
    91  H    0.020959
    92  H    0.020268
    93  H    0.014604
    94  H    0.028966
    95  H    0.035072
    96  H    0.040814
    97  H    0.034694
    98  H    0.055856
    99  H    0.046327
   100  H    0.053949
   101  H    0.044004
   102  H    0.050005
   103  H    0.058376
   104  H    0.022858
   105  H    0.023597
   106  H    0.037217
   107  H    0.030378
   108  H    0.028226
   109  H    0.029063
   110  H    0.019465
   111  H    0.025597
   112  H    0.012964
   113  H    0.016470
   114  H    0.026044
   115  H    0.028993
   116  H    0.014353
   117  H    0.012659
   118  H    0.031784
   119  H    0.008726
   120  H    0.023571
   121  H    0.013024
   122  H    0.014046
   123  H    0.010408
   124  H    0.031085
   125  H    0.018431
   126  H    0.011439
   127  H    0.004995
   128  H    0.018608
   129  H    0.012515
   130  H    0.023150
   131  H    0.011754
   132  H    0.005074
   133  H    0.018537
   134  H    0.019107
   135  H    0.014057
   136  H    0.013288
   137  H    0.033277
   138  H    0.020772
   139  H    0.015893
   140  H    0.009626
 Sum of Mulliken charges =  -0.00000

 Dipole moment (field-independent basis, Debye):
    X=             -5.5367    Y=              1.1709    Z=              4.5915  Tot=              7.2875
 N-N= 4.189750329057D+03 E-N= 0.000000000000D+00  KE=-9.054265047236D+03
 Leave Link  601 at Thu May  5 10:05:43 2022, MaxMem=  6710886400 cpu:               1.9 elap:               0.1
 (Enter /sw/apps/gaussian-16.0/g16/l9999.exe)
 1\1\GINC-BP1-COMPUTE132\SP\RZINDO CIS\STO-3G\C55H74Mg1N4O6\OF15641\05-
 May-2022\0\\#p ZINDO=(nstates=5)\\step_801_chromophore_16 ZINDO\\0,1\M
 g,0,41.162,41.718,26.64\C,0,40.305,43.696,29.34\C,0,42.412,39.405,29.0
 37\C,0,42.803,39.959,24.264\C,0,40.877,44.339,24.539\N,0,41.176,41.523
 ,29.022\C,0,40.783,42.458,29.85\C,0,40.971,42.022,31.322\C,0,41.691,40
 .64,31.156\C,0,41.836,40.52,29.665\C,0,42.986,40.58,31.924\C,0,39.655,
 41.955,32.126\C,0,39.597,41.269,33.478\C,0,39.815,42.282,34.735\O,0,40

 Normal termination of Gaussian 16 at Thu May  5 10:05:43 2022.
