 Gaussian 16, Revision A.03,
 Gaussian 16:  ES64L-G16RevA.03 25-Dec-2016

 ------------------------------
 #p blyp/Def2SVP td=(nstates=5)
 ------------------------------

 --------------------------------------------------
 step_651_chromophore_27 TDDFT with blyp functional
 --------------------------------------------------
 Symbolic Z-matrix:
 Charge =  0 Multiplicity = 1

                         Standard orientation:
 ---------------------------------------------------------------------
 Center     Atomic      Atomic             Coordinates (Angstroms)
 Number     Number       Type             X           Y           Z
 ---------------------------------------------------------------------
      1         12           0       -4.648423    0.877903    0.095339
      2          6           0       -3.819401   -2.516685    0.617267
      3          6           0       -1.229686    1.501036    0.569866
      4          6           0       -5.354091    4.033463   -0.180491
      5          6           0       -7.987789   -0.047738    0.217752
      6          7           0       -2.703352   -0.425528    0.480171
      7          6           0       -2.643062   -1.766195    0.560618
      8          6           0       -1.207564   -2.240138    0.395017
      9          6           0       -0.418621   -0.929962    0.633293
     10          6           0       -1.486183    0.102632    0.586667
     11          6           0        0.478488   -0.653423    1.977786
     12          6           0       -0.916174   -2.899882   -1.000435
     13          6           0        0.044496   -4.114379   -1.016318
     14          6           0        1.208097   -4.009719   -2.000887
     15          8           0        1.092062   -3.822559   -3.199547
     16          8           0        2.387172   -4.275401   -1.424138
     17          7           0       -3.438400    2.487928    0.029899
     18          6           0       -2.069091    2.574105    0.207033
     19          6           0       -1.589173    3.913263   -0.054601
     20          6           0       -2.724279    4.716810   -0.368608
     21          6           0       -3.926828    3.740135   -0.216973
     22          6           0       -0.145809    4.273604   -0.099807
     23          6           0       -2.824299    6.171112   -0.736065
     24          8           0       -3.899902    6.732201   -0.938706
     25          6           0       -1.568909    6.963900   -0.857396
     26          7           0       -6.498544    1.862133    0.269901
     27          6           0       -6.512849    3.236885   -0.092034
     28          6           0       -7.972068    3.717865   -0.336819
     29          6           0       -8.806037    2.374959   -0.181040
     30          6           0       -7.708920    1.291465    0.079037
     31          6           0       -8.441754    4.794991    0.628274
     32          6           0       -9.609614    2.101270   -1.492118
     33          6           0      -10.815607    2.957523   -1.489179
     34          7           0       -5.713882   -0.848436    0.384957
     35          6           0       -7.077294   -1.091461    0.404895
     36          6           0       -7.342361   -2.520571    0.600628
     37          6           0       -6.033652   -3.087953    0.657917
     38          6           0       -5.153103   -2.070002    0.617120
     39          6           0       -8.641037   -3.250392    0.597591
     40          6           0       -5.356654   -4.364238    0.764445
     41          8           0       -5.932192   -5.439258    0.886172
     42          6           0       -3.843021   -4.027553    0.577240
     43          6           0       -3.060615   -4.741285    1.650251
     44          8           0       -3.173188   -4.613201    2.852379
     45          8           0       -2.051672   -5.503159    1.036813
     46          6           0       -1.326616   -6.235521    2.114497
     47          6           0        3.591923   -4.418583   -2.328132
     48          6           0        4.302796   -3.031534   -2.483954
     49          6           0        5.354025   -2.471710   -1.761928
     50          6           0        5.947914   -3.255951   -0.617057
     51          6           0        5.901620   -1.064112   -2.107142
     52          6           0        6.544948   -0.969067   -3.521727
     53          6           0        8.088169   -0.670894   -3.408259
     54          6           0        8.435697    0.744147   -3.899648
     55          6           0        8.501955    0.936041   -5.388039
     56          6           0        9.815689    1.267259   -3.313944
     57          6           0        9.671469    2.375920   -2.261538
     58          6           0       10.498491    2.099376   -0.965694
     59          6           0        9.649513    1.780983    0.270661
     60          6           0        8.964593    0.346428    0.101603
     61          6           0       10.442235    1.798983    1.662175
     62          6           0        9.655423    2.358130    2.835384
     63          6           0        9.414342    1.233869    3.951900
     64          6           0        9.348524    1.792135    5.411334
     65          6           0       10.425274    1.232411    6.342274
     66          6           0        8.063512    1.576420    6.181342
     67          1           0       -0.181579    1.798595    0.636821
     68          1           0       -5.478412    5.105416   -0.350218
     69          1           0       -9.032447   -0.352513    0.123500
     70          1           0       -0.850872   -2.920097    1.169211
     71          1           0        0.237782   -0.744949   -0.216509
     72          1           0        0.655095   -1.449953    2.700503
     73          1           0        0.042544    0.180104    2.530176
     74          1           0        1.472666   -0.294872    1.710870
     75          1           0       -0.716536   -2.120603   -1.736105
     76          1           0       -1.891075   -3.203241   -1.382229
     77          1           0       -0.564232   -4.998397   -1.205880
     78          1           0        0.453269   -4.255929   -0.016529
     79          1           0       -0.150064    4.699557   -1.103065
     80          1           0        0.662871    3.551976    0.014709
     81          1           0       -0.053268    5.133157    0.564849
     82          1           0       -0.905561    6.436760   -1.542494
     83          1           0       -1.129561    7.094719    0.131627
     84          1           0       -1.784188    7.928609   -1.317757
     85          1           0       -8.202805    4.050932   -1.348066
     86          1           0       -9.449322    2.484870    0.692874
     87          1           0       -9.185649    5.485147    0.230544
     88          1           0       -7.596125    5.287587    1.107982
     89          1           0       -8.869510    4.328659    1.516166
     90          1           0       -9.897766    1.050486   -1.510470
     91          1           0       -9.043541    2.408287   -2.370495
     92          1           0      -11.268874    3.048909   -0.501758
     93          1           0      -11.583209    2.555952   -2.150370
     94          1           0      -10.779766    3.927425   -1.985560
     95          1           0       -8.851454   -3.797608   -0.322360
     96          1           0       -9.562390   -2.680041    0.711754
     97          1           0       -8.561823   -3.963679    1.418139
     98          1           0       -3.535649   -4.439487   -0.383631
     99          1           0       -1.941677   -6.641164    2.917793
    100          1           0       -0.576886   -5.596634    2.580195
    101          1           0       -0.920938   -7.181806    1.756691
    102          1           0        3.354627   -4.835453   -3.306748
    103          1           0        4.332248   -5.046921   -1.832853
    104          1           0        4.000909   -2.493506   -3.382265
    105          1           0        6.859989   -3.772749   -0.917861
    106          1           0        5.271978   -4.017126   -0.227041
    107          1           0        6.241418   -2.494990    0.105252
    108          1           0        6.580994   -0.743526   -1.317724
    109          1           0        5.155393   -0.271239   -2.054986
    110          1           0        6.134083   -0.132333   -4.086732
    111          1           0        6.475761   -1.931751   -4.028270
    112          1           0        8.620550   -1.397306   -4.023708
    113          1           0        8.497521   -0.934862   -2.432748
    114          1           0        7.671628    1.433327   -3.538587
    115          1           0        9.192649    1.683501   -5.776595
    116          1           0        7.471914    1.186459   -5.643478
    117          1           0        8.624457   -0.020322   -5.896023
    118          1           0       10.358867    1.725832   -4.140024
    119          1           0       10.438438    0.451741   -2.946011
    120          1           0        8.664678    2.314398   -1.850999
    121          1           0        9.796634    3.389506   -2.642261
    122          1           0       11.052940    3.018990   -0.780789
    123          1           0       11.231814    1.292899   -0.997420
    124          1           0        8.902105    2.561923    0.410306
    125          1           0        7.945502    0.482337   -0.260666
    126          1           0        8.826884   -0.005363    1.124100
    127          1           0        9.435537   -0.221489   -0.701189
    128          1           0       11.357680    2.380400    1.550276
    129          1           0       10.845751    0.799913    1.823301
    130          1           0        8.664207    2.664089    2.501073
    131          1           0       10.245458    3.181821    3.238895
    132          1           0       10.132880    0.413954    3.958422
    133          1           0        8.484416    0.781149    3.608351
    134          1           0        9.550218    2.861661    5.357751
    135          1           0       10.360434    1.902720    7.199366
    136          1           0       11.435290    1.183839    5.933440
    137          1           0       10.181990    0.223677    6.676194
    138          1           0        7.919980    0.499763    6.273178
    139          1           0        7.243408    1.941100    5.562352
    140          1           0        7.939605    1.982253    7.185259
 ---------------------------------------------------------------------

 SCF Done:  E(RB-LYP) =  -3007.38166706     A.U. after   21 cycles

 Excitation energies and oscillator strengths:

 Excited State   1:      Singlet-A      1.8057 eV  686.62 nm  f=0.2800  <S**2>=0.000
     245 -> 248        0.19475
     246 -> 247        0.68554
     246 <- 247       -0.14660
 This state for optimization and/or second-order correction.
 Total Energy, E(TD-HF/TD-DFT) =  -3007.31530842
 Copying the excited state density for this state as the 1-particle RhoCI density.

 Excited State   2:      Singlet-A      1.9977 eV  620.65 nm  f=0.0440  <S**2>=0.000
     244 -> 247        0.43406
     245 -> 247        0.51355
     246 -> 248       -0.17626

 Excited State   3:      Singlet-A      2.0655 eV  600.27 nm  f=0.0139  <S**2>=0.000
     243 -> 247        0.49931
     244 -> 247        0.41999
     245 -> 247       -0.23851
     246 -> 248        0.10845

 Excited State   4:      Singlet-A      2.0774 eV  596.84 nm  f=0.0217  <S**2>=0.000
     243 -> 247        0.49494
     244 -> 247       -0.36361
     245 -> 247        0.30242
     246 -> 248       -0.15206

 Excited State   5:      Singlet-A      2.3855 eV  519.75 nm  f=0.0006  <S**2>=0.000
     241 -> 247        0.55367
     242 -> 247       -0.43955

 The electronic state is 1-A.
 Alpha  occ. eigenvalues --  -46.26965 -18.82881 -18.82116 -18.77450 -18.75773
 Alpha  occ. eigenvalues --  -18.75746 -18.75539 -14.02859 -14.02779 -14.01656
 Alpha  occ. eigenvalues --  -14.00559 -10.04201 -10.03552  -9.99877  -9.99445
 Alpha  occ. eigenvalues --   -9.98743  -9.97478  -9.97088  -9.97033  -9.96156
 Alpha  occ. eigenvalues --   -9.96057  -9.95884  -9.95834  -9.95185  -9.94646
 Alpha  occ. eigenvalues --   -9.94275  -9.94204  -9.94198  -9.94189  -9.93877
 Alpha  occ. eigenvalues --   -9.93752  -9.93679  -9.93568  -9.93492  -9.93427
 Alpha  occ. eigenvalues --   -9.93415  -9.93333  -9.93255  -9.92962  -9.92936
 Alpha  occ. eigenvalues --   -9.92911  -9.92687  -9.92507  -9.92488  -9.92365
 Alpha  occ. eigenvalues --   -9.92357  -9.92239  -9.92188  -9.92053  -9.92034
 Alpha  occ. eigenvalues --   -9.92024  -9.91957  -9.91890  -9.91744  -9.91651
 Alpha  occ. eigenvalues --   -9.91625  -9.91565  -9.91446  -9.91310  -9.91099
 Alpha  occ. eigenvalues --   -9.91087  -9.90998  -9.90897  -9.90836  -9.90699
 Alpha  occ. eigenvalues --   -9.90137  -2.91679  -1.72092  -1.71592  -1.71374
 Alpha  occ. eigenvalues --   -0.97866  -0.97629  -0.91275  -0.91170  -0.90062
 Alpha  occ. eigenvalues --   -0.88997  -0.87416  -0.85728  -0.85141  -0.84107
 Alpha  occ. eigenvalues --   -0.76111  -0.73629  -0.72778  -0.72462  -0.72422
 Alpha  occ. eigenvalues --   -0.72237  -0.72080  -0.71133  -0.70936  -0.70700
 Alpha  occ. eigenvalues --   -0.69327  -0.68805  -0.68190  -0.67619  -0.67230
 Alpha  occ. eigenvalues --   -0.66618  -0.66243  -0.65445  -0.64847  -0.64318
 Alpha  occ. eigenvalues --   -0.64211  -0.62725  -0.62339  -0.61561  -0.60875
 Alpha  occ. eigenvalues --   -0.60803  -0.60030  -0.59799  -0.59729  -0.59168
 Alpha  occ. eigenvalues --   -0.58334  -0.57540  -0.56870  -0.55924  -0.54323
 Alpha  occ. eigenvalues --   -0.53945  -0.53853  -0.53073  -0.52874  -0.51574
 Alpha  occ. eigenvalues --   -0.51048  -0.50989  -0.50490  -0.50341  -0.50302
 Alpha  occ. eigenvalues --   -0.49610  -0.49526  -0.48980  -0.48464  -0.46571
 Alpha  occ. eigenvalues --   -0.46355  -0.45456  -0.45304  -0.45264  -0.44782
 Alpha  occ. eigenvalues --   -0.44432  -0.44187  -0.43436  -0.42400  -0.42221
 Alpha  occ. eigenvalues --   -0.41984  -0.41896  -0.41735  -0.41473  -0.41291
 Alpha  occ. eigenvalues --   -0.41110  -0.40871  -0.40756  -0.40570  -0.40293
 Alpha  occ. eigenvalues --   -0.40076  -0.39907  -0.39693  -0.39297  -0.39098
 Alpha  occ. eigenvalues --   -0.38919  -0.38742  -0.38635  -0.38345  -0.38189
 Alpha  occ. eigenvalues --   -0.38133  -0.38066  -0.37919  -0.37301  -0.37115
 Alpha  occ. eigenvalues --   -0.36998  -0.36915  -0.36726  -0.36651  -0.36389
 Alpha  occ. eigenvalues --   -0.36137  -0.35797  -0.35690  -0.35572  -0.35522
 Alpha  occ. eigenvalues --   -0.35303  -0.35228  -0.35104  -0.35031  -0.34796
 Alpha  occ. eigenvalues --   -0.34657  -0.34437  -0.34286  -0.33972  -0.33841
 Alpha  occ. eigenvalues --   -0.33651  -0.33590  -0.33405  -0.33242  -0.33051
 Alpha  occ. eigenvalues --   -0.32954  -0.32742  -0.32694  -0.32550  -0.32388
 Alpha  occ. eigenvalues --   -0.32218  -0.32017  -0.31820  -0.31750  -0.31508
 Alpha  occ. eigenvalues --   -0.31363  -0.31188  -0.31113  -0.30976  -0.30901
 Alpha  occ. eigenvalues --   -0.30762  -0.30710  -0.30469  -0.30252  -0.30095
 Alpha  occ. eigenvalues --   -0.30086  -0.29990  -0.29790  -0.29609  -0.29348
 Alpha  occ. eigenvalues --   -0.28682  -0.28435  -0.28373  -0.27892  -0.27877
 Alpha  occ. eigenvalues --   -0.27726  -0.27062  -0.27046  -0.26995  -0.26801
 Alpha  occ. eigenvalues --   -0.26571  -0.26467  -0.26208  -0.25985  -0.25875
 Alpha  occ. eigenvalues --   -0.25412  -0.25006  -0.24627  -0.23902  -0.23682
 Alpha  occ. eigenvalues --   -0.23635  -0.22717  -0.21825  -0.21338  -0.20913
 Alpha  occ. eigenvalues --   -0.20126  -0.20112  -0.18878  -0.18760  -0.17180
 Alpha  occ. eigenvalues --   -0.15654
 Alpha virt. eigenvalues --   -0.11356  -0.07159  -0.05986  -0.04553  -0.04072
 Alpha virt. eigenvalues --   -0.03135  -0.02113  -0.02044  -0.01403   0.00037
 Alpha virt. eigenvalues --    0.01147   0.01591   0.02378   0.02701   0.02805

 Mulliken charges:
               1
     1  Mg   0.703871
     2  C   -0.013991
     3  C   -0.058611
     4  C   -0.014483
     5  C   -0.092454
     6  N   -0.137006
     7  C   -0.111934
     8  C    0.038934
     9  C    0.026111
    10  C   -0.020101
    11  C    0.103613
    12  C    0.132888
    13  C    0.154261
    14  C    0.054928
    15  O   -0.202031
    16  O   -0.251694
    17  N   -0.312155
    18  C    0.124499
    19  C   -0.152229
    20  C    0.020519
    21  C    0.056686
    22  C    0.205193
    23  C   -0.090860
    24  O   -0.163957
    25  C    0.135394
    26  N   -0.264625
    27  C    0.067352
    28  C    0.025493
    29  C   -0.002008
    30  C    0.068734
    31  C    0.140709
    32  C    0.113659
    33  C    0.063417
    34  N   -0.275554
    35  C    0.131214
    36  C   -0.153211
    37  C    0.064929
    38  C    0.139477
    39  C    0.155726
    40  C   -0.059807
    41  O   -0.129703
    42  C    0.076520
    43  C    0.102212
    44  O   -0.161558
    45  O   -0.292248
    46  C    0.214658
    47  C    0.326534
    48  C   -0.117595
    49  C   -0.168372
    50  C    0.132945
    51  C    0.154378
    52  C    0.090092
    53  C    0.088612
    54  C   -0.086941
    55  C    0.129142
    56  C    0.111208
    57  C    0.085580
    58  C    0.088757
    59  C   -0.115439
    60  C    0.088034
    61  C    0.086220
    62  C    0.080609
    63  C    0.078067
    64  C   -0.045886
    65  C    0.091244
    66  C    0.088406
    67  H   -0.082641
    68  H   -0.041621
    69  H   -0.068263
    70  H   -0.027767
    71  H   -0.018220
    72  H   -0.000425
    73  H   -0.002960
    74  H   -0.013047
    75  H   -0.023353
    76  H   -0.038276
    77  H    0.020333
    78  H   -0.018830
    79  H    0.004461
    80  H    0.006978
    81  H   -0.002536
    82  H   -0.003264
    83  H    0.018466
    84  H   -0.009635
    85  H   -0.017120
    86  H   -0.016708
    87  H    0.000363
    88  H   -0.011606
    89  H   -0.033518
    90  H   -0.019446
    91  H   -0.019684
    92  H   -0.012009
    93  H   -0.030393
    94  H   -0.012741
    95  H    0.005688
    96  H   -0.024175
    97  H    0.015024
    98  H    0.008773
    99  H    0.019088
   100  H    0.013055
   101  H    0.007359
   102  H    0.007354
   103  H   -0.010987
   104  H   -0.024534
   105  H    0.002709
   106  H    0.010485
   107  H   -0.007140
   108  H   -0.047280
   109  H   -0.019696
   110  H   -0.021534
   111  H   -0.015114
   112  H   -0.047492
   113  H   -0.049684
   114  H   -0.036172
   115  H   -0.001341
   116  H   -0.030561
   117  H   -0.026519
   118  H   -0.045766
   119  H   -0.031830
   120  H   -0.036046
   121  H   -0.022854
   122  H   -0.046154
   123  H   -0.027228
   124  H   -0.041100
   125  H   -0.011200
   126  H   -0.008683
   127  H    0.015769
   128  H   -0.050474
   129  H   -0.035511
   130  H   -0.017076
   131  H   -0.015403
   132  H   -0.029946
   133  H   -0.035662
   134  H   -0.035242
   135  H   -0.018712
   136  H   -0.019449
   137  H   -0.023162
   138  H   -0.024155
   139  H   -0.027940
   140  H   -0.012392
 Sum of Mulliken charges =  -0.00000

 Dipole moment (field-independent basis, Debye):
    X=              5.0959    Y=              2.1601    Z=             -0.7235  Tot=              5.5819
 Quadrupole moment (field-independent basis, Debye-Ang):
   XX=           -379.6034   YY=           -426.7523   ZZ=           -418.6222
   XY=            -17.7740   XZ=             11.5039   YZ=              2.1236

 Normal termination of Gaussian 16 at Sat Apr 30 09:13:41 2022.
