 Gaussian 16, Revision A.03,
 Gaussian 16:  ES64L-G16RevA.03 25-Dec-2016

 -----------------------------------
 #p cam-b3lyp/Def2SVP td=(nstates=5)
 -----------------------------------

 -------------------------------------------------------
 step_651_chromophore_27 TDDFT with cam-b3lyp functional
 -------------------------------------------------------
 Symbolic Z-matrix:
 Charge =  0 Multiplicity = 1

                         Standard orientation:
 ---------------------------------------------------------------------
 Center     Atomic      Atomic             Coordinates (Angstroms)
 Number     Number       Type             X           Y           Z
 ---------------------------------------------------------------------
      1         12           0       -4.648423    0.877903    0.095339
      2          6           0       -3.819401   -2.516685    0.617267
      3          6           0       -1.229686    1.501036    0.569866
      4          6           0       -5.354091    4.033463   -0.180491
      5          6           0       -7.987789   -0.047738    0.217752
      6          7           0       -2.703352   -0.425528    0.480171
      7          6           0       -2.643062   -1.766195    0.560618
      8          6           0       -1.207564   -2.240138    0.395017
      9          6           0       -0.418621   -0.929962    0.633293
     10          6           0       -1.486183    0.102632    0.586667
     11          6           0        0.478488   -0.653423    1.977786
     12          6           0       -0.916174   -2.899882   -1.000435
     13          6           0        0.044496   -4.114379   -1.016318
     14          6           0        1.208097   -4.009719   -2.000887
     15          8           0        1.092062   -3.822559   -3.199547
     16          8           0        2.387172   -4.275401   -1.424138
     17          7           0       -3.438400    2.487928    0.029899
     18          6           0       -2.069091    2.574105    0.207033
     19          6           0       -1.589173    3.913263   -0.054601
     20          6           0       -2.724279    4.716810   -0.368608
     21          6           0       -3.926828    3.740135   -0.216973
     22          6           0       -0.145809    4.273604   -0.099807
     23          6           0       -2.824299    6.171112   -0.736065
     24          8           0       -3.899902    6.732201   -0.938706
     25          6           0       -1.568909    6.963900   -0.857396
     26          7           0       -6.498544    1.862133    0.269901
     27          6           0       -6.512849    3.236885   -0.092034
     28          6           0       -7.972068    3.717865   -0.336819
     29          6           0       -8.806037    2.374959   -0.181040
     30          6           0       -7.708920    1.291465    0.079037
     31          6           0       -8.441754    4.794991    0.628274
     32          6           0       -9.609614    2.101270   -1.492118
     33          6           0      -10.815607    2.957523   -1.489179
     34          7           0       -5.713882   -0.848436    0.384957
     35          6           0       -7.077294   -1.091461    0.404895
     36          6           0       -7.342361   -2.520571    0.600628
     37          6           0       -6.033652   -3.087953    0.657917
     38          6           0       -5.153103   -2.070002    0.617120
     39          6           0       -8.641037   -3.250392    0.597591
     40          6           0       -5.356654   -4.364238    0.764445
     41          8           0       -5.932192   -5.439258    0.886172
     42          6           0       -3.843021   -4.027553    0.577240
     43          6           0       -3.060615   -4.741285    1.650251
     44          8           0       -3.173188   -4.613201    2.852379
     45          8           0       -2.051672   -5.503159    1.036813
     46          6           0       -1.326616   -6.235521    2.114497
     47          6           0        3.591923   -4.418583   -2.328132
     48          6           0        4.302796   -3.031534   -2.483954
     49          6           0        5.354025   -2.471710   -1.761928
     50          6           0        5.947914   -3.255951   -0.617057
     51          6           0        5.901620   -1.064112   -2.107142
     52          6           0        6.544948   -0.969067   -3.521727
     53          6           0        8.088169   -0.670894   -3.408259
     54          6           0        8.435697    0.744147   -3.899648
     55          6           0        8.501955    0.936041   -5.388039
     56          6           0        9.815689    1.267259   -3.313944
     57          6           0        9.671469    2.375920   -2.261538
     58          6           0       10.498491    2.099376   -0.965694
     59          6           0        9.649513    1.780983    0.270661
     60          6           0        8.964593    0.346428    0.101603
     61          6           0       10.442235    1.798983    1.662175
     62          6           0        9.655423    2.358130    2.835384
     63          6           0        9.414342    1.233869    3.951900
     64          6           0        9.348524    1.792135    5.411334
     65          6           0       10.425274    1.232411    6.342274
     66          6           0        8.063512    1.576420    6.181342
     67          1           0       -0.181579    1.798595    0.636821
     68          1           0       -5.478412    5.105416   -0.350218
     69          1           0       -9.032447   -0.352513    0.123500
     70          1           0       -0.850872   -2.920097    1.169211
     71          1           0        0.237782   -0.744949   -0.216509
     72          1           0        0.655095   -1.449953    2.700503
     73          1           0        0.042544    0.180104    2.530176
     74          1           0        1.472666   -0.294872    1.710870
     75          1           0       -0.716536   -2.120603   -1.736105
     76          1           0       -1.891075   -3.203241   -1.382229
     77          1           0       -0.564232   -4.998397   -1.205880
     78          1           0        0.453269   -4.255929   -0.016529
     79          1           0       -0.150064    4.699557   -1.103065
     80          1           0        0.662871    3.551976    0.014709
     81          1           0       -0.053268    5.133157    0.564849
     82          1           0       -0.905561    6.436760   -1.542494
     83          1           0       -1.129561    7.094719    0.131627
     84          1           0       -1.784188    7.928609   -1.317757
     85          1           0       -8.202805    4.050932   -1.348066
     86          1           0       -9.449322    2.484870    0.692874
     87          1           0       -9.185649    5.485147    0.230544
     88          1           0       -7.596125    5.287587    1.107982
     89          1           0       -8.869510    4.328659    1.516166
     90          1           0       -9.897766    1.050486   -1.510470
     91          1           0       -9.043541    2.408287   -2.370495
     92          1           0      -11.268874    3.048909   -0.501758
     93          1           0      -11.583209    2.555952   -2.150370
     94          1           0      -10.779766    3.927425   -1.985560
     95          1           0       -8.851454   -3.797608   -0.322360
     96          1           0       -9.562390   -2.680041    0.711754
     97          1           0       -8.561823   -3.963679    1.418139
     98          1           0       -3.535649   -4.439487   -0.383631
     99          1           0       -1.941677   -6.641164    2.917793
    100          1           0       -0.576886   -5.596634    2.580195
    101          1           0       -0.920938   -7.181806    1.756691
    102          1           0        3.354627   -4.835453   -3.306748
    103          1           0        4.332248   -5.046921   -1.832853
    104          1           0        4.000909   -2.493506   -3.382265
    105          1           0        6.859989   -3.772749   -0.917861
    106          1           0        5.271978   -4.017126   -0.227041
    107          1           0        6.241418   -2.494990    0.105252
    108          1           0        6.580994   -0.743526   -1.317724
    109          1           0        5.155393   -0.271239   -2.054986
    110          1           0        6.134083   -0.132333   -4.086732
    111          1           0        6.475761   -1.931751   -4.028270
    112          1           0        8.620550   -1.397306   -4.023708
    113          1           0        8.497521   -0.934862   -2.432748
    114          1           0        7.671628    1.433327   -3.538587
    115          1           0        9.192649    1.683501   -5.776595
    116          1           0        7.471914    1.186459   -5.643478
    117          1           0        8.624457   -0.020322   -5.896023
    118          1           0       10.358867    1.725832   -4.140024
    119          1           0       10.438438    0.451741   -2.946011
    120          1           0        8.664678    2.314398   -1.850999
    121          1           0        9.796634    3.389506   -2.642261
    122          1           0       11.052940    3.018990   -0.780789
    123          1           0       11.231814    1.292899   -0.997420
    124          1           0        8.902105    2.561923    0.410306
    125          1           0        7.945502    0.482337   -0.260666
    126          1           0        8.826884   -0.005363    1.124100
    127          1           0        9.435537   -0.221489   -0.701189
    128          1           0       11.357680    2.380400    1.550276
    129          1           0       10.845751    0.799913    1.823301
    130          1           0        8.664207    2.664089    2.501073
    131          1           0       10.245458    3.181821    3.238895
    132          1           0       10.132880    0.413954    3.958422
    133          1           0        8.484416    0.781149    3.608351
    134          1           0        9.550218    2.861661    5.357751
    135          1           0       10.360434    1.902720    7.199366
    136          1           0       11.435290    1.183839    5.933440
    137          1           0       10.181990    0.223677    6.676194
    138          1           0        7.919980    0.499763    6.273178
    139          1           0        7.243408    1.941100    5.562352
    140          1           0        7.939605    1.982253    7.185259
 ---------------------------------------------------------------------

 SCF Done:  E(RCAM-B3LYP) =  -3007.17175921     A.U. after   17 cycles

 Excitation energies and oscillator strengths:

 Excited State   1:      Singlet-A      1.7164 eV  722.33 nm  f=0.3679  <S**2>=0.000
     245 -> 248        0.18248
     246 -> 247        0.68185
     245 <- 248        0.10483
 This state for optimization and/or second-order correction.
 Total Energy, E(TD-HF/TD-DFT) =  -3007.10868098
 Copying the excited state density for this state as the 1-particle RhoCI density.

 Excited State   2:      Singlet-A      2.2525 eV  550.44 nm  f=0.1029  <S**2>=0.000
     245 -> 247        0.62688
     246 -> 248       -0.30580

 Excited State   3:      Singlet-A      3.4078 eV  363.82 nm  f=0.0813  <S**2>=0.000
     244 -> 247        0.60277
     245 -> 247        0.10788
     246 -> 248        0.30706

 Excited State   4:      Singlet-A      3.4666 eV  357.65 nm  f=0.5190  <S**2>=0.000
     242 -> 247        0.21814
     244 -> 247       -0.28924
     245 -> 247        0.26681
     246 -> 248        0.53203

 Excited State   5:      Singlet-A      3.6334 eV  341.23 nm  f=0.0006  <S**2>=0.000
     240 -> 247       -0.11237
     241 -> 247        0.51209
     241 -> 249        0.28597
     241 -> 250       -0.25979
     242 -> 247       -0.17902

 The electronic state is 1-A.
 Alpha  occ. eigenvalues --  -46.88437 -19.25927 -19.24994 -19.20665 -19.18950
 Alpha  occ. eigenvalues --  -19.18890 -19.18640 -14.41895 -14.41403 -14.40300
 Alpha  occ. eigenvalues --  -14.38774 -10.39768 -10.38724 -10.35275 -10.34666
 Alpha  occ. eigenvalues --  -10.33031 -10.31981 -10.31736 -10.31551 -10.30703
 Alpha  occ. eigenvalues --  -10.30411 -10.30327 -10.30039 -10.29693 -10.29148
 Alpha  occ. eigenvalues --  -10.28610 -10.28543 -10.28240 -10.28229 -10.28221
 Alpha  occ. eigenvalues --  -10.27895 -10.27885 -10.27845 -10.27574 -10.27455
 Alpha  occ. eigenvalues --  -10.27420 -10.27313 -10.27173 -10.27121 -10.26815
 Alpha  occ. eigenvalues --  -10.26707 -10.26473 -10.26463 -10.26356 -10.26212
 Alpha  occ. eigenvalues --  -10.26209 -10.26107 -10.26078 -10.25806 -10.25754
 Alpha  occ. eigenvalues --  -10.25747 -10.25632 -10.25508 -10.25387 -10.25361
 Alpha  occ. eigenvalues --  -10.25309 -10.25178 -10.25150 -10.24833 -10.24817
 Alpha  occ. eigenvalues --  -10.24812 -10.24724 -10.24513 -10.24440 -10.24320
 Alpha  occ. eigenvalues --  -10.23990  -3.17062  -1.91949  -1.91535  -1.91363
 Alpha  occ. eigenvalues --   -1.16310  -1.16260  -1.09865  -1.09488  -1.08044
 Alpha  occ. eigenvalues --   -1.06806  -1.05274  -1.03136  -1.02903  -1.01515
 Alpha  occ. eigenvalues --   -0.93225  -0.90516  -0.89595  -0.89392  -0.89154
 Alpha  occ. eigenvalues --   -0.88922  -0.88808  -0.87771  -0.87700  -0.87173
 Alpha  occ. eigenvalues --   -0.85619  -0.85142  -0.84510  -0.83727  -0.83447
 Alpha  occ. eigenvalues --   -0.82795  -0.82483  -0.81390  -0.80648  -0.80146
 Alpha  occ. eigenvalues --   -0.80013  -0.78687  -0.77939  -0.77016  -0.76253
 Alpha  occ. eigenvalues --   -0.76181  -0.75413  -0.75070  -0.75054  -0.74452
 Alpha  occ. eigenvalues --   -0.73379  -0.72486  -0.71778  -0.70753  -0.68983
 Alpha  occ. eigenvalues --   -0.68593  -0.68302  -0.67601  -0.67340  -0.65788
 Alpha  occ. eigenvalues --   -0.65206  -0.65123  -0.64602  -0.64385  -0.64180
 Alpha  occ. eigenvalues --   -0.63567  -0.63315  -0.62893  -0.62235  -0.60265
 Alpha  occ. eigenvalues --   -0.60050  -0.58836  -0.58797  -0.58596  -0.58368
 Alpha  occ. eigenvalues --   -0.57936  -0.57649  -0.56531  -0.55588  -0.55403
 Alpha  occ. eigenvalues --   -0.55110  -0.54800  -0.54702  -0.54382  -0.54112
 Alpha  occ. eigenvalues --   -0.54030  -0.53799  -0.53665  -0.53287  -0.53185
 Alpha  occ. eigenvalues --   -0.53038  -0.52600  -0.52493  -0.52129  -0.51866
 Alpha  occ. eigenvalues --   -0.51503  -0.51339  -0.51180  -0.50698  -0.50559
 Alpha  occ. eigenvalues --   -0.50514  -0.50387  -0.50373  -0.50096  -0.49609
 Alpha  occ. eigenvalues --   -0.49285  -0.49156  -0.49047  -0.48782  -0.48721
 Alpha  occ. eigenvalues --   -0.48503  -0.48199  -0.47823  -0.47699  -0.47498
 Alpha  occ. eigenvalues --   -0.47359  -0.47294  -0.47122  -0.46891  -0.46793
 Alpha  occ. eigenvalues --   -0.46621  -0.46483  -0.46180  -0.45898  -0.45701
 Alpha  occ. eigenvalues --   -0.45503  -0.45417  -0.45269  -0.44936  -0.44735
 Alpha  occ. eigenvalues --   -0.44547  -0.44297  -0.44217  -0.44174  -0.44006
 Alpha  occ. eigenvalues --   -0.43745  -0.43649  -0.43474  -0.43316  -0.43233
 Alpha  occ. eigenvalues --   -0.43027  -0.42791  -0.42647  -0.42508  -0.42487
 Alpha  occ. eigenvalues --   -0.42254  -0.42068  -0.41881  -0.41570  -0.41419
 Alpha  occ. eigenvalues --   -0.41320  -0.41165  -0.41000  -0.40824  -0.40594
 Alpha  occ. eigenvalues --   -0.39733  -0.39577  -0.39440  -0.38872  -0.38828
 Alpha  occ. eigenvalues --   -0.38598  -0.38400  -0.37843  -0.37801  -0.37696
 Alpha  occ. eigenvalues --   -0.37569  -0.37338  -0.37085  -0.36839  -0.36675
 Alpha  occ. eigenvalues --   -0.36428  -0.35912  -0.35517  -0.35123  -0.34589
 Alpha  occ. eigenvalues --   -0.33998  -0.33481  -0.33031  -0.31502  -0.31194
 Alpha  occ. eigenvalues --   -0.30752  -0.30356  -0.29752  -0.29137  -0.23926
 Alpha  occ. eigenvalues --   -0.20916
 Alpha virt. eigenvalues --   -0.08407  -0.01888   0.00377   0.02377   0.02863
 Alpha virt. eigenvalues --    0.03218   0.04725   0.05592   0.05894   0.06824
 Alpha virt. eigenvalues --    0.07951   0.08452   0.08531   0.08799   0.09162

 Mulliken charges:
               1
     1  Mg   0.836909
     2  C   -0.038885
     3  C   -0.064768
     4  C   -0.043168
     5  C   -0.099405
     6  N   -0.200381
     7  C   -0.075149
     8  C   -0.007764
     9  C   -0.025430
    10  C   -0.003929
    11  C    0.044682
    12  C    0.075833
    13  C    0.085243
    14  C    0.139136
    15  O   -0.244755
    16  O   -0.317558
    17  N   -0.402642
    18  C    0.136088
    19  C   -0.151702
    20  C   -0.052725
    21  C    0.092413
    22  C    0.138849
    23  C   -0.006824
    24  O   -0.204552
    25  C    0.049798
    26  N   -0.338391
    27  C    0.088224
    28  C   -0.027673
    29  C   -0.052502
    30  C    0.086978
    31  C    0.078941
    32  C    0.053100
    33  C    0.000762
    34  N   -0.364813
    35  C    0.132935
    36  C   -0.156479
    37  C   -0.010412
    38  C    0.174043
    39  C    0.106257
    40  C    0.042127
    41  O   -0.169087
    42  C   -0.005743
    43  C    0.191281
    44  O   -0.197309
    45  O   -0.355847
    46  C    0.172136
    47  C    0.290110
    48  C   -0.136510
    49  C   -0.189394
    50  C    0.070594
    51  C    0.105205
    52  C    0.029267
    53  C    0.040944
    54  C   -0.141847
    55  C    0.069462
    56  C    0.053626
    57  C    0.031348
    58  C    0.035213
    59  C   -0.162521
    60  C    0.033638
    61  C    0.030495
    62  C    0.025510
    63  C    0.025289
    64  C   -0.108185
    65  C    0.031186
    66  C    0.029220
    67  H   -0.046580
    68  H   -0.002763
    69  H   -0.034213
    70  H    0.004732
    71  H    0.017453
    72  H    0.025216
    73  H    0.022819
    74  H    0.011050
    75  H    0.009834
    76  H   -0.005889
    77  H    0.051759
    78  H    0.014122
    79  H    0.030024
    80  H    0.037429
    81  H    0.025106
    82  H    0.024405
    83  H    0.045927
    84  H    0.027827
    85  H    0.016741
    86  H    0.016966
    87  H    0.025078
    88  H    0.014964
    89  H   -0.006956
    90  H    0.010158
    91  H    0.008896
    92  H    0.010866
    93  H   -0.002931
    94  H    0.010437
    95  H    0.030147
    96  H    0.000501
    97  H    0.039216
    98  H    0.051534
    99  H    0.044927
   100  H    0.034456
   101  H    0.031622
   102  H    0.041261
   103  H    0.018183
   104  H    0.006360
   105  H    0.026741
   106  H    0.034441
   107  H    0.015379
   108  H   -0.023068
   109  H    0.010628
   110  H    0.006098
   111  H    0.015483
   112  H   -0.017004
   113  H   -0.023346
   114  H   -0.006203
   115  H    0.023302
   116  H   -0.006728
   117  H   -0.001263
   118  H   -0.014331
   119  H   -0.003869
   120  H   -0.009112
   121  H    0.006665
   122  H   -0.014750
   123  H   -0.000149
   124  H   -0.010541
   125  H    0.008428
   126  H    0.013252
   127  H    0.033744
   128  H   -0.018383
   129  H   -0.006483
   130  H    0.009340
   131  H    0.012579
   132  H   -0.001516
   133  H   -0.008128
   134  H   -0.004257
   135  H    0.005686
   136  H    0.006077
   137  H    0.000478
   138  H   -0.000949
   139  H   -0.002815
   140  H    0.013398
 Sum of Mulliken charges =  -0.00000

 Dipole moment (field-independent basis, Debye):
    X=              5.9162    Y=              2.7645    Z=             -0.7966  Tot=              6.5787
 Quadrupole moment (field-independent basis, Debye-Ang):
   XX=           -382.3685   YY=           -421.8002   ZZ=           -419.0468
   XY=            -19.7548   XZ=             12.7835   YZ=              1.3040

 Normal termination of Gaussian 16 at Sat Apr 30 07:57:50 2022.
