 Gaussian 16, Revision A.03,
 Gaussian 16:  ES64L-G16RevA.03 25-Dec-2016

 ---------------------------------
 #p PBE1PBE/Def2SVP td=(nstates=5)
 ---------------------------------

 -----------------------------------------------------
 step_651_chromophore_27 TDDFT with PBE1PBE functional
 -----------------------------------------------------
 Symbolic Z-matrix:
 Charge =  0 Multiplicity = 1

                         Standard orientation:
 ---------------------------------------------------------------------
 Center     Atomic      Atomic             Coordinates (Angstroms)
 Number     Number       Type             X           Y           Z
 ---------------------------------------------------------------------
      1         12           0       -4.648423    0.877903    0.095339
      2          6           0       -3.819401   -2.516685    0.617267
      3          6           0       -1.229686    1.501036    0.569866
      4          6           0       -5.354091    4.033463   -0.180491
      5          6           0       -7.987789   -0.047738    0.217752
      6          7           0       -2.703352   -0.425528    0.480171
      7          6           0       -2.643062   -1.766195    0.560618
      8          6           0       -1.207564   -2.240138    0.395017
      9          6           0       -0.418621   -0.929962    0.633293
     10          6           0       -1.486183    0.102632    0.586667
     11          6           0        0.478488   -0.653423    1.977786
     12          6           0       -0.916174   -2.899882   -1.000435
     13          6           0        0.044496   -4.114379   -1.016318
     14          6           0        1.208097   -4.009719   -2.000887
     15          8           0        1.092062   -3.822559   -3.199547
     16          8           0        2.387172   -4.275401   -1.424138
     17          7           0       -3.438400    2.487928    0.029899
     18          6           0       -2.069091    2.574105    0.207033
     19          6           0       -1.589173    3.913263   -0.054601
     20          6           0       -2.724279    4.716810   -0.368608
     21          6           0       -3.926828    3.740135   -0.216973
     22          6           0       -0.145809    4.273604   -0.099807
     23          6           0       -2.824299    6.171112   -0.736065
     24          8           0       -3.899902    6.732201   -0.938706
     25          6           0       -1.568909    6.963900   -0.857396
     26          7           0       -6.498544    1.862133    0.269901
     27          6           0       -6.512849    3.236885   -0.092034
     28          6           0       -7.972068    3.717865   -0.336819
     29          6           0       -8.806037    2.374959   -0.181040
     30          6           0       -7.708920    1.291465    0.079037
     31          6           0       -8.441754    4.794991    0.628274
     32          6           0       -9.609614    2.101270   -1.492118
     33          6           0      -10.815607    2.957523   -1.489179
     34          7           0       -5.713882   -0.848436    0.384957
     35          6           0       -7.077294   -1.091461    0.404895
     36          6           0       -7.342361   -2.520571    0.600628
     37          6           0       -6.033652   -3.087953    0.657917
     38          6           0       -5.153103   -2.070002    0.617120
     39          6           0       -8.641037   -3.250392    0.597591
     40          6           0       -5.356654   -4.364238    0.764445
     41          8           0       -5.932192   -5.439258    0.886172
     42          6           0       -3.843021   -4.027553    0.577240
     43          6           0       -3.060615   -4.741285    1.650251
     44          8           0       -3.173188   -4.613201    2.852379
     45          8           0       -2.051672   -5.503159    1.036813
     46          6           0       -1.326616   -6.235521    2.114497
     47          6           0        3.591923   -4.418583   -2.328132
     48          6           0        4.302796   -3.031534   -2.483954
     49          6           0        5.354025   -2.471710   -1.761928
     50          6           0        5.947914   -3.255951   -0.617057
     51          6           0        5.901620   -1.064112   -2.107142
     52          6           0        6.544948   -0.969067   -3.521727
     53          6           0        8.088169   -0.670894   -3.408259
     54          6           0        8.435697    0.744147   -3.899648
     55          6           0        8.501955    0.936041   -5.388039
     56          6           0        9.815689    1.267259   -3.313944
     57          6           0        9.671469    2.375920   -2.261538
     58          6           0       10.498491    2.099376   -0.965694
     59          6           0        9.649513    1.780983    0.270661
     60          6           0        8.964593    0.346428    0.101603
     61          6           0       10.442235    1.798983    1.662175
     62          6           0        9.655423    2.358130    2.835384
     63          6           0        9.414342    1.233869    3.951900
     64          6           0        9.348524    1.792135    5.411334
     65          6           0       10.425274    1.232411    6.342274
     66          6           0        8.063512    1.576420    6.181342
     67          1           0       -0.181579    1.798595    0.636821
     68          1           0       -5.478412    5.105416   -0.350218
     69          1           0       -9.032447   -0.352513    0.123500
     70          1           0       -0.850872   -2.920097    1.169211
     71          1           0        0.237782   -0.744949   -0.216509
     72          1           0        0.655095   -1.449953    2.700503
     73          1           0        0.042544    0.180104    2.530176
     74          1           0        1.472666   -0.294872    1.710870
     75          1           0       -0.716536   -2.120603   -1.736105
     76          1           0       -1.891075   -3.203241   -1.382229
     77          1           0       -0.564232   -4.998397   -1.205880
     78          1           0        0.453269   -4.255929   -0.016529
     79          1           0       -0.150064    4.699557   -1.103065
     80          1           0        0.662871    3.551976    0.014709
     81          1           0       -0.053268    5.133157    0.564849
     82          1           0       -0.905561    6.436760   -1.542494
     83          1           0       -1.129561    7.094719    0.131627
     84          1           0       -1.784188    7.928609   -1.317757
     85          1           0       -8.202805    4.050932   -1.348066
     86          1           0       -9.449322    2.484870    0.692874
     87          1           0       -9.185649    5.485147    0.230544
     88          1           0       -7.596125    5.287587    1.107982
     89          1           0       -8.869510    4.328659    1.516166
     90          1           0       -9.897766    1.050486   -1.510470
     91          1           0       -9.043541    2.408287   -2.370495
     92          1           0      -11.268874    3.048909   -0.501758
     93          1           0      -11.583209    2.555952   -2.150370
     94          1           0      -10.779766    3.927425   -1.985560
     95          1           0       -8.851454   -3.797608   -0.322360
     96          1           0       -9.562390   -2.680041    0.711754
     97          1           0       -8.561823   -3.963679    1.418139
     98          1           0       -3.535649   -4.439487   -0.383631
     99          1           0       -1.941677   -6.641164    2.917793
    100          1           0       -0.576886   -5.596634    2.580195
    101          1           0       -0.920938   -7.181806    1.756691
    102          1           0        3.354627   -4.835453   -3.306748
    103          1           0        4.332248   -5.046921   -1.832853
    104          1           0        4.000909   -2.493506   -3.382265
    105          1           0        6.859989   -3.772749   -0.917861
    106          1           0        5.271978   -4.017126   -0.227041
    107          1           0        6.241418   -2.494990    0.105252
    108          1           0        6.580994   -0.743526   -1.317724
    109          1           0        5.155393   -0.271239   -2.054986
    110          1           0        6.134083   -0.132333   -4.086732
    111          1           0        6.475761   -1.931751   -4.028270
    112          1           0        8.620550   -1.397306   -4.023708
    113          1           0        8.497521   -0.934862   -2.432748
    114          1           0        7.671628    1.433327   -3.538587
    115          1           0        9.192649    1.683501   -5.776595
    116          1           0        7.471914    1.186459   -5.643478
    117          1           0        8.624457   -0.020322   -5.896023
    118          1           0       10.358867    1.725832   -4.140024
    119          1           0       10.438438    0.451741   -2.946011
    120          1           0        8.664678    2.314398   -1.850999
    121          1           0        9.796634    3.389506   -2.642261
    122          1           0       11.052940    3.018990   -0.780789
    123          1           0       11.231814    1.292899   -0.997420
    124          1           0        8.902105    2.561923    0.410306
    125          1           0        7.945502    0.482337   -0.260666
    126          1           0        8.826884   -0.005363    1.124100
    127          1           0        9.435537   -0.221489   -0.701189
    128          1           0       11.357680    2.380400    1.550276
    129          1           0       10.845751    0.799913    1.823301
    130          1           0        8.664207    2.664089    2.501073
    131          1           0       10.245458    3.181821    3.238895
    132          1           0       10.132880    0.413954    3.958422
    133          1           0        8.484416    0.781149    3.608351
    134          1           0        9.550218    2.861661    5.357751
    135          1           0       10.360434    1.902720    7.199366
    136          1           0       11.435290    1.183839    5.933440
    137          1           0       10.181990    0.223677    6.676194
    138          1           0        7.919980    0.499763    6.273178
    139          1           0        7.243408    1.941100    5.562352
    140          1           0        7.939605    1.982253    7.185259
 ---------------------------------------------------------------------

 SCF Done:  E(RPBE1PBE) =  -3005.36025861     A.U. after   15 cycles

 Excitation energies and oscillator strengths:

 Excited State   1:      Singlet-A      1.8622 eV  665.79 nm  f=0.3526  <S**2>=0.000
     245 -> 248        0.17609
     246 -> 247        0.68941
     246 <- 247       -0.10489
 This state for optimization and/or second-order correction.
 Total Energy, E(TD-HF/TD-DFT) =  -3005.29182371
 Copying the excited state density for this state as the 1-particle RhoCI density.

 Excited State   2:      Singlet-A      2.2527 eV  550.39 nm  f=0.1021  <S**2>=0.000
     245 -> 247        0.63988
     246 -> 248       -0.27763

 Excited State   3:      Singlet-A      3.0491 eV  406.63 nm  f=0.0004  <S**2>=0.000
     242 -> 247        0.25291
     244 -> 247        0.63362
     246 -> 248        0.13227

 Excited State   4:      Singlet-A      3.1390 eV  394.98 nm  f=0.0062  <S**2>=0.000
     241 -> 247       -0.17472
     242 -> 247        0.59723
     242 -> 249        0.14474
     244 -> 247       -0.26136

 Excited State   5:      Singlet-A      3.2167 eV  385.43 nm  f=0.2967  <S**2>=0.000
     239 -> 247        0.10559
     241 -> 247       -0.15394
     242 -> 247       -0.11753
     245 -> 247        0.22720
     246 -> 248        0.58423
     246 -> 249       -0.16818
     246 -> 250        0.10306

 The electronic state is 1-A.
 Alpha  occ. eigenvalues --  -46.91861 -19.26559 -19.25685 -19.20859 -19.19194
 Alpha  occ. eigenvalues --  -19.19047 -19.18938 -14.41236 -14.41081 -14.39856
 Alpha  occ. eigenvalues --  -14.38561 -10.36775 -10.35761 -10.32261 -10.31902
 Alpha  occ. eigenvalues --  -10.30432 -10.29510 -10.29395 -10.28791 -10.28278
 Alpha  occ. eigenvalues --  -10.28152 -10.27923 -10.27901 -10.27081 -10.27053
 Alpha  occ. eigenvalues --  -10.26233 -10.26230 -10.26024 -10.25977 -10.25848
 Alpha  occ. eigenvalues --  -10.25700 -10.25589 -10.25442 -10.25398 -10.25186
 Alpha  occ. eigenvalues --  -10.25100 -10.24854 -10.24830 -10.24781 -10.24284
 Alpha  occ. eigenvalues --  -10.24264 -10.24224 -10.23944 -10.23813 -10.23756
 Alpha  occ. eigenvalues --  -10.23735 -10.23692 -10.23654 -10.23504 -10.23446
 Alpha  occ. eigenvalues --  -10.23388 -10.23300 -10.23076 -10.22974 -10.22907
 Alpha  occ. eigenvalues --  -10.22790 -10.22689 -10.22656 -10.22400 -10.22375
 Alpha  occ. eigenvalues --  -10.22311 -10.22296 -10.21878 -10.21838 -10.21825
 Alpha  occ. eigenvalues --  -10.21697  -3.14063  -1.86891  -1.86455  -1.86286
 Alpha  occ. eigenvalues --   -1.11138  -1.10981  -1.04470  -1.04303  -1.02855
 Alpha  occ. eigenvalues --   -1.01686  -0.99839  -0.97938  -0.97426  -0.96189
 Alpha  occ. eigenvalues --   -0.87647  -0.84600  -0.83690  -0.83515  -0.83352
 Alpha  occ. eigenvalues --   -0.83198  -0.82930  -0.81939  -0.81870  -0.81557
 Alpha  occ. eigenvalues --   -0.80076  -0.79346  -0.78664  -0.78060  -0.77655
 Alpha  occ. eigenvalues --   -0.76964  -0.76669  -0.75648  -0.74926  -0.74464
 Alpha  occ. eigenvalues --   -0.74207  -0.72848  -0.72201  -0.71340  -0.70569
 Alpha  occ. eigenvalues --   -0.70373  -0.69496  -0.69408  -0.69144  -0.68628
 Alpha  occ. eigenvalues --   -0.67682  -0.66982  -0.66193  -0.65078  -0.63228
 Alpha  occ. eigenvalues --   -0.62982  -0.62725  -0.62038  -0.61551  -0.60205
 Alpha  occ. eigenvalues --   -0.59541  -0.59421  -0.59145  -0.58773  -0.58497
 Alpha  occ. eigenvalues --   -0.57861  -0.57703  -0.57107  -0.56825  -0.54791
 Alpha  occ. eigenvalues --   -0.54507  -0.53440  -0.53307  -0.53123  -0.52845
 Alpha  occ. eigenvalues --   -0.52323  -0.52201  -0.51108  -0.50158  -0.49985
 Alpha  occ. eigenvalues --   -0.49516  -0.49235  -0.49094  -0.48935  -0.48612
 Alpha  occ. eigenvalues --   -0.48561  -0.48141  -0.47955  -0.47743  -0.47721
 Alpha  occ. eigenvalues --   -0.47658  -0.47107  -0.46978  -0.46719  -0.46410
 Alpha  occ. eigenvalues --   -0.46120  -0.45849  -0.45791  -0.45267  -0.45221
 Alpha  occ. eigenvalues --   -0.45016  -0.44914  -0.44829  -0.44645  -0.44091
 Alpha  occ. eigenvalues --   -0.43960  -0.43748  -0.43697  -0.43412  -0.43294
 Alpha  occ. eigenvalues --   -0.43141  -0.42842  -0.42422  -0.42325  -0.42105
 Alpha  occ. eigenvalues --   -0.42040  -0.41941  -0.41746  -0.41563  -0.41459
 Alpha  occ. eigenvalues --   -0.41268  -0.41194  -0.40894  -0.40603  -0.40387
 Alpha  occ. eigenvalues --   -0.40282  -0.40200  -0.40025  -0.39658  -0.39560
 Alpha  occ. eigenvalues --   -0.39214  -0.39128  -0.38996  -0.38854  -0.38701
 Alpha  occ. eigenvalues --   -0.38597  -0.38468  -0.38248  -0.38141  -0.38014
 Alpha  occ. eigenvalues --   -0.37809  -0.37540  -0.37420  -0.37280  -0.37248
 Alpha  occ. eigenvalues --   -0.37015  -0.36912  -0.36733  -0.36408  -0.36265
 Alpha  occ. eigenvalues --   -0.36076  -0.35934  -0.35804  -0.35740  -0.35424
 Alpha  occ. eigenvalues --   -0.34670  -0.34415  -0.34221  -0.33784  -0.33658
 Alpha  occ. eigenvalues --   -0.33414  -0.33375  -0.32645  -0.32605  -0.32580
 Alpha  occ. eigenvalues --   -0.32370  -0.32147  -0.32119  -0.31870  -0.31514
 Alpha  occ. eigenvalues --   -0.31490  -0.30913  -0.30428  -0.30035  -0.29756
 Alpha  occ. eigenvalues --   -0.29011  -0.28637  -0.28260  -0.26867  -0.26046
 Alpha  occ. eigenvalues --   -0.25918  -0.25666  -0.25089  -0.24932  -0.20851
 Alpha  occ. eigenvalues --   -0.18553
 Alpha virt. eigenvalues --   -0.10897  -0.05445  -0.03762  -0.02016  -0.01207
 Alpha virt. eigenvalues --   -0.00051   0.00212   0.01180   0.01475   0.03048
 Alpha virt. eigenvalues --    0.04129   0.04287   0.05275   0.05569   0.05709

 Mulliken charges:
               1
     1  Mg   0.989356
     2  C   -0.060702
     3  C   -0.052493
     4  C   -0.037975
     5  C   -0.085763
     6  N   -0.305216
     7  C    0.005914
     8  C   -0.083202
     9  C   -0.091065
    10  C    0.034161
    11  C   -0.014425
    12  C    0.030200
    13  C    0.005299
    14  C    0.213281
    15  O   -0.277958
    16  O   -0.348125
    17  N   -0.519594
    18  C    0.161036
    19  C   -0.182678
    20  C   -0.099339
    21  C    0.125266
    22  C    0.071327
    23  C    0.044280
    24  O   -0.243774
    25  C   -0.025545
    26  N   -0.433898
    27  C    0.107878
    28  C   -0.102585
    29  C   -0.123882
    30  C    0.124568
    31  C    0.023581
    32  C   -0.018530
    33  C   -0.063115
    34  N   -0.490634
    35  C    0.148946
    36  C   -0.174136
    37  C   -0.063334
    38  C    0.226508
    39  C    0.055141
    40  C    0.148750
    41  O   -0.216009
    42  C   -0.121349
    43  C    0.280769
    44  O   -0.231769
    45  O   -0.385325
    46  C    0.114455
    47  C    0.235606
    48  C   -0.139334
    49  C   -0.231637
    50  C    0.003932
    51  C    0.039814
    52  C   -0.038598
    53  C   -0.011377
    54  C   -0.232592
    55  C    0.012197
    56  C    0.000063
    57  C   -0.033138
    58  C   -0.018500
    59  C   -0.246763
    60  C   -0.034639
    61  C   -0.020559
    62  C   -0.041759
    63  C   -0.023436
    64  C   -0.203697
    65  C   -0.032379
    66  C   -0.032976
    67  H   -0.013569
    68  H    0.030385
    69  H   -0.001056
    70  H    0.045273
    71  H    0.054758
    72  H    0.051429
    73  H    0.050557
    74  H    0.038207
    75  H    0.040907
    76  H    0.028997
    77  H    0.083447
    78  H    0.047225
    79  H    0.058971
    80  H    0.061729
    81  H    0.054256
    82  H    0.051615
    83  H    0.072448
    84  H    0.055242
    85  H    0.053131
    86  H    0.052431
    87  H    0.051694
    88  H    0.043171
    89  H    0.020734
    90  H    0.043351
    91  H    0.042497
    92  H    0.038180
    93  H    0.026158
    94  H    0.037329
    95  H    0.058610
    96  H    0.027971
    97  H    0.067332
    98  H    0.088195
    99  H    0.066797
   100  H    0.056699
   101  H    0.053668
   102  H    0.067786
   103  H    0.045301
   104  H    0.035785
   105  H    0.055269
   106  H    0.060915
   107  H    0.043234
   108  H    0.017003
   109  H    0.043095
   110  H    0.038894
   111  H    0.048213
   112  H    0.016251
   113  H    0.012575
   114  H    0.032655
   115  H    0.049426
   116  H    0.021108
   117  H    0.026620
   118  H    0.019807
   119  H    0.027136
   120  H    0.026053
   121  H    0.037820
   122  H    0.019552
   123  H    0.031871
   124  H    0.027787
   125  H    0.038437
   126  H    0.043749
   127  H    0.060662
   128  H    0.014629
   129  H    0.025693
   130  H    0.041251
   131  H    0.044467
   132  H    0.029392
   133  H    0.024392
   134  H    0.034000
   135  H    0.034724
   136  H    0.034256
   137  H    0.028455
   138  H    0.027319
   139  H    0.026715
   140  H    0.040408
 Sum of Mulliken charges =  -0.00000

 Dipole moment (field-independent basis, Debye):
    X=              5.5660    Y=              2.5375    Z=             -0.8232  Tot=              6.1722
 Quadrupole moment (field-independent basis, Debye-Ang):
   XX=           -373.3240   YY=           -419.7191   ZZ=           -416.5378
   XY=            -19.3805   XZ=             13.0987   YZ=              1.2202

 Normal termination of Gaussian 16 at Sat Apr 30 08:23:47 2022.
