 Gaussian 16, Revision A.03,
 Gaussian 16:  ES64L-G16RevA.03 25-Dec-2016

 --------------------------------
 #p wB97XD/Def2SVP td=(nstates=5)
 --------------------------------

 ----------------------------------------------------
 step_651_chromophore_27 TDDFT with wB97XD functional
 ----------------------------------------------------
 Symbolic Z-matrix:
 Charge =  0 Multiplicity = 1

                         Standard orientation:
 ---------------------------------------------------------------------
 Center     Atomic      Atomic             Coordinates (Angstroms)
 Number     Number       Type             X           Y           Z
 ---------------------------------------------------------------------
      1         12           0       -4.648423    0.877903    0.095339
      2          6           0       -3.819401   -2.516685    0.617267
      3          6           0       -1.229686    1.501036    0.569866
      4          6           0       -5.354091    4.033463   -0.180491
      5          6           0       -7.987789   -0.047738    0.217752
      6          7           0       -2.703352   -0.425528    0.480171
      7          6           0       -2.643062   -1.766195    0.560618
      8          6           0       -1.207564   -2.240138    0.395017
      9          6           0       -0.418621   -0.929962    0.633293
     10          6           0       -1.486183    0.102632    0.586667
     11          6           0        0.478488   -0.653423    1.977786
     12          6           0       -0.916174   -2.899882   -1.000435
     13          6           0        0.044496   -4.114379   -1.016318
     14          6           0        1.208097   -4.009719   -2.000887
     15          8           0        1.092062   -3.822559   -3.199547
     16          8           0        2.387172   -4.275401   -1.424138
     17          7           0       -3.438400    2.487928    0.029899
     18          6           0       -2.069091    2.574105    0.207033
     19          6           0       -1.589173    3.913263   -0.054601
     20          6           0       -2.724279    4.716810   -0.368608
     21          6           0       -3.926828    3.740135   -0.216973
     22          6           0       -0.145809    4.273604   -0.099807
     23          6           0       -2.824299    6.171112   -0.736065
     24          8           0       -3.899902    6.732201   -0.938706
     25          6           0       -1.568909    6.963900   -0.857396
     26          7           0       -6.498544    1.862133    0.269901
     27          6           0       -6.512849    3.236885   -0.092034
     28          6           0       -7.972068    3.717865   -0.336819
     29          6           0       -8.806037    2.374959   -0.181040
     30          6           0       -7.708920    1.291465    0.079037
     31          6           0       -8.441754    4.794991    0.628274
     32          6           0       -9.609614    2.101270   -1.492118
     33          6           0      -10.815607    2.957523   -1.489179
     34          7           0       -5.713882   -0.848436    0.384957
     35          6           0       -7.077294   -1.091461    0.404895
     36          6           0       -7.342361   -2.520571    0.600628
     37          6           0       -6.033652   -3.087953    0.657917
     38          6           0       -5.153103   -2.070002    0.617120
     39          6           0       -8.641037   -3.250392    0.597591
     40          6           0       -5.356654   -4.364238    0.764445
     41          8           0       -5.932192   -5.439258    0.886172
     42          6           0       -3.843021   -4.027553    0.577240
     43          6           0       -3.060615   -4.741285    1.650251
     44          8           0       -3.173188   -4.613201    2.852379
     45          8           0       -2.051672   -5.503159    1.036813
     46          6           0       -1.326616   -6.235521    2.114497
     47          6           0        3.591923   -4.418583   -2.328132
     48          6           0        4.302796   -3.031534   -2.483954
     49          6           0        5.354025   -2.471710   -1.761928
     50          6           0        5.947914   -3.255951   -0.617057
     51          6           0        5.901620   -1.064112   -2.107142
     52          6           0        6.544948   -0.969067   -3.521727
     53          6           0        8.088169   -0.670894   -3.408259
     54          6           0        8.435697    0.744147   -3.899648
     55          6           0        8.501955    0.936041   -5.388039
     56          6           0        9.815689    1.267259   -3.313944
     57          6           0        9.671469    2.375920   -2.261538
     58          6           0       10.498491    2.099376   -0.965694
     59          6           0        9.649513    1.780983    0.270661
     60          6           0        8.964593    0.346428    0.101603
     61          6           0       10.442235    1.798983    1.662175
     62          6           0        9.655423    2.358130    2.835384
     63          6           0        9.414342    1.233869    3.951900
     64          6           0        9.348524    1.792135    5.411334
     65          6           0       10.425274    1.232411    6.342274
     66          6           0        8.063512    1.576420    6.181342
     67          1           0       -0.181579    1.798595    0.636821
     68          1           0       -5.478412    5.105416   -0.350218
     69          1           0       -9.032447   -0.352513    0.123500
     70          1           0       -0.850872   -2.920097    1.169211
     71          1           0        0.237782   -0.744949   -0.216509
     72          1           0        0.655095   -1.449953    2.700503
     73          1           0        0.042544    0.180104    2.530176
     74          1           0        1.472666   -0.294872    1.710870
     75          1           0       -0.716536   -2.120603   -1.736105
     76          1           0       -1.891075   -3.203241   -1.382229
     77          1           0       -0.564232   -4.998397   -1.205880
     78          1           0        0.453269   -4.255929   -0.016529
     79          1           0       -0.150064    4.699557   -1.103065
     80          1           0        0.662871    3.551976    0.014709
     81          1           0       -0.053268    5.133157    0.564849
     82          1           0       -0.905561    6.436760   -1.542494
     83          1           0       -1.129561    7.094719    0.131627
     84          1           0       -1.784188    7.928609   -1.317757
     85          1           0       -8.202805    4.050932   -1.348066
     86          1           0       -9.449322    2.484870    0.692874
     87          1           0       -9.185649    5.485147    0.230544
     88          1           0       -7.596125    5.287587    1.107982
     89          1           0       -8.869510    4.328659    1.516166
     90          1           0       -9.897766    1.050486   -1.510470
     91          1           0       -9.043541    2.408287   -2.370495
     92          1           0      -11.268874    3.048909   -0.501758
     93          1           0      -11.583209    2.555952   -2.150370
     94          1           0      -10.779766    3.927425   -1.985560
     95          1           0       -8.851454   -3.797608   -0.322360
     96          1           0       -9.562390   -2.680041    0.711754
     97          1           0       -8.561823   -3.963679    1.418139
     98          1           0       -3.535649   -4.439487   -0.383631
     99          1           0       -1.941677   -6.641164    2.917793
    100          1           0       -0.576886   -5.596634    2.580195
    101          1           0       -0.920938   -7.181806    1.756691
    102          1           0        3.354627   -4.835453   -3.306748
    103          1           0        4.332248   -5.046921   -1.832853
    104          1           0        4.000909   -2.493506   -3.382265
    105          1           0        6.859989   -3.772749   -0.917861
    106          1           0        5.271978   -4.017126   -0.227041
    107          1           0        6.241418   -2.494990    0.105252
    108          1           0        6.580994   -0.743526   -1.317724
    109          1           0        5.155393   -0.271239   -2.054986
    110          1           0        6.134083   -0.132333   -4.086732
    111          1           0        6.475761   -1.931751   -4.028270
    112          1           0        8.620550   -1.397306   -4.023708
    113          1           0        8.497521   -0.934862   -2.432748
    114          1           0        7.671628    1.433327   -3.538587
    115          1           0        9.192649    1.683501   -5.776595
    116          1           0        7.471914    1.186459   -5.643478
    117          1           0        8.624457   -0.020322   -5.896023
    118          1           0       10.358867    1.725832   -4.140024
    119          1           0       10.438438    0.451741   -2.946011
    120          1           0        8.664678    2.314398   -1.850999
    121          1           0        9.796634    3.389506   -2.642261
    122          1           0       11.052940    3.018990   -0.780789
    123          1           0       11.231814    1.292899   -0.997420
    124          1           0        8.902105    2.561923    0.410306
    125          1           0        7.945502    0.482337   -0.260666
    126          1           0        8.826884   -0.005363    1.124100
    127          1           0        9.435537   -0.221489   -0.701189
    128          1           0       11.357680    2.380400    1.550276
    129          1           0       10.845751    0.799913    1.823301
    130          1           0        8.664207    2.664089    2.501073
    131          1           0       10.245458    3.181821    3.238895
    132          1           0       10.132880    0.413954    3.958422
    133          1           0        8.484416    0.781149    3.608351
    134          1           0        9.550218    2.861661    5.357751
    135          1           0       10.360434    1.902720    7.199366
    136          1           0       11.435290    1.183839    5.933440
    137          1           0       10.181990    0.223677    6.676194
    138          1           0        7.919980    0.499763    6.273178
    139          1           0        7.243408    1.941100    5.562352
    140          1           0        7.939605    1.982253    7.185259
 ---------------------------------------------------------------------

 SCF Done:  E(RwB97XD) =  -3007.87053670     A.U. after   18 cycles

 Excitation energies and oscillator strengths:

 Excited State   1:      Singlet-A      1.6629 eV  745.61 nm  f=0.3665  <S**2>=0.000
     245 -> 248        0.18800
     246 -> 247        0.67949
     245 <- 248        0.11390
 This state for optimization and/or second-order correction.
 Total Energy, E(TD-HF/TD-DFT) =  -3007.80942748
 Copying the excited state density for this state as the 1-particle RhoCI density.

 Excited State   2:      Singlet-A      2.1994 eV  563.72 nm  f=0.1001  <S**2>=0.000
     245 -> 247        0.62504
     246 -> 248       -0.30763

 Excited State   3:      Singlet-A      3.4355 eV  360.89 nm  f=0.1400  <S**2>=0.000
     244 -> 247        0.56191
     245 -> 247        0.13581
     246 -> 248        0.36554

 Excited State   4:      Singlet-A      3.4948 eV  354.76 nm  f=0.4774  <S**2>=0.000
     241 -> 247        0.13960
     242 -> 247        0.24111
     244 -> 247       -0.33696
     245 -> 247        0.24974
     246 -> 248        0.48416

 Excited State   5:      Singlet-A      3.6679 eV  338.02 nm  f=0.0006  <S**2>=0.000
     241 -> 247        0.44576
     241 -> 249        0.27929
     241 -> 250        0.24962
     242 -> 247       -0.28712
     242 -> 249       -0.14787
     242 -> 250       -0.13975

 The electronic state is 1-A.
 Alpha  occ. eigenvalues --  -46.94776 -19.31148 -19.30253 -19.25587 -19.24011
 Alpha  occ. eigenvalues --  -19.23923 -19.23616 -14.46507 -14.45979 -14.44920
 Alpha  occ. eigenvalues --  -14.43371 -10.43617 -10.42548 -10.39263 -10.38668
 Alpha  occ. eigenvalues --  -10.36973 -10.36123 -10.35844 -10.35317 -10.34730
 Alpha  occ. eigenvalues --  -10.34505 -10.34317 -10.34004 -10.33897 -10.33125
 Alpha  occ. eigenvalues --  -10.32652 -10.32586 -10.32399 -10.32299 -10.32290
 Alpha  occ. eigenvalues --  -10.32011 -10.31882 -10.31797 -10.31609 -10.31539
 Alpha  occ. eigenvalues --  -10.31531 -10.31250 -10.31209 -10.31117 -10.30710
 Alpha  occ. eigenvalues --  -10.30680 -10.30534 -10.30370 -10.30231 -10.30196
 Alpha  occ. eigenvalues --  -10.30195 -10.30073 -10.29988 -10.29806 -10.29693
 Alpha  occ. eigenvalues --  -10.29679 -10.29596 -10.29451 -10.29359 -10.29265
 Alpha  occ. eigenvalues --  -10.29141 -10.29075 -10.29033 -10.28763 -10.28755
 Alpha  occ. eigenvalues --  -10.28684 -10.28639 -10.28335 -10.28284 -10.28144
 Alpha  occ. eigenvalues --  -10.27988  -3.20835  -1.94413  -1.93978  -1.93803
 Alpha  occ. eigenvalues --   -1.18521  -1.18402  -1.12108  -1.11702  -1.10240
 Alpha  occ. eigenvalues --   -1.09031  -1.07288  -1.05138  -1.04974  -1.03513
 Alpha  occ. eigenvalues --   -0.95203  -0.92301  -0.91385  -0.91362  -0.90996
 Alpha  occ. eigenvalues --   -0.90752  -0.90614  -0.89673  -0.89558  -0.89088
 Alpha  occ. eigenvalues --   -0.87540  -0.87028  -0.86356  -0.85609  -0.85358
 Alpha  occ. eigenvalues --   -0.84683  -0.84414  -0.83306  -0.82558  -0.82100
 Alpha  occ. eigenvalues --   -0.81883  -0.80692  -0.79841  -0.78927  -0.78146
 Alpha  occ. eigenvalues --   -0.78059  -0.77232  -0.76987  -0.76862  -0.76305
 Alpha  occ. eigenvalues --   -0.75313  -0.74474  -0.73746  -0.72700  -0.70886
 Alpha  occ. eigenvalues --   -0.70573  -0.70205  -0.69618  -0.69224  -0.67743
 Alpha  occ. eigenvalues --   -0.67077  -0.67047  -0.66606  -0.66204  -0.66171
 Alpha  occ. eigenvalues --   -0.65404  -0.65304  -0.64757  -0.64226  -0.62260
 Alpha  occ. eigenvalues --   -0.62043  -0.60854  -0.60736  -0.60556  -0.60317
 Alpha  occ. eigenvalues --   -0.59837  -0.59640  -0.58520  -0.57579  -0.57346
 Alpha  occ. eigenvalues --   -0.56974  -0.56690  -0.56596  -0.56305  -0.56039
 Alpha  occ. eigenvalues --   -0.55950  -0.55741  -0.55573  -0.55176  -0.55124
 Alpha  occ. eigenvalues --   -0.55007  -0.54512  -0.54403  -0.54030  -0.53787
 Alpha  occ. eigenvalues --   -0.53462  -0.53231  -0.53124  -0.52608  -0.52478
 Alpha  occ. eigenvalues --   -0.52402  -0.52376  -0.52263  -0.52084  -0.51580
 Alpha  occ. eigenvalues --   -0.51184  -0.51062  -0.50978  -0.50706  -0.50610
 Alpha  occ. eigenvalues --   -0.50420  -0.50131  -0.49771  -0.49635  -0.49381
 Alpha  occ. eigenvalues --   -0.49263  -0.49225  -0.49033  -0.48794  -0.48696
 Alpha  occ. eigenvalues --   -0.48539  -0.48398  -0.48112  -0.47834  -0.47599
 Alpha  occ. eigenvalues --   -0.47436  -0.47324  -0.47183  -0.46842  -0.46640
 Alpha  occ. eigenvalues --   -0.46424  -0.46209  -0.46113  -0.46047  -0.45892
 Alpha  occ. eigenvalues --   -0.45631  -0.45560  -0.45398  -0.45277  -0.45202
 Alpha  occ. eigenvalues --   -0.44964  -0.44725  -0.44638  -0.44437  -0.44409
 Alpha  occ. eigenvalues --   -0.44160  -0.43972  -0.43853  -0.43483  -0.43317
 Alpha  occ. eigenvalues --   -0.43177  -0.43032  -0.42880  -0.42725  -0.42493
 Alpha  occ. eigenvalues --   -0.41619  -0.41477  -0.41313  -0.40781  -0.40709
 Alpha  occ. eigenvalues --   -0.40448  -0.40324  -0.39697  -0.39685  -0.39642
 Alpha  occ. eigenvalues --   -0.39436  -0.39202  -0.39173  -0.38716  -0.38541
 Alpha  occ. eigenvalues --   -0.38415  -0.37933  -0.37377  -0.37097  -0.36563
 Alpha  occ. eigenvalues --   -0.35858  -0.35414  -0.35288  -0.33583  -0.33295
 Alpha  occ. eigenvalues --   -0.32737  -0.32556  -0.31810  -0.31283  -0.25853
 Alpha  occ. eigenvalues --   -0.22723
 Alpha virt. eigenvalues --   -0.06755   0.00026   0.02416   0.04487   0.05424
 Alpha virt. eigenvalues --    0.05954   0.06858   0.07958   0.08264   0.09557
 Alpha virt. eigenvalues --    0.10462   0.11135   0.11927   0.12200   0.12338

 Mulliken charges:
               1
     1  Mg   0.978860
     2  C   -0.055843
     3  C   -0.069903
     4  C   -0.056915
     5  C   -0.106951
     6  N   -0.265576
     7  C   -0.032223
     8  C   -0.052484
     9  C   -0.073926
    10  C    0.023766
    11  C   -0.001409
    12  C    0.038302
    13  C    0.023215
    14  C    0.200472
    15  O   -0.274955
    16  O   -0.347814
    17  N   -0.489487
    18  C    0.153027
    19  C   -0.166829
    20  C   -0.096123
    21  C    0.118940
    22  C    0.087371
    23  C    0.041445
    24  O   -0.236583
    25  C   -0.014026
    26  N   -0.408057
    27  C    0.105744
    28  C   -0.079041
    29  C   -0.096882
    30  C    0.111871
    31  C    0.032814
    32  C    0.001784
    33  C   -0.051904
    34  N   -0.454978
    35  C    0.144222
    36  C   -0.173886
    37  C   -0.053915
    38  C    0.206422
    39  C    0.065434
    40  C    0.122990
    41  O   -0.205789
    42  C   -0.077606
    43  C    0.257466
    44  O   -0.226799
    45  O   -0.384243
    46  C    0.130018
    47  C    0.255477
    48  C   -0.154295
    49  C   -0.217939
    50  C    0.019548
    51  C    0.067368
    52  C   -0.020362
    53  C    0.006397
    54  C   -0.197590
    55  C    0.022889
    56  C    0.012851
    57  C   -0.010786
    58  C   -0.005995
    59  C   -0.213433
    60  C   -0.011433
    61  C   -0.007306
    62  C   -0.023243
    63  C   -0.014442
    64  C   -0.171745
    65  C   -0.018607
    66  C   -0.019956
    67  H   -0.022698
    68  H    0.023759
    69  H   -0.008716
    70  H    0.028280
    71  H    0.044315
    72  H    0.047949
    73  H    0.042665
    74  H    0.032580
    75  H    0.034301
    76  H    0.018497
    77  H    0.078385
    78  H    0.039506
    79  H    0.050866
    80  H    0.061573
    81  H    0.047799
    82  H    0.045473
    83  H    0.067766
    84  H    0.054968
    85  H    0.042129
    86  H    0.040058
    87  H    0.047669
    88  H    0.036746
    89  H    0.014391
    90  H    0.035067
    91  H    0.033973
    92  H    0.031189
    93  H    0.020549
    94  H    0.031146
    95  H    0.052645
    96  H    0.022278
    97  H    0.061675
    98  H    0.080638
    99  H    0.062090
   100  H    0.052577
   101  H    0.050529
   102  H    0.064989
   103  H    0.040159
   104  H    0.032431
   105  H    0.049520
   106  H    0.055569
   107  H    0.037252
   108  H   -0.006980
   109  H    0.036935
   110  H    0.029484
   111  H    0.039696
   112  H    0.007801
   113  H   -0.004073
   114  H    0.017039
   115  H    0.044436
   116  H    0.014387
   117  H    0.020206
   118  H    0.010832
   119  H    0.017533
   120  H    0.009184
   121  H    0.033164
   122  H    0.011542
   123  H    0.021832
   124  H    0.013354
   125  H    0.027891
   126  H    0.034378
   127  H    0.049346
   128  H    0.007319
   129  H    0.015215
   130  H    0.032209
   131  H    0.036677
   132  H    0.020740
   133  H    0.015332
   134  H    0.022135
   135  H    0.027443
   136  H    0.029073
   137  H    0.021079
   138  H    0.019019
   139  H    0.020123
   140  H    0.035695
 Sum of Mulliken charges =  -0.00000

 Dipole moment (field-independent basis, Debye):
    X=              6.0858    Y=              2.8808    Z=             -0.8603  Tot=              6.7879
 Quadrupole moment (field-independent basis, Debye-Ang):
   XX=           -377.9698   YY=           -417.3703   ZZ=           -416.1593
   XY=            -20.1723   XZ=             13.3591   YZ=              1.0341

 Normal termination of Gaussian 16 at Sat Apr 30 09:00:02 2022.
