 Gaussian 16, Revision A.03,
 Gaussian 16:  ES64L-G16RevA.03 25-Dec-2016

 --------------------
 #p ZINDO=(nstates=5)
 --------------------

 -----------------------------
 step_651_chromophore_27 ZINDO
 -----------------------------
 Symbolic Z-matrix:
 Charge =  0 Multiplicity = 1

                         Standard orientation:
 ---------------------------------------------------------------------
 Center     Atomic      Atomic             Coordinates (Angstroms)
 Number     Number       Type             X           Y           Z
 ---------------------------------------------------------------------
      1         12           0       -4.648423    0.877903    0.095339
      2          6           0       -3.819401   -2.516685    0.617267
      3          6           0       -1.229686    1.501036    0.569866
      4          6           0       -5.354091    4.033463   -0.180491
      5          6           0       -7.987789   -0.047738    0.217752
      6          7           0       -2.703352   -0.425528    0.480171
      7          6           0       -2.643062   -1.766195    0.560618
      8          6           0       -1.207564   -2.240138    0.395017
      9          6           0       -0.418621   -0.929962    0.633293
     10          6           0       -1.486183    0.102632    0.586667
     11          6           0        0.478488   -0.653423    1.977786
     12          6           0       -0.916174   -2.899882   -1.000435
     13          6           0        0.044496   -4.114379   -1.016318
     14          6           0        1.208097   -4.009719   -2.000887
     15          8           0        1.092062   -3.822559   -3.199547
     16          8           0        2.387172   -4.275401   -1.424138
     17          7           0       -3.438400    2.487928    0.029899
     18          6           0       -2.069091    2.574105    0.207033
     19          6           0       -1.589173    3.913263   -0.054601
     20          6           0       -2.724279    4.716810   -0.368608
     21          6           0       -3.926828    3.740135   -0.216973
     22          6           0       -0.145809    4.273604   -0.099807
     23          6           0       -2.824299    6.171112   -0.736065
     24          8           0       -3.899902    6.732201   -0.938706
     25          6           0       -1.568909    6.963900   -0.857396
     26          7           0       -6.498544    1.862133    0.269901
     27          6           0       -6.512849    3.236885   -0.092034
     28          6           0       -7.972068    3.717865   -0.336819
     29          6           0       -8.806037    2.374959   -0.181040
     30          6           0       -7.708920    1.291465    0.079037
     31          6           0       -8.441754    4.794991    0.628274
     32          6           0       -9.609614    2.101270   -1.492118
     33          6           0      -10.815607    2.957523   -1.489179
     34          7           0       -5.713882   -0.848436    0.384957
     35          6           0       -7.077294   -1.091461    0.404895
     36          6           0       -7.342361   -2.520571    0.600628
     37          6           0       -6.033652   -3.087953    0.657917
     38          6           0       -5.153103   -2.070002    0.617120
     39          6           0       -8.641037   -3.250392    0.597591
     40          6           0       -5.356654   -4.364238    0.764445
     41          8           0       -5.932192   -5.439258    0.886172
     42          6           0       -3.843021   -4.027553    0.577240
     43          6           0       -3.060615   -4.741285    1.650251
     44          8           0       -3.173188   -4.613201    2.852379
     45          8           0       -2.051672   -5.503159    1.036813
     46          6           0       -1.326616   -6.235521    2.114497
     47          6           0        3.591923   -4.418583   -2.328132
     48          6           0        4.302796   -3.031534   -2.483954
     49          6           0        5.354025   -2.471710   -1.761928
     50          6           0        5.947914   -3.255951   -0.617057
     51          6           0        5.901620   -1.064112   -2.107142
     52          6           0        6.544948   -0.969067   -3.521727
     53          6           0        8.088169   -0.670894   -3.408259
     54          6           0        8.435697    0.744147   -3.899648
     55          6           0        8.501955    0.936041   -5.388039
     56          6           0        9.815689    1.267259   -3.313944
     57          6           0        9.671469    2.375920   -2.261538
     58          6           0       10.498491    2.099376   -0.965694
     59          6           0        9.649513    1.780983    0.270661
     60          6           0        8.964593    0.346428    0.101603
     61          6           0       10.442235    1.798983    1.662175
     62          6           0        9.655423    2.358130    2.835384
     63          6           0        9.414342    1.233869    3.951900
     64          6           0        9.348524    1.792135    5.411334
     65          6           0       10.425274    1.232411    6.342274
     66          6           0        8.063512    1.576420    6.181342
     67          1           0       -0.181579    1.798595    0.636821
     68          1           0       -5.478412    5.105416   -0.350218
     69          1           0       -9.032447   -0.352513    0.123500
     70          1           0       -0.850872   -2.920097    1.169211
     71          1           0        0.237782   -0.744949   -0.216509
     72          1           0        0.655095   -1.449953    2.700503
     73          1           0        0.042544    0.180104    2.530176
     74          1           0        1.472666   -0.294872    1.710870
     75          1           0       -0.716536   -2.120603   -1.736105
     76          1           0       -1.891075   -3.203241   -1.382229
     77          1           0       -0.564232   -4.998397   -1.205880
     78          1           0        0.453269   -4.255929   -0.016529
     79          1           0       -0.150064    4.699557   -1.103065
     80          1           0        0.662871    3.551976    0.014709
     81          1           0       -0.053268    5.133157    0.564849
     82          1           0       -0.905561    6.436760   -1.542494
     83          1           0       -1.129561    7.094719    0.131627
     84          1           0       -1.784188    7.928609   -1.317757
     85          1           0       -8.202805    4.050932   -1.348066
     86          1           0       -9.449322    2.484870    0.692874
     87          1           0       -9.185649    5.485147    0.230544
     88          1           0       -7.596125    5.287587    1.107982
     89          1           0       -8.869510    4.328659    1.516166
     90          1           0       -9.897766    1.050486   -1.510470
     91          1           0       -9.043541    2.408287   -2.370495
     92          1           0      -11.268874    3.048909   -0.501758
     93          1           0      -11.583209    2.555952   -2.150370
     94          1           0      -10.779766    3.927425   -1.985560
     95          1           0       -8.851454   -3.797608   -0.322360
     96          1           0       -9.562390   -2.680041    0.711754
     97          1           0       -8.561823   -3.963679    1.418139
     98          1           0       -3.535649   -4.439487   -0.383631
     99          1           0       -1.941677   -6.641164    2.917793
    100          1           0       -0.576886   -5.596634    2.580195
    101          1           0       -0.920938   -7.181806    1.756691
    102          1           0        3.354627   -4.835453   -3.306748
    103          1           0        4.332248   -5.046921   -1.832853
    104          1           0        4.000909   -2.493506   -3.382265
    105          1           0        6.859989   -3.772749   -0.917861
    106          1           0        5.271978   -4.017126   -0.227041
    107          1           0        6.241418   -2.494990    0.105252
    108          1           0        6.580994   -0.743526   -1.317724
    109          1           0        5.155393   -0.271239   -2.054986
    110          1           0        6.134083   -0.132333   -4.086732
    111          1           0        6.475761   -1.931751   -4.028270
    112          1           0        8.620550   -1.397306   -4.023708
    113          1           0        8.497521   -0.934862   -2.432748
    114          1           0        7.671628    1.433327   -3.538587
    115          1           0        9.192649    1.683501   -5.776595
    116          1           0        7.471914    1.186459   -5.643478
    117          1           0        8.624457   -0.020322   -5.896023
    118          1           0       10.358867    1.725832   -4.140024
    119          1           0       10.438438    0.451741   -2.946011
    120          1           0        8.664678    2.314398   -1.850999
    121          1           0        9.796634    3.389506   -2.642261
    122          1           0       11.052940    3.018990   -0.780789
    123          1           0       11.231814    1.292899   -0.997420
    124          1           0        8.902105    2.561923    0.410306
    125          1           0        7.945502    0.482337   -0.260666
    126          1           0        8.826884   -0.005363    1.124100
    127          1           0        9.435537   -0.221489   -0.701189
    128          1           0       11.357680    2.380400    1.550276
    129          1           0       10.845751    0.799913    1.823301
    130          1           0        8.664207    2.664089    2.501073
    131          1           0       10.245458    3.181821    3.238895
    132          1           0       10.132880    0.413954    3.958422
    133          1           0        8.484416    0.781149    3.608351
    134          1           0        9.550218    2.861661    5.357751
    135          1           0       10.360434    1.902720    7.199366
    136          1           0       11.435290    1.183839    5.933440
    137          1           0       10.181990    0.223677    6.676194
    138          1           0        7.919980    0.499763    6.273178
    139          1           0        7.243408    1.941100    5.562352
    140          1           0        7.939605    1.982253    7.185259
 ---------------------------------------------------------------------

 SCF Done:  E(RZINDO/S) =  -474.175111219     A.U. after   19 cycles

 Excitation energies and oscillator strengths:

 Excited State   1:      Singlet-A      1.2497 eV  992.14 nm  f=0.5738  <S**2>=0.000
     175 ->178         0.18550
     176 ->177         0.66311
 This state for optimization and/or second-order correction.
 Total Energy, E(CIS/TDA) =  -474.129186873
 Copying the excited state density for this state as the 1-particle RhoCI density.

 Excited State   2:      Singlet-A      1.9059 eV  650.52 nm  f=0.0275  <S**2>=0.000
     175 ->177         0.52533
     176 ->178        -0.44302

 Excited State   3:      Singlet-A      2.9432 eV  421.26 nm  f=0.7494  <S**2>=0.000
     171 ->177         0.10442
     175 ->177         0.35377
     176 ->178         0.47226
     176 ->179         0.30090

 Excited State   4:      Singlet-A      2.9762 eV  416.59 nm  f=0.2959  <S**2>=0.000
     175 ->177        -0.18830
     176 ->178        -0.18323
     176 ->179         0.57598
     176 ->180         0.13064
     176 ->182         0.12943

 Excited State   5:      Singlet-A      2.9992 eV  413.38 nm  f=0.1030  <S**2>=0.000
     170 ->177         0.27933
     170 ->178        -0.13583
     170 ->179         0.28811
     170 ->180         0.32903
     170 ->182         0.21652
     170 ->186         0.18178
     170 ->188         0.14309
     175 ->177        -0.12224
     176 ->178        -0.13841

 The electronic state is 1-A.
 Alpha  occ. eigenvalues --   -1.84887  -1.81154  -1.78513  -1.72860  -1.72293
 Alpha  occ. eigenvalues --   -1.70844  -1.65646  -1.60183  -1.59399  -1.58681
 Alpha  occ. eigenvalues --   -1.54996  -1.51024  -1.49578  -1.47884  -1.47324
 Alpha  occ. eigenvalues --   -1.44517  -1.43378  -1.42296  -1.40396  -1.38840
 Alpha  occ. eigenvalues --   -1.36671  -1.33730  -1.32251  -1.31501  -1.28119
 Alpha  occ. eigenvalues --   -1.25412  -1.24153  -1.22655  -1.20686  -1.18301
 Alpha  occ. eigenvalues --   -1.17388  -1.15838  -1.14484  -1.14228  -1.13380
 Alpha  occ. eigenvalues --   -1.12415  -1.10704  -1.10280  -1.04589  -1.04157
 Alpha  occ. eigenvalues --   -1.02840  -1.01120  -0.99393  -0.98115  -0.97036
 Alpha  occ. eigenvalues --   -0.95381  -0.94766  -0.94037  -0.93753  -0.93467
 Alpha  occ. eigenvalues --   -0.91165  -0.90764  -0.88688  -0.88449  -0.87499
 Alpha  occ. eigenvalues --   -0.86359  -0.84367  -0.83738  -0.83119  -0.80989
 Alpha  occ. eigenvalues --   -0.79774  -0.78155  -0.77738  -0.77194  -0.76819
 Alpha  occ. eigenvalues --   -0.76097  -0.75298  -0.75020  -0.74327  -0.74098
 Alpha  occ. eigenvalues --   -0.73686  -0.73357  -0.72152  -0.71815  -0.71351
 Alpha  occ. eigenvalues --   -0.70423  -0.69724  -0.68796  -0.68417  -0.68147
 Alpha  occ. eigenvalues --   -0.68028  -0.67409  -0.67228  -0.66696  -0.65977
 Alpha  occ. eigenvalues --   -0.64845  -0.64679  -0.64297  -0.63748  -0.63277
 Alpha  occ. eigenvalues --   -0.62789  -0.62617  -0.62343  -0.62196  -0.61724
 Alpha  occ. eigenvalues --   -0.61363  -0.60847  -0.60575  -0.60489  -0.59931
 Alpha  occ. eigenvalues --   -0.59283  -0.59158  -0.58776  -0.58520  -0.57937
 Alpha  occ. eigenvalues --   -0.57792  -0.57203  -0.56919  -0.56563  -0.56261
 Alpha  occ. eigenvalues --   -0.55876  -0.55509  -0.55095  -0.54867  -0.54768
 Alpha  occ. eigenvalues --   -0.54550  -0.53985  -0.53773  -0.53613  -0.53374
 Alpha  occ. eigenvalues --   -0.53231  -0.52796  -0.52139  -0.51811  -0.51406
 Alpha  occ. eigenvalues --   -0.51077  -0.50957  -0.50922  -0.50546  -0.50332
 Alpha  occ. eigenvalues --   -0.50119  -0.49969  -0.49664  -0.49607  -0.49376
 Alpha  occ. eigenvalues --   -0.49175  -0.48655  -0.48507  -0.47923  -0.47720
 Alpha  occ. eigenvalues --   -0.47347  -0.47089  -0.46960  -0.46802  -0.46539
 Alpha  occ. eigenvalues --   -0.46283  -0.46182  -0.46096  -0.45839  -0.45458
 Alpha  occ. eigenvalues --   -0.45419  -0.45304  -0.44901  -0.44832  -0.44745
 Alpha  occ. eigenvalues --   -0.44024  -0.43569  -0.43178  -0.42928  -0.42473
 Alpha  occ. eigenvalues --   -0.42284  -0.41944  -0.41804  -0.39190  -0.38951
 Alpha  occ. eigenvalues --   -0.38367  -0.37457  -0.35886  -0.34807  -0.34344
 Alpha  occ. eigenvalues --   -0.33719  -0.32529  -0.32175  -0.31517  -0.26654
 Alpha  occ. eigenvalues --   -0.21582
 Alpha virt. eigenvalues --   -0.08383  -0.02251  -0.00716   0.01426   0.01899
 Alpha virt. eigenvalues --    0.02406   0.02666   0.03078   0.03629   0.04580
 Alpha virt. eigenvalues --    0.06172   0.06206   0.07193   0.07631   0.07755

 Mulliken charges:
               1
     1  Mg   0.433932
     2  C   -0.027976
     3  C   -0.081177
     4  C   -0.081681
     5  C   -0.069127
     6  N   -0.273831
     7  C    0.095629
     8  C    0.012110
     9  C    0.002791
    10  C    0.160804
    11  C   -0.057609
    12  C   -0.024158
    13  C    0.010702
    14  C    0.475364
    15  O   -0.525466
    16  O   -0.263382
    17  N   -0.315411
    18  C    0.112195
    19  C    0.044088
    20  C   -0.064777
    21  C    0.153296
    22  C   -0.045609
    23  C    0.334501
    24  O   -0.525718
    25  C   -0.028339
    26  N   -0.288408
    27  C    0.154275
    28  C    0.006930
    29  C   -0.010805
    30  C    0.115890
    31  C   -0.051701
    32  C   -0.020555
    33  C   -0.059508
    34  N   -0.333199
    35  C    0.093200
    36  C    0.002169
    37  C   -0.046190
    38  C    0.106608
    39  C   -0.035380
    40  C    0.329300
    41  O   -0.519864
    42  C    0.056825
    43  C    0.482480
    44  O   -0.502357
    45  O   -0.279128
    46  C    0.069581
    47  C    0.104938
    48  C   -0.101720
    49  C   -0.003746
    50  C   -0.041612
    51  C   -0.018503
    52  C   -0.034918
    53  C   -0.038950
    54  C   -0.005900
    55  C   -0.054659
    56  C   -0.042647
    57  C   -0.039307
    58  C   -0.033049
    59  C   -0.023444
    60  C   -0.072110
    61  C   -0.041366
    62  C   -0.032605
    63  C   -0.039860
    64  C   -0.006595
    65  C   -0.056207
    66  C   -0.050290
    67  H    0.021224
    68  H    0.039956
    69  H    0.020349
    70  H    0.031628
    71  H    0.030664
    72  H    0.030812
    73  H    0.023322
    74  H    0.016079
    75  H    0.034126
    76  H    0.018787
    77  H    0.053434
    78  H    0.030099
    79  H    0.033845
    80  H    0.042836
    81  H    0.032248
    82  H    0.033982
    83  H    0.043356
    84  H    0.036143
    85  H    0.039122
    86  H    0.040161
    87  H    0.027895
    88  H    0.023768
    89  H    0.013613
    90  H    0.025758
    91  H    0.027689
    92  H    0.019273
    93  H    0.003303
    94  H    0.020521
    95  H    0.031745
    96  H    0.018076
    97  H    0.034484
    98  H    0.058038
    99  H    0.048219
   100  H    0.041398
   101  H    0.027559
   102  H    0.059695
   103  H    0.035601
   104  H    0.028211
   105  H    0.029739
   106  H    0.031883
   107  H    0.022054
   108  H    0.020836
   109  H    0.023166
   110  H    0.029885
   111  H    0.028225
   112  H    0.008782
   113  H    0.023114
   114  H    0.018029
   115  H    0.030816
   116  H    0.006319
   117  H    0.016860
   118  H    0.013521
   119  H    0.022553
   120  H    0.014319
   121  H    0.028221
   122  H    0.006025
   123  H    0.022715
   124  H    0.019408
   125  H    0.007179
   126  H    0.029585
   127  H    0.039575
   128  H    0.008139
   129  H    0.017402
   130  H    0.026164
   131  H    0.024673
   132  H    0.024026
   133  H    0.014399
   134  H    0.015509
   135  H    0.015461
   136  H    0.015048
   137  H    0.016963
   138  H    0.013353
   139  H    0.004219
   140  H    0.026053
 Sum of Mulliken charges =   0.00000

 Dipole moment (field-independent basis, Debye):
    X=              8.8303    Y=              4.4691    Z=             -1.5736  Tot=             10.0212
 N-N= 4.390672875470D+03 E-N= 0.000000000000D+00  KE=-9.455034900585D+03
 Leave Link  601 at Sat Apr 30 09:13:48 2022, MaxMem=  6710886400 cpu:               0.9 elap:               0.1
 (Enter /sw/apps/gaussian-16.0/g16/l9999.exe)
 1\1\GINC-BP1-COMPUTE156\SP\RZINDO CIS\STO-3G\C55H74Mg1N4O6\OF15641\30-
 Apr-2022\0\\#p ZINDO=(nstates=5)\\step_651_chromophore_27 ZINDO\\0,1\M
 g,0,-5.245,25.333,26.922\C,0,-3.737,27.121,29.57\C,0,-6.131,22.988,29.
 375\C,0,-6.485,23.536,24.521\C,0,-3.748,27.563,24.729\N,0,-5.009,25.13
 8,29.275\C,0,-4.44,26.036,30.098\C,0,-4.845,25.762,31.538\C,0,-5.388,2
 4.316,31.438\C,0,-5.497,24.113,29.97\C,0,-4.604,23.017,32.06\C,0,-5.89
 3,26.785,32.106\C,0,-5.735,27.202,33.589\C,0,-6.991,27.047,34.445\O,0,

 Normal termination of Gaussian 16 at Sat Apr 30 09:13:48 2022.
