 Gaussian 16, Revision A.03,
 Gaussian 16:  ES64L-G16RevA.03 25-Dec-2016

 ------------------------------
 #p blyp/Def2SVP td=(nstates=5)
 ------------------------------

 ---------------------------------------------------
 step_1001_chromophore_18 TDDFT with blyp functional
 ---------------------------------------------------
 Symbolic Z-matrix:
 Charge =  0 Multiplicity = 1

                         Standard orientation:
 ---------------------------------------------------------------------
 Center     Atomic      Atomic             Coordinates (Angstroms)
 Number     Number       Type             X           Y           Z
 ---------------------------------------------------------------------
      1         12           0        5.410065    1.211995   -0.054534
      2          6           0        4.824515   -2.309251   -0.019400
      3          6           0        1.990563    1.464592   -0.756916
      4          6           0        5.756545    4.534989    0.177177
      5          6           0        8.740897    0.703236    0.206132
      6          7           0        3.666259   -0.331179   -0.448329
      7          6           0        3.617243   -1.657357   -0.221296
      8          6           0        2.186669   -2.212829   -0.138637
      9          6           0        1.368362   -1.034023   -0.704891
     10          6           0        2.396093    0.116260   -0.641497
     11          6           0        0.715015   -1.278986   -2.102611
     12          6           0        1.840845   -2.571876    1.278027
     13          6           0        0.824845   -3.748502    1.433333
     14          6           0       -0.034706   -4.197034    0.255240
     15          8           0        0.273580   -5.107868   -0.503735
     16          8           0       -1.203945   -3.501863    0.212282
     17          7           0        4.069795    2.726405   -0.226476
     18          6           0        2.723589    2.657598   -0.520345
     19          6           0        2.153397    3.991989   -0.496063
     20          6           0        3.201478    4.965462   -0.216694
     21          6           0        4.404118    4.099152   -0.068167
     22          6           0        0.744919    4.289095   -0.717108
     23          6           0        3.144477    6.517220   -0.182025
     24          8           0        4.133989    7.136653    0.161742
     25          6           0        1.875173    7.225762   -0.450081
     26          7           0        6.963700    2.398075    0.169640
     27          6           0        6.895157    3.766869    0.121939
     28          6           0        8.355307    4.411603    0.016076
     29          6           0        9.237676    3.189292    0.379437
     30          6           0        8.258423    1.998838    0.238339
     31          6           0        8.598538    5.091080   -1.251211
     32          6           0        9.967939    3.333724    1.761178
     33          6           0        9.117972    2.963543    3.049867
     34          7           0        6.618610   -0.431674    0.033714
     35          6           0        7.931113   -0.482153    0.142626
     36          6           0        8.414731   -1.919674    0.080712
     37          6           0        7.196392   -2.643749    0.050805
     38          6           0        6.129748   -1.690201    0.112826
     39          6           0        9.731671   -2.419393    0.085485
     40          6           0        6.717096   -4.007213    0.048072
     41          8           0        7.295547   -5.091610   -0.095357
     42          6           0        5.088200   -3.775428    0.097942
     43          6           0        4.548402   -4.475467   -1.089251
     44          8           0        4.640555   -4.161276   -2.267226
     45          8           0        4.127223   -5.702465   -0.720044
     46          6           0        3.916264   -6.680672   -1.839283
     47          6           0       -2.307393   -4.027826   -0.579712
     48          6           0       -3.479599   -3.180654   -0.088466
     49          6           0       -4.753215   -3.047766   -0.496503
     50          6           0       -5.343744   -3.883615   -1.566351
     51          6           0       -5.699637   -1.995584    0.103246
     52          6           0       -6.799680   -2.504987    1.124399
     53          6           0       -7.054962   -1.485197    2.204767
     54          6           0       -8.580777   -1.178686    2.564250
     55          6           0       -8.710831   -0.797381    4.040373
     56          6           0       -9.196535   -0.122617    1.574212
     57          6           0      -10.100210   -0.758742    0.546006
     58          6           0      -11.534427   -0.863841    1.235556
     59          6           0      -12.327926    0.409882    0.898294
     60          6           0      -13.225700    0.918485    2.075009
     61          6           0      -13.049975    0.337098   -0.448906
     62          6           0      -12.998610    1.658579   -1.175168
     63          6           0      -14.170599    2.550463   -0.775998
     64          6           0      -14.914598    3.025668   -2.006238
     65          6           0      -14.998429    4.624897   -2.007174
     66          6           0      -16.357431    2.447749   -2.018278
     67          1           0        0.939129    1.519157   -1.049327
     68          1           0        5.920643    5.612001    0.255899
     69          1           0        9.818922    0.585232    0.328511
     70          1           0        2.193447   -3.165965   -0.667581
     71          1           0        0.598286   -0.669338   -0.024992
     72          1           0        1.300411   -1.890431   -2.789954
     73          1           0        0.535295   -0.306746   -2.562444
     74          1           0       -0.185213   -1.865784   -1.922579
     75          1           0        1.338968   -1.712504    1.723843
     76          1           0        2.719470   -2.802253    1.880072
     77          1           0        0.067211   -3.402217    2.136311
     78          1           0        1.323047   -4.679205    1.702292
     79          1           0        0.150258    3.398094   -0.917390
     80          1           0        0.756781    4.831598   -1.662100
     81          1           0        0.381489    4.761181    0.196335
     82          1           0        1.083511    7.031300    0.273887
     83          1           0        1.550625    6.963854   -1.457121
     84          1           0        2.051735    8.298329   -0.518458
     85          1           0        8.419108    5.177628    0.788921
     86          1           0       10.028864    3.022701   -0.352444
     87          1           0        7.882099    4.661559   -1.951452
     88          1           0        9.502135    4.821396   -1.799655
     89          1           0        8.643830    6.179772   -1.223270
     90          1           0       10.388332    4.332888    1.875294
     91          1           0       10.773244    2.599426    1.801492
     92          1           0        9.289705    3.771003    3.761209
     93          1           0        9.407435    1.985115    3.434426
     94          1           0        8.046780    2.919324    2.852269
     95          1           0       10.357669   -1.724729    0.645943
     96          1           0       10.278925   -2.679434   -0.820823
     97          1           0        9.657924   -3.291230    0.735536
     98          1           0        4.679609   -4.175154    1.024869
     99          1           0        4.777479   -6.691855   -2.506717
    100          1           0        3.012290   -6.326699   -2.334450
    101          1           0        3.752847   -7.672793   -1.417522
    102          1           0       -2.532307   -5.053237   -0.286399
    103          1           0       -2.248396   -4.003628   -1.667884
    104          1           0       -3.005161   -2.476161    0.594245
    105          1           0       -6.261229   -3.516924   -2.025507
    106          1           0       -5.574817   -4.834742   -1.086699
    107          1           0       -4.753491   -4.222286   -2.418012
    108          1           0       -6.184720   -1.396136   -0.666712
    109          1           0       -4.940411   -1.381839    0.589197
    110          1           0       -6.580560   -3.509468    1.485464
    111          1           0       -7.716704   -2.582506    0.540784
    112          1           0       -6.573264   -0.544306    1.937669
    113          1           0       -6.465994   -1.764505    3.078898
    114          1           0       -9.102077   -2.130067    2.458829
    115          1           0       -7.756486   -0.682756    4.555546
    116          1           0       -9.150819   -1.493263    4.753695
    117          1           0       -9.246751    0.144579    4.155809
    118          1           0       -8.364401    0.447351    1.162779
    119          1           0       -9.760422    0.611748    2.149295
    120          1           0       -9.810750   -1.779513    0.298206
    121          1           0      -10.151199   -0.141055   -0.351090
    122          1           0      -11.414404   -1.062065    2.300919
    123          1           0      -12.091548   -1.711236    0.837489
    124          1           0      -11.568160    1.183635    0.783629
    125          1           0      -13.054082    1.988386    2.194053
    126          1           0      -12.936229    0.276730    2.907762
    127          1           0      -14.301717    0.855851    1.911345
    128          1           0      -14.053167   -0.077588   -0.349123
    129          1           0      -12.514860   -0.423490   -1.017469
    130          1           0      -12.942332    1.426834   -2.238930
    131          1           0      -12.127202    2.286637   -0.987558
    132          1           0      -13.796657    3.435120   -0.259872
    133          1           0      -14.814812    2.110159   -0.015724
    134          1           0      -14.458801    2.710447   -2.944978
    135          1           0      -15.096479    5.019656   -0.996351
    136          1           0      -15.873959    4.986692   -2.547360
    137          1           0      -14.118683    5.188218   -2.318198
    138          1           0      -16.437778    1.695793   -2.801576
    139          1           0      -17.045624    3.215309   -2.373382
    140          1           0      -16.747092    2.085964   -1.066712
 ---------------------------------------------------------------------

 SCF Done:  E(RB-LYP) =  -3007.38653658     A.U. after   21 cycles

 Excitation energies and oscillator strengths:

 Excited State   1:      Singlet-A      1.7898 eV  692.72 nm  f=0.3086  <S**2>=0.000
     245 -> 248        0.15474
     245 -> 249       -0.10639
     246 -> 247        0.69301
     246 <- 247       -0.15683
 This state for optimization and/or second-order correction.
 Total Energy, E(TD-HF/TD-DFT) =  -3007.32076219
 Copying the excited state density for this state as the 1-particle RhoCI density.

 Excited State   2:      Singlet-A      2.0112 eV  616.47 nm  f=0.0878  <S**2>=0.000
     243 -> 247        0.10469
     245 -> 247        0.64506
     246 -> 248       -0.18937
     246 -> 249        0.12929

 Excited State   3:      Singlet-A      2.1374 eV  580.08 nm  f=0.0022  <S**2>=0.000
     244 -> 247        0.70016

 Excited State   4:      Singlet-A      2.1694 eV  571.52 nm  f=0.0014  <S**2>=0.000
     243 -> 247        0.69590

 Excited State   5:      Singlet-A      2.4525 eV  505.55 nm  f=0.0000  <S**2>=0.000
     241 -> 247        0.70671

 The electronic state is 1-A.
 Alpha  occ. eigenvalues --  -46.25828 -18.83507 -18.80382 -18.77367 -18.76504
 Alpha  occ. eigenvalues --  -18.75826 -18.74938 -14.02908 -14.02761 -14.01184
 Alpha  occ. eigenvalues --  -14.01126 -10.04672 -10.02201 -10.00351 -10.00204
 Alpha  occ. eigenvalues --   -9.99006  -9.96451  -9.96328  -9.96049  -9.96036
 Alpha  occ. eigenvalues --   -9.95970  -9.95967  -9.95633  -9.95620  -9.94813
 Alpha  occ. eigenvalues --   -9.94108  -9.93858  -9.93786  -9.93741  -9.93567
 Alpha  occ. eigenvalues --   -9.93374  -9.93354  -9.93248  -9.93232  -9.93227
 Alpha  occ. eigenvalues --   -9.93032  -9.92978  -9.92897  -9.92744  -9.92736
 Alpha  occ. eigenvalues --   -9.92600  -9.92520  -9.92334  -9.92327  -9.92322
 Alpha  occ. eigenvalues --   -9.92279  -9.92247  -9.92066  -9.91761  -9.91734
 Alpha  occ. eigenvalues --   -9.91727  -9.91726  -9.91485  -9.91463  -9.91461
 Alpha  occ. eigenvalues --   -9.91410  -9.91276  -9.91272  -9.91110  -9.90849
 Alpha  occ. eigenvalues --   -9.90838  -9.90834  -9.90796  -9.90785  -9.90657
 Alpha  occ. eigenvalues --   -9.90562  -2.90822  -1.71240  -1.70710  -1.70541
 Alpha  occ. eigenvalues --   -0.99040  -0.96553  -0.92164  -0.90775  -0.90742
 Alpha  occ. eigenvalues --   -0.87729  -0.87056  -0.86135  -0.85480  -0.83542
 Alpha  occ. eigenvalues --   -0.75148  -0.74003  -0.73776  -0.73349  -0.72362
 Alpha  occ. eigenvalues --   -0.71886  -0.71616  -0.71010  -0.70863  -0.70568
 Alpha  occ. eigenvalues --   -0.70176  -0.69381  -0.68217  -0.67307  -0.67116
 Alpha  occ. eigenvalues --   -0.66387  -0.66218  -0.65688  -0.65005  -0.64348
 Alpha  occ. eigenvalues --   -0.64132  -0.62842  -0.62230  -0.61346  -0.60862
 Alpha  occ. eigenvalues --   -0.60195  -0.60106  -0.59758  -0.59435  -0.58999
 Alpha  occ. eigenvalues --   -0.58228  -0.57168  -0.56356  -0.55668  -0.54463
 Alpha  occ. eigenvalues --   -0.53935  -0.53850  -0.52822  -0.52538  -0.51811
 Alpha  occ. eigenvalues --   -0.51496  -0.51242  -0.50736  -0.50609  -0.50098
 Alpha  occ. eigenvalues --   -0.50002  -0.49965  -0.48999  -0.46923  -0.46706
 Alpha  occ. eigenvalues --   -0.46025  -0.45968  -0.45437  -0.45002  -0.43987
 Alpha  occ. eigenvalues --   -0.43743  -0.43330  -0.42886  -0.42627  -0.42336
 Alpha  occ. eigenvalues --   -0.42003  -0.41981  -0.41724  -0.41454  -0.40946
 Alpha  occ. eigenvalues --   -0.40876  -0.40652  -0.40461  -0.40257  -0.40024
 Alpha  occ. eigenvalues --   -0.39792  -0.39703  -0.39558  -0.39506  -0.39056
 Alpha  occ. eigenvalues --   -0.38959  -0.38794  -0.38690  -0.38504  -0.38486
 Alpha  occ. eigenvalues --   -0.38114  -0.38056  -0.37618  -0.37420  -0.37270
 Alpha  occ. eigenvalues --   -0.37072  -0.36929  -0.36846  -0.36689  -0.36481
 Alpha  occ. eigenvalues --   -0.36361  -0.36262  -0.35876  -0.35795  -0.35478
 Alpha  occ. eigenvalues --   -0.35375  -0.35227  -0.34952  -0.34887  -0.34763
 Alpha  occ. eigenvalues --   -0.34562  -0.34356  -0.34281  -0.33850  -0.33721
 Alpha  occ. eigenvalues --   -0.33462  -0.33303  -0.33158  -0.32967  -0.32947
 Alpha  occ. eigenvalues --   -0.32697  -0.32669  -0.32538  -0.32490  -0.32465
 Alpha  occ. eigenvalues --   -0.32173  -0.31909  -0.31876  -0.31723  -0.31690
 Alpha  occ. eigenvalues --   -0.31410  -0.31341  -0.31010  -0.30909  -0.30859
 Alpha  occ. eigenvalues --   -0.30741  -0.30679  -0.30593  -0.30426  -0.29460
 Alpha  occ. eigenvalues --   -0.29406  -0.29339  -0.29197  -0.28991  -0.28795
 Alpha  occ. eigenvalues --   -0.28538  -0.28501  -0.28116  -0.28085  -0.27950
 Alpha  occ. eigenvalues --   -0.27587  -0.27376  -0.27215  -0.26576  -0.26456
 Alpha  occ. eigenvalues --   -0.26181  -0.26161  -0.26024  -0.25881  -0.25524
 Alpha  occ. eigenvalues --   -0.25117  -0.24835  -0.23802  -0.23736  -0.23589
 Alpha  occ. eigenvalues --   -0.23289  -0.22064  -0.21705  -0.20617  -0.20455
 Alpha  occ. eigenvalues --   -0.20353  -0.20149  -0.19186  -0.19110  -0.17016
 Alpha  occ. eigenvalues --   -0.15490
 Alpha virt. eigenvalues --   -0.11340  -0.06599  -0.06316  -0.04661  -0.03873
 Alpha virt. eigenvalues --   -0.01819  -0.01554  -0.01167  -0.00606   0.00315
 Alpha virt. eigenvalues --    0.00974   0.01753   0.02307   0.02557   0.02828

 Mulliken charges:
               1
     1  Mg   0.726345
     2  C    0.013782
     3  C   -0.095540
     4  C   -0.040934
     5  C   -0.092656
     6  N   -0.157116
     7  C   -0.091714
     8  C    0.014553
     9  C    0.032421
    10  C   -0.029922
    11  C    0.128681
    12  C    0.138506
    13  C    0.140788
    14  C    0.052275
    15  O   -0.194405
    16  O   -0.269370
    17  N   -0.330135
    18  C    0.209268
    19  C   -0.197863
    20  C    0.015218
    21  C    0.086603
    22  C    0.208217
    23  C   -0.069488
    24  O   -0.152679
    25  C    0.153556
    26  N   -0.281388
    27  C    0.046482
    28  C    0.023577
    29  C    0.046345
    30  C    0.058281
    31  C    0.158243
    32  C    0.061285
    33  C    0.048514
    34  N   -0.234717
    35  C    0.107937
    36  C   -0.138590
    37  C    0.049579
    38  C    0.086996
    39  C    0.155661
    40  C   -0.007692
    41  O   -0.137995
    42  C    0.030137
    43  C    0.092552
    44  O   -0.199914
    45  O   -0.270695
    46  C    0.224083
    47  C    0.330195
    48  C   -0.177000
    49  C   -0.107571
    50  C    0.125995
    51  C    0.105485
    52  C    0.114280
    53  C    0.088046
    54  C   -0.071210
    55  C    0.098551
    56  C    0.130988
    57  C    0.075774
    58  C    0.087661
    59  C   -0.104866
    60  C    0.126584
    61  C    0.129666
    62  C    0.079761
    63  C    0.128856
    64  C   -0.075400
    65  C    0.071451
    66  C    0.099516
    67  H   -0.065341
    68  H   -0.044341
    69  H   -0.066980
    70  H    0.000679
    71  H   -0.030448
    72  H    0.007059
    73  H   -0.011707
    74  H   -0.003852
    75  H   -0.029837
    76  H   -0.012626
    77  H   -0.011653
    78  H    0.014406
    79  H   -0.031145
    80  H    0.007096
    81  H    0.014883
    82  H    0.019537
    83  H   -0.005394
    84  H   -0.013283
    85  H   -0.031932
    86  H   -0.038337
    87  H   -0.017757
    88  H   -0.030492
    89  H    0.001601
    90  H   -0.012551
    91  H   -0.023869
    92  H   -0.006840
    93  H   -0.003398
    94  H    0.006486
    95  H   -0.026415
    96  H    0.022307
    97  H    0.002452
    98  H   -0.008183
    99  H    0.025063
   100  H    0.019559
   101  H    0.012911
   102  H    0.001231
   103  H    0.018812
   104  H   -0.022868
   105  H   -0.013054
   106  H   -0.002304
   107  H   -0.015699
   108  H   -0.017907
   109  H   -0.028494
   110  H   -0.023144
   111  H   -0.035743
   112  H   -0.035391
   113  H   -0.036334
   114  H   -0.032129
   115  H   -0.031553
   116  H   -0.020537
   117  H   -0.022641
   118  H   -0.042577
   119  H   -0.033034
   120  H   -0.023505
   121  H   -0.026010
   122  H   -0.031462
   123  H   -0.042037
   124  H   -0.043535
   125  H   -0.016385
   126  H   -0.021626
   127  H   -0.017829
   128  H   -0.031664
   129  H   -0.057968
   130  H   -0.033264
   131  H   -0.034349
   132  H   -0.045568
   133  H   -0.032116
   134  H   -0.025177
   135  H   -0.024606
   136  H   -0.017696
   137  H   -0.019674
   138  H   -0.021077
   139  H   -0.033081
   140  H   -0.009495
 Sum of Mulliken charges =  -0.00000

 Dipole moment (field-independent basis, Debye):
    X=             -4.8437    Y=              2.1277    Z=              1.1786  Tot=              5.4202
 Quadrupole moment (field-independent basis, Debye-Ang):
   XX=           -390.8604   YY=           -430.7245   ZZ=           -405.5787
   XY=             26.9416   XZ=             12.8152   YZ=             -8.9973

 Normal termination of Gaussian 16 at Tue Apr 26 21:06:57 2022.
