 Gaussian 16, Revision A.03,
 Gaussian 16:  ES64L-G16RevA.03 25-Dec-2016

 -----------------------------------
 #p cam-b3lyp/Def2SVP td=(nstates=5)
 -----------------------------------

 --------------------------------------------------------
 step_1001_chromophore_18 TDDFT with cam-b3lyp functional
 --------------------------------------------------------
 Symbolic Z-matrix:
 Charge =  0 Multiplicity = 1

                         Standard orientation:
 ---------------------------------------------------------------------
 Center     Atomic      Atomic             Coordinates (Angstroms)
 Number     Number       Type             X           Y           Z
 ---------------------------------------------------------------------
      1         12           0        5.410065    1.211995   -0.054534
      2          6           0        4.824515   -2.309251   -0.019400
      3          6           0        1.990563    1.464592   -0.756916
      4          6           0        5.756545    4.534989    0.177177
      5          6           0        8.740897    0.703236    0.206132
      6          7           0        3.666259   -0.331179   -0.448329
      7          6           0        3.617243   -1.657357   -0.221296
      8          6           0        2.186669   -2.212829   -0.138637
      9          6           0        1.368362   -1.034023   -0.704891
     10          6           0        2.396093    0.116260   -0.641497
     11          6           0        0.715015   -1.278986   -2.102611
     12          6           0        1.840845   -2.571876    1.278027
     13          6           0        0.824845   -3.748502    1.433333
     14          6           0       -0.034706   -4.197034    0.255240
     15          8           0        0.273580   -5.107868   -0.503735
     16          8           0       -1.203945   -3.501863    0.212282
     17          7           0        4.069795    2.726405   -0.226476
     18          6           0        2.723589    2.657598   -0.520345
     19          6           0        2.153397    3.991989   -0.496063
     20          6           0        3.201478    4.965462   -0.216694
     21          6           0        4.404118    4.099152   -0.068167
     22          6           0        0.744919    4.289095   -0.717108
     23          6           0        3.144477    6.517220   -0.182025
     24          8           0        4.133989    7.136653    0.161742
     25          6           0        1.875173    7.225762   -0.450081
     26          7           0        6.963700    2.398075    0.169640
     27          6           0        6.895157    3.766869    0.121939
     28          6           0        8.355307    4.411603    0.016076
     29          6           0        9.237676    3.189292    0.379437
     30          6           0        8.258423    1.998838    0.238339
     31          6           0        8.598538    5.091080   -1.251211
     32          6           0        9.967939    3.333724    1.761178
     33          6           0        9.117972    2.963543    3.049867
     34          7           0        6.618610   -0.431674    0.033714
     35          6           0        7.931113   -0.482153    0.142626
     36          6           0        8.414731   -1.919674    0.080712
     37          6           0        7.196392   -2.643749    0.050805
     38          6           0        6.129748   -1.690201    0.112826
     39          6           0        9.731671   -2.419393    0.085485
     40          6           0        6.717096   -4.007213    0.048072
     41          8           0        7.295547   -5.091610   -0.095357
     42          6           0        5.088200   -3.775428    0.097942
     43          6           0        4.548402   -4.475467   -1.089251
     44          8           0        4.640555   -4.161276   -2.267226
     45          8           0        4.127223   -5.702465   -0.720044
     46          6           0        3.916264   -6.680672   -1.839283
     47          6           0       -2.307393   -4.027826   -0.579712
     48          6           0       -3.479599   -3.180654   -0.088466
     49          6           0       -4.753215   -3.047766   -0.496503
     50          6           0       -5.343744   -3.883615   -1.566351
     51          6           0       -5.699637   -1.995584    0.103246
     52          6           0       -6.799680   -2.504987    1.124399
     53          6           0       -7.054962   -1.485197    2.204767
     54          6           0       -8.580777   -1.178686    2.564250
     55          6           0       -8.710831   -0.797381    4.040373
     56          6           0       -9.196535   -0.122617    1.574212
     57          6           0      -10.100210   -0.758742    0.546006
     58          6           0      -11.534427   -0.863841    1.235556
     59          6           0      -12.327926    0.409882    0.898294
     60          6           0      -13.225700    0.918485    2.075009
     61          6           0      -13.049975    0.337098   -0.448906
     62          6           0      -12.998610    1.658579   -1.175168
     63          6           0      -14.170599    2.550463   -0.775998
     64          6           0      -14.914598    3.025668   -2.006238
     65          6           0      -14.998429    4.624897   -2.007174
     66          6           0      -16.357431    2.447749   -2.018278
     67          1           0        0.939129    1.519157   -1.049327
     68          1           0        5.920643    5.612001    0.255899
     69          1           0        9.818922    0.585232    0.328511
     70          1           0        2.193447   -3.165965   -0.667581
     71          1           0        0.598286   -0.669338   -0.024992
     72          1           0        1.300411   -1.890431   -2.789954
     73          1           0        0.535295   -0.306746   -2.562444
     74          1           0       -0.185213   -1.865784   -1.922579
     75          1           0        1.338968   -1.712504    1.723843
     76          1           0        2.719470   -2.802253    1.880072
     77          1           0        0.067211   -3.402217    2.136311
     78          1           0        1.323047   -4.679205    1.702292
     79          1           0        0.150258    3.398094   -0.917390
     80          1           0        0.756781    4.831598   -1.662100
     81          1           0        0.381489    4.761181    0.196335
     82          1           0        1.083511    7.031300    0.273887
     83          1           0        1.550625    6.963854   -1.457121
     84          1           0        2.051735    8.298329   -0.518458
     85          1           0        8.419108    5.177628    0.788921
     86          1           0       10.028864    3.022701   -0.352444
     87          1           0        7.882099    4.661559   -1.951452
     88          1           0        9.502135    4.821396   -1.799655
     89          1           0        8.643830    6.179772   -1.223270
     90          1           0       10.388332    4.332888    1.875294
     91          1           0       10.773244    2.599426    1.801492
     92          1           0        9.289705    3.771003    3.761209
     93          1           0        9.407435    1.985115    3.434426
     94          1           0        8.046780    2.919324    2.852269
     95          1           0       10.357669   -1.724729    0.645943
     96          1           0       10.278925   -2.679434   -0.820823
     97          1           0        9.657924   -3.291230    0.735536
     98          1           0        4.679609   -4.175154    1.024869
     99          1           0        4.777479   -6.691855   -2.506717
    100          1           0        3.012290   -6.326699   -2.334450
    101          1           0        3.752847   -7.672793   -1.417522
    102          1           0       -2.532307   -5.053237   -0.286399
    103          1           0       -2.248396   -4.003628   -1.667884
    104          1           0       -3.005161   -2.476161    0.594245
    105          1           0       -6.261229   -3.516924   -2.025507
    106          1           0       -5.574817   -4.834742   -1.086699
    107          1           0       -4.753491   -4.222286   -2.418012
    108          1           0       -6.184720   -1.396136   -0.666712
    109          1           0       -4.940411   -1.381839    0.589197
    110          1           0       -6.580560   -3.509468    1.485464
    111          1           0       -7.716704   -2.582506    0.540784
    112          1           0       -6.573264   -0.544306    1.937669
    113          1           0       -6.465994   -1.764505    3.078898
    114          1           0       -9.102077   -2.130067    2.458829
    115          1           0       -7.756486   -0.682756    4.555546
    116          1           0       -9.150819   -1.493263    4.753695
    117          1           0       -9.246751    0.144579    4.155809
    118          1           0       -8.364401    0.447351    1.162779
    119          1           0       -9.760422    0.611748    2.149295
    120          1           0       -9.810750   -1.779513    0.298206
    121          1           0      -10.151199   -0.141055   -0.351090
    122          1           0      -11.414404   -1.062065    2.300919
    123          1           0      -12.091548   -1.711236    0.837489
    124          1           0      -11.568160    1.183635    0.783629
    125          1           0      -13.054082    1.988386    2.194053
    126          1           0      -12.936229    0.276730    2.907762
    127          1           0      -14.301717    0.855851    1.911345
    128          1           0      -14.053167   -0.077588   -0.349123
    129          1           0      -12.514860   -0.423490   -1.017469
    130          1           0      -12.942332    1.426834   -2.238930
    131          1           0      -12.127202    2.286637   -0.987558
    132          1           0      -13.796657    3.435120   -0.259872
    133          1           0      -14.814812    2.110159   -0.015724
    134          1           0      -14.458801    2.710447   -2.944978
    135          1           0      -15.096479    5.019656   -0.996351
    136          1           0      -15.873959    4.986692   -2.547360
    137          1           0      -14.118683    5.188218   -2.318198
    138          1           0      -16.437778    1.695793   -2.801576
    139          1           0      -17.045624    3.215309   -2.373382
    140          1           0      -16.747092    2.085964   -1.066712
 ---------------------------------------------------------------------

 SCF Done:  E(RCAM-B3LYP) =  -3007.18352289     A.U. after   17 cycles

 Excitation energies and oscillator strengths:

 Excited State   1:      Singlet-A      1.6783 eV  738.77 nm  f=0.3898  <S**2>=0.000
     245 -> 248        0.17503
     246 -> 247        0.68673
     245 <- 248        0.10703
 This state for optimization and/or second-order correction.
 Total Energy, E(TD-HF/TD-DFT) =  -3007.12184791
 Copying the excited state density for this state as the 1-particle RhoCI density.

 Excited State   2:      Singlet-A      2.2489 eV  551.30 nm  f=0.1346  <S**2>=0.000
     245 -> 247        0.64468
     246 -> 248       -0.27886

 Excited State   3:      Singlet-A      3.3948 eV  365.22 nm  f=0.0033  <S**2>=0.000
     243 -> 247        0.18979
     244 -> 247        0.65478
     246 -> 248        0.12210

 Excited State   4:      Singlet-A      3.5332 eV  350.91 nm  f=0.2857  <S**2>=0.000
     240 -> 247        0.19259
     240 -> 249       -0.16553
     241 -> 247        0.31693
     241 -> 249       -0.17047
     243 -> 247        0.19424
     244 -> 247       -0.10821
     245 -> 247        0.17962
     246 -> 248        0.44526

 Excited State   5:      Singlet-A      3.5768 eV  346.63 nm  f=0.1956  <S**2>=0.000
     240 -> 247       -0.33497
     240 -> 249        0.22023
     241 -> 247       -0.25613
     241 -> 249        0.19388
     243 -> 247        0.16394
     244 -> 247       -0.13639
     245 -> 247        0.15462
     246 -> 248        0.35944

 The electronic state is 1-A.
 Alpha  occ. eigenvalues --  -46.87231 -19.26457 -19.23351 -19.20385 -19.19713
 Alpha  occ. eigenvalues --  -19.19094 -19.18107 -14.41991 -14.41329 -14.39671
 Alpha  occ. eigenvalues --  -14.39553 -10.39969 -10.37685 -10.35748 -10.35576
 Alpha  occ. eigenvalues --  -10.33087 -10.30982 -10.30507 -10.30499 -10.30461
 Alpha  occ. eigenvalues --  -10.30375 -10.30362 -10.29959 -10.29867 -10.29064
 Alpha  occ. eigenvalues --  -10.28291 -10.28131 -10.27907 -10.27856 -10.27758
 Alpha  occ. eigenvalues --  -10.27716 -10.27710 -10.27691 -10.27402 -10.27362
 Alpha  occ. eigenvalues --  -10.27331 -10.27079 -10.26892 -10.26669 -10.26434
 Alpha  occ. eigenvalues --  -10.26391 -10.26382 -10.26314 -10.26140 -10.26055
 Alpha  occ. eigenvalues --  -10.26003 -10.25889 -10.25768 -10.25763 -10.25574
 Alpha  occ. eigenvalues --  -10.25451 -10.25284 -10.25202 -10.25173 -10.25164
 Alpha  occ. eigenvalues --  -10.25140 -10.24996 -10.24987 -10.24794 -10.24498
 Alpha  occ. eigenvalues --  -10.24454 -10.24446 -10.24418 -10.24407 -10.24252
 Alpha  occ. eigenvalues --  -10.24189  -3.16150  -1.91036  -1.90616  -1.90470
 Alpha  occ. eigenvalues --   -1.17520  -1.15183  -1.10634  -1.09121  -1.08720
 Alpha  occ. eigenvalues --   -1.05697  -1.04750  -1.03842  -1.02977  -1.01038
 Alpha  occ. eigenvalues --   -0.92373  -0.90900  -0.90635  -0.90194  -0.89082
 Alpha  occ. eigenvalues --   -0.88503  -0.88293  -0.87668  -0.87428  -0.87121
 Alpha  occ. eigenvalues --   -0.86743  -0.85699  -0.84510  -0.83462  -0.83229
 Alpha  occ. eigenvalues --   -0.82586  -0.82355  -0.81609  -0.80928  -0.80182
 Alpha  occ. eigenvalues --   -0.79920  -0.78534  -0.77983  -0.76759  -0.76265
 Alpha  occ. eigenvalues --   -0.75600  -0.75474  -0.75088  -0.74672  -0.74222
 Alpha  occ. eigenvalues --   -0.73282  -0.72145  -0.71241  -0.70472  -0.69011
 Alpha  occ. eigenvalues --   -0.68557  -0.68433  -0.67264  -0.66951  -0.66073
 Alpha  occ. eigenvalues --   -0.65741  -0.65268  -0.64719  -0.64600  -0.64180
 Alpha  occ. eigenvalues --   -0.63993  -0.63947  -0.62886  -0.60609  -0.60231
 Alpha  occ. eigenvalues --   -0.59619  -0.59560  -0.58882  -0.58391  -0.57542
 Alpha  occ. eigenvalues --   -0.57268  -0.56626  -0.56188  -0.55755  -0.55365
 Alpha  occ. eigenvalues --   -0.55114  -0.54987  -0.54706  -0.54468  -0.53709
 Alpha  occ. eigenvalues --   -0.53612  -0.53550  -0.53346  -0.52915  -0.52838
 Alpha  occ. eigenvalues --   -0.52477  -0.52429  -0.52321  -0.52000  -0.51898
 Alpha  occ. eigenvalues --   -0.51409  -0.51245  -0.51102  -0.51046  -0.50894
 Alpha  occ. eigenvalues --   -0.50651  -0.50426  -0.50209  -0.49886  -0.49720
 Alpha  occ. eigenvalues --   -0.49530  -0.49396  -0.49102  -0.49051  -0.48935
 Alpha  occ. eigenvalues --   -0.48748  -0.48397  -0.48164  -0.47968  -0.47858
 Alpha  occ. eigenvalues --   -0.47356  -0.47333  -0.46935  -0.46878  -0.46768
 Alpha  occ. eigenvalues --   -0.46335  -0.46111  -0.46007  -0.45754  -0.45711
 Alpha  occ. eigenvalues --   -0.45220  -0.45061  -0.44982  -0.44841  -0.44727
 Alpha  occ. eigenvalues --   -0.44386  -0.44291  -0.44222  -0.44140  -0.43975
 Alpha  occ. eigenvalues --   -0.43922  -0.43632  -0.43581  -0.43274  -0.43134
 Alpha  occ. eigenvalues --   -0.43066  -0.42982  -0.42647  -0.42550  -0.42445
 Alpha  occ. eigenvalues --   -0.42145  -0.41956  -0.41898  -0.41789  -0.40750
 Alpha  occ. eigenvalues --   -0.40584  -0.40473  -0.40438  -0.40255  -0.40090
 Alpha  occ. eigenvalues --   -0.39785  -0.39494  -0.39310  -0.39080  -0.39026
 Alpha  occ. eigenvalues --   -0.38442  -0.38224  -0.38192  -0.37961  -0.37235
 Alpha  occ. eigenvalues --   -0.37178  -0.36877  -0.36820  -0.36538  -0.36130
 Alpha  occ. eigenvalues --   -0.35888  -0.35340  -0.35288  -0.34346  -0.34293
 Alpha  occ. eigenvalues --   -0.34193  -0.33183  -0.32620  -0.31502  -0.31107
 Alpha  occ. eigenvalues --   -0.30729  -0.29994  -0.29816  -0.29455  -0.23748
 Alpha  occ. eigenvalues --   -0.20778
 Alpha virt. eigenvalues --   -0.08471  -0.01164   0.00129   0.02182   0.03678
 Alpha virt. eigenvalues --    0.04130   0.05553   0.05703   0.06245   0.06683
 Alpha virt. eigenvalues --    0.08041   0.08540   0.08811   0.09049   0.09205

 Mulliken charges:
               1
     1  Mg   0.863826
     2  C   -0.010001
     3  C   -0.100284
     4  C   -0.061303
     5  C   -0.098282
     6  N   -0.217592
     7  C   -0.053573
     8  C   -0.040618
     9  C   -0.025747
    10  C   -0.014977
    11  C    0.080498
    12  C    0.090698
    13  C    0.074637
    14  C    0.129129
    15  O   -0.233413
    16  O   -0.334816
    17  N   -0.419738
    18  C    0.214895
    19  C   -0.200360
    20  C   -0.049846
    21  C    0.113193
    22  C    0.141247
    23  C    0.011554
    24  O   -0.193078
    25  C    0.067171
    26  N   -0.363743
    27  C    0.063148
    28  C   -0.031620
    29  C   -0.006320
    30  C    0.073266
    31  C    0.092754
    32  C    0.011949
    33  C   -0.010505
    34  N   -0.324506
    35  C    0.112096
    36  C   -0.134525
    37  C   -0.022980
    38  C    0.120887
    39  C    0.098467
    40  C    0.088256
    41  O   -0.176104
    42  C   -0.044854
    43  C    0.179730
    44  O   -0.235350
    45  O   -0.333634
    46  C    0.185344
    47  C    0.299528
    48  C   -0.191834
    49  C   -0.134771
    50  C    0.059543
    51  C    0.055991
    52  C    0.058661
    53  C    0.035897
    54  C   -0.130284
    55  C    0.040493
    56  C    0.078213
    57  C    0.015768
    58  C    0.034757
    59  C   -0.154138
    60  C    0.069034
    61  C    0.070598
    62  C    0.021452
    63  C    0.074581
    64  C   -0.139121
    65  C    0.015978
    66  C    0.042328
    67  H   -0.031053
    68  H   -0.004077
    69  H   -0.032364
    70  H    0.032243
    71  H    0.005323
    72  H    0.031962
    73  H    0.011426
    74  H    0.016941
    75  H    0.001779
    76  H    0.018583
    77  H    0.022223
    78  H    0.044421
    79  H   -0.000604
    80  H    0.033353
    81  H    0.040583
    82  H    0.046937
    83  H    0.022768
    84  H    0.023233
    85  H    0.004163
    86  H   -0.001247
    87  H    0.009364
    88  H   -0.002953
    89  H    0.026602
    90  H    0.014751
    91  H    0.003500
    92  H    0.016336
    93  H    0.019719
    94  H    0.026609
    95  H   -0.001233
    96  H    0.049096
    97  H    0.028890
    98  H    0.035071
    99  H    0.048976
   100  H    0.042828
   101  H    0.037049
   102  H    0.030141
   103  H    0.042940
   104  H    0.010370
   105  H    0.013302
   106  H    0.022276
   107  H    0.010573
   108  H    0.009925
   109  H    0.000120
   110  H    0.006584
   111  H   -0.010478
   112  H   -0.006938
   113  H   -0.006423
   114  H   -0.000515
   115  H   -0.006101
   116  H    0.004869
   117  H    0.001104
   118  H   -0.012971
   119  H   -0.005617
   120  H    0.004015
   121  H    0.002127
   122  H   -0.004316
   123  H   -0.011879
   124  H   -0.013206
   125  H    0.006994
   126  H    0.003014
   127  H    0.004917
   128  H   -0.002766
   129  H   -0.025778
   130  H   -0.003548
   131  H   -0.004543
   132  H   -0.015484
   133  H   -0.006145
   134  H    0.006449
   135  H   -0.001625
   136  H    0.005908
   137  H    0.005052
   138  H    0.003581
   139  H   -0.008266
   140  H    0.013485
 Sum of Mulliken charges =  -0.00000

 Dipole moment (field-independent basis, Debye):
    X=             -5.3893    Y=              2.4113    Z=              1.1937  Tot=              6.0236
 Quadrupole moment (field-independent basis, Debye-Ang):
   XX=           -392.5518   YY=           -426.9818   ZZ=           -405.3557
   XY=             26.6084   XZ=             13.3512   YZ=             -9.7686

 Normal termination of Gaussian 16 at Tue Apr 26 19:47:32 2022.
