 Gaussian 16, Revision A.03,
 Gaussian 16:  ES64L-G16RevA.03 25-Dec-2016

 ---------------------------------
 #p PBE1PBE/Def2SVP td=(nstates=5)
 ---------------------------------

 ------------------------------------------------------
 step_1001_chromophore_18 TDDFT with PBE1PBE functional
 ------------------------------------------------------
 Symbolic Z-matrix:
 Charge =  0 Multiplicity = 1

                         Standard orientation:
 ---------------------------------------------------------------------
 Center     Atomic      Atomic             Coordinates (Angstroms)
 Number     Number       Type             X           Y           Z
 ---------------------------------------------------------------------
      1         12           0        5.410065    1.211995   -0.054534
      2          6           0        4.824515   -2.309251   -0.019400
      3          6           0        1.990563    1.464592   -0.756916
      4          6           0        5.756545    4.534989    0.177177
      5          6           0        8.740897    0.703236    0.206132
      6          7           0        3.666259   -0.331179   -0.448329
      7          6           0        3.617243   -1.657357   -0.221296
      8          6           0        2.186669   -2.212829   -0.138637
      9          6           0        1.368362   -1.034023   -0.704891
     10          6           0        2.396093    0.116260   -0.641497
     11          6           0        0.715015   -1.278986   -2.102611
     12          6           0        1.840845   -2.571876    1.278027
     13          6           0        0.824845   -3.748502    1.433333
     14          6           0       -0.034706   -4.197034    0.255240
     15          8           0        0.273580   -5.107868   -0.503735
     16          8           0       -1.203945   -3.501863    0.212282
     17          7           0        4.069795    2.726405   -0.226476
     18          6           0        2.723589    2.657598   -0.520345
     19          6           0        2.153397    3.991989   -0.496063
     20          6           0        3.201478    4.965462   -0.216694
     21          6           0        4.404118    4.099152   -0.068167
     22          6           0        0.744919    4.289095   -0.717108
     23          6           0        3.144477    6.517220   -0.182025
     24          8           0        4.133989    7.136653    0.161742
     25          6           0        1.875173    7.225762   -0.450081
     26          7           0        6.963700    2.398075    0.169640
     27          6           0        6.895157    3.766869    0.121939
     28          6           0        8.355307    4.411603    0.016076
     29          6           0        9.237676    3.189292    0.379437
     30          6           0        8.258423    1.998838    0.238339
     31          6           0        8.598538    5.091080   -1.251211
     32          6           0        9.967939    3.333724    1.761178
     33          6           0        9.117972    2.963543    3.049867
     34          7           0        6.618610   -0.431674    0.033714
     35          6           0        7.931113   -0.482153    0.142626
     36          6           0        8.414731   -1.919674    0.080712
     37          6           0        7.196392   -2.643749    0.050805
     38          6           0        6.129748   -1.690201    0.112826
     39          6           0        9.731671   -2.419393    0.085485
     40          6           0        6.717096   -4.007213    0.048072
     41          8           0        7.295547   -5.091610   -0.095357
     42          6           0        5.088200   -3.775428    0.097942
     43          6           0        4.548402   -4.475467   -1.089251
     44          8           0        4.640555   -4.161276   -2.267226
     45          8           0        4.127223   -5.702465   -0.720044
     46          6           0        3.916264   -6.680672   -1.839283
     47          6           0       -2.307393   -4.027826   -0.579712
     48          6           0       -3.479599   -3.180654   -0.088466
     49          6           0       -4.753215   -3.047766   -0.496503
     50          6           0       -5.343744   -3.883615   -1.566351
     51          6           0       -5.699637   -1.995584    0.103246
     52          6           0       -6.799680   -2.504987    1.124399
     53          6           0       -7.054962   -1.485197    2.204767
     54          6           0       -8.580777   -1.178686    2.564250
     55          6           0       -8.710831   -0.797381    4.040373
     56          6           0       -9.196535   -0.122617    1.574212
     57          6           0      -10.100210   -0.758742    0.546006
     58          6           0      -11.534427   -0.863841    1.235556
     59          6           0      -12.327926    0.409882    0.898294
     60          6           0      -13.225700    0.918485    2.075009
     61          6           0      -13.049975    0.337098   -0.448906
     62          6           0      -12.998610    1.658579   -1.175168
     63          6           0      -14.170599    2.550463   -0.775998
     64          6           0      -14.914598    3.025668   -2.006238
     65          6           0      -14.998429    4.624897   -2.007174
     66          6           0      -16.357431    2.447749   -2.018278
     67          1           0        0.939129    1.519157   -1.049327
     68          1           0        5.920643    5.612001    0.255899
     69          1           0        9.818922    0.585232    0.328511
     70          1           0        2.193447   -3.165965   -0.667581
     71          1           0        0.598286   -0.669338   -0.024992
     72          1           0        1.300411   -1.890431   -2.789954
     73          1           0        0.535295   -0.306746   -2.562444
     74          1           0       -0.185213   -1.865784   -1.922579
     75          1           0        1.338968   -1.712504    1.723843
     76          1           0        2.719470   -2.802253    1.880072
     77          1           0        0.067211   -3.402217    2.136311
     78          1           0        1.323047   -4.679205    1.702292
     79          1           0        0.150258    3.398094   -0.917390
     80          1           0        0.756781    4.831598   -1.662100
     81          1           0        0.381489    4.761181    0.196335
     82          1           0        1.083511    7.031300    0.273887
     83          1           0        1.550625    6.963854   -1.457121
     84          1           0        2.051735    8.298329   -0.518458
     85          1           0        8.419108    5.177628    0.788921
     86          1           0       10.028864    3.022701   -0.352444
     87          1           0        7.882099    4.661559   -1.951452
     88          1           0        9.502135    4.821396   -1.799655
     89          1           0        8.643830    6.179772   -1.223270
     90          1           0       10.388332    4.332888    1.875294
     91          1           0       10.773244    2.599426    1.801492
     92          1           0        9.289705    3.771003    3.761209
     93          1           0        9.407435    1.985115    3.434426
     94          1           0        8.046780    2.919324    2.852269
     95          1           0       10.357669   -1.724729    0.645943
     96          1           0       10.278925   -2.679434   -0.820823
     97          1           0        9.657924   -3.291230    0.735536
     98          1           0        4.679609   -4.175154    1.024869
     99          1           0        4.777479   -6.691855   -2.506717
    100          1           0        3.012290   -6.326699   -2.334450
    101          1           0        3.752847   -7.672793   -1.417522
    102          1           0       -2.532307   -5.053237   -0.286399
    103          1           0       -2.248396   -4.003628   -1.667884
    104          1           0       -3.005161   -2.476161    0.594245
    105          1           0       -6.261229   -3.516924   -2.025507
    106          1           0       -5.574817   -4.834742   -1.086699
    107          1           0       -4.753491   -4.222286   -2.418012
    108          1           0       -6.184720   -1.396136   -0.666712
    109          1           0       -4.940411   -1.381839    0.589197
    110          1           0       -6.580560   -3.509468    1.485464
    111          1           0       -7.716704   -2.582506    0.540784
    112          1           0       -6.573264   -0.544306    1.937669
    113          1           0       -6.465994   -1.764505    3.078898
    114          1           0       -9.102077   -2.130067    2.458829
    115          1           0       -7.756486   -0.682756    4.555546
    116          1           0       -9.150819   -1.493263    4.753695
    117          1           0       -9.246751    0.144579    4.155809
    118          1           0       -8.364401    0.447351    1.162779
    119          1           0       -9.760422    0.611748    2.149295
    120          1           0       -9.810750   -1.779513    0.298206
    121          1           0      -10.151199   -0.141055   -0.351090
    122          1           0      -11.414404   -1.062065    2.300919
    123          1           0      -12.091548   -1.711236    0.837489
    124          1           0      -11.568160    1.183635    0.783629
    125          1           0      -13.054082    1.988386    2.194053
    126          1           0      -12.936229    0.276730    2.907762
    127          1           0      -14.301717    0.855851    1.911345
    128          1           0      -14.053167   -0.077588   -0.349123
    129          1           0      -12.514860   -0.423490   -1.017469
    130          1           0      -12.942332    1.426834   -2.238930
    131          1           0      -12.127202    2.286637   -0.987558
    132          1           0      -13.796657    3.435120   -0.259872
    133          1           0      -14.814812    2.110159   -0.015724
    134          1           0      -14.458801    2.710447   -2.944978
    135          1           0      -15.096479    5.019656   -0.996351
    136          1           0      -15.873959    4.986692   -2.547360
    137          1           0      -14.118683    5.188218   -2.318198
    138          1           0      -16.437778    1.695793   -2.801576
    139          1           0      -17.045624    3.215309   -2.373382
    140          1           0      -16.747092    2.085964   -1.066712
 ---------------------------------------------------------------------

 SCF Done:  E(RPBE1PBE) =  -3005.37275938     A.U. after   15 cycles

 Excitation energies and oscillator strengths:

 Excited State   1:      Singlet-A      1.8363 eV  675.18 nm  f=0.3771  <S**2>=0.000
     245 -> 248        0.16539
     246 -> 247        0.69495
     246 <- 247       -0.11402
 This state for optimization and/or second-order correction.
 Total Energy, E(TD-HF/TD-DFT) =  -3005.30527634
 Copying the excited state density for this state as the 1-particle RhoCI density.

 Excited State   2:      Singlet-A      2.2419 eV  553.04 nm  f=0.1270  <S**2>=0.000
     245 -> 247        0.65497
     246 -> 248       -0.25270

 Excited State   3:      Singlet-A      3.0638 eV  404.67 nm  f=0.0020  <S**2>=0.000
     241 -> 247       -0.11865
     244 -> 247        0.68403

 Excited State   4:      Singlet-A      3.1302 eV  396.08 nm  f=0.0026  <S**2>=0.000
     241 -> 247        0.63999
     241 -> 249       -0.19929
     244 -> 247        0.10481

 Excited State   5:      Singlet-A      3.2489 eV  381.62 nm  f=0.0013  <S**2>=0.000
     242 -> 247        0.64277
     246 -> 248        0.14385
     246 -> 249       -0.16953

 The electronic state is 1-A.
 Alpha  occ. eigenvalues --  -46.90673 -19.27129 -19.23960 -19.20647 -19.19948
 Alpha  occ. eigenvalues --  -19.19289 -19.18285 -14.41332 -14.41015 -14.39358
 Alpha  occ. eigenvalues --  -14.39187 -10.37018 -10.34636 -10.32896 -10.32691
 Alpha  occ. eigenvalues --  -10.30479 -10.28635 -10.28214 -10.28193 -10.28153
 Alpha  occ. eigenvalues --  -10.28128 -10.27699 -10.27646 -10.27625 -10.26879
 Alpha  occ. eigenvalues --  -10.25896 -10.25861 -10.25665 -10.25508 -10.25429
 Alpha  occ. eigenvalues --  -10.25394 -10.25293 -10.25218 -10.25102 -10.25043
 Alpha  occ. eigenvalues --  -10.24950 -10.24854 -10.24692 -10.24113 -10.24111
 Alpha  occ. eigenvalues --  -10.24025 -10.23922 -10.23882 -10.23687 -10.23650
 Alpha  occ. eigenvalues --  -10.23482 -10.23348 -10.23322 -10.23295 -10.23251
 Alpha  occ. eigenvalues --  -10.23019 -10.22968 -10.22843 -10.22745 -10.22742
 Alpha  occ. eigenvalues --  -10.22735 -10.22576 -10.22438 -10.22247 -10.21981
 Alpha  occ. eigenvalues --  -10.21955 -10.21917 -10.21849 -10.21800 -10.21733
 Alpha  occ. eigenvalues --  -10.21647  -3.13161  -1.85991  -1.85550  -1.85406
 Alpha  occ. eigenvalues --   -1.12327  -1.09900  -1.05361  -1.03855  -1.03566
 Alpha  occ. eigenvalues --   -1.00462  -0.99435  -0.98448  -0.97657  -0.95659
 Alpha  occ. eigenvalues --   -0.86688  -0.85035  -0.84763  -0.84346  -0.83188
 Alpha  occ. eigenvalues --   -0.82792  -0.82603  -0.81975  -0.81550  -0.81432
 Alpha  occ. eigenvalues --   -0.81024  -0.79939  -0.78693  -0.77706  -0.77515
 Alpha  occ. eigenvalues --   -0.76728  -0.76584  -0.75819  -0.75241  -0.74330
 Alpha  occ. eigenvalues --   -0.74243  -0.72805  -0.72275  -0.71072  -0.70422
 Alpha  occ. eigenvalues --   -0.69910  -0.69561  -0.69171  -0.69052  -0.68399
 Alpha  occ. eigenvalues --   -0.67587  -0.66601  -0.65570  -0.64873  -0.63398
 Alpha  occ. eigenvalues --   -0.62991  -0.62688  -0.61653  -0.61188  -0.60338
 Alpha  occ. eigenvalues --   -0.60144  -0.59681  -0.59161  -0.58818  -0.58694
 Alpha  occ. eigenvalues --   -0.58493  -0.58154  -0.57053  -0.55127  -0.54708
 Alpha  occ. eigenvalues --   -0.54154  -0.54069  -0.53471  -0.53005  -0.52017
 Alpha  occ. eigenvalues --   -0.51729  -0.51010  -0.50758  -0.50365  -0.49838
 Alpha  occ. eigenvalues --   -0.49699  -0.49458  -0.49131  -0.48951  -0.48158
 Alpha  occ. eigenvalues --   -0.48052  -0.47935  -0.47855  -0.47446  -0.47309
 Alpha  occ. eigenvalues --   -0.47130  -0.46931  -0.46880  -0.46604  -0.46478
 Alpha  occ. eigenvalues --   -0.45939  -0.45805  -0.45598  -0.45561  -0.45431
 Alpha  occ. eigenvalues --   -0.45275  -0.44970  -0.44770  -0.44431  -0.44332
 Alpha  occ. eigenvalues --   -0.44103  -0.43956  -0.43738  -0.43672  -0.43506
 Alpha  occ. eigenvalues --   -0.43306  -0.42983  -0.42787  -0.42591  -0.42483
 Alpha  occ. eigenvalues --   -0.42060  -0.41952  -0.41612  -0.41540  -0.41335
 Alpha  occ. eigenvalues --   -0.40943  -0.40912  -0.40671  -0.40485  -0.40437
 Alpha  occ. eigenvalues --   -0.39912  -0.39713  -0.39612  -0.39550  -0.39457
 Alpha  occ. eigenvalues --   -0.39216  -0.39074  -0.38998  -0.38859  -0.38741
 Alpha  occ. eigenvalues --   -0.38600  -0.38452  -0.38337  -0.37969  -0.37856
 Alpha  occ. eigenvalues --   -0.37830  -0.37779  -0.37408  -0.37343  -0.37237
 Alpha  occ. eigenvalues --   -0.36901  -0.36766  -0.36687  -0.36595  -0.35595
 Alpha  occ. eigenvalues --   -0.35334  -0.35270  -0.35257  -0.35017  -0.34965
 Alpha  occ. eigenvalues --   -0.34696  -0.34248  -0.34233  -0.34060  -0.33766
 Alpha  occ. eigenvalues --   -0.33215  -0.33192  -0.33017  -0.32911  -0.32203
 Alpha  occ. eigenvalues --   -0.32067  -0.31894  -0.31706  -0.31404  -0.30980
 Alpha  occ. eigenvalues --   -0.30964  -0.30206  -0.30201  -0.29540  -0.29203
 Alpha  occ. eigenvalues --   -0.29038  -0.28461  -0.27659  -0.26647  -0.26192
 Alpha  occ. eigenvalues --   -0.25851  -0.25499  -0.25280  -0.25073  -0.20683
 Alpha  occ. eigenvalues --   -0.18401
 Alpha virt. eigenvalues --   -0.10925  -0.04763  -0.04101  -0.02177  -0.00714
 Alpha virt. eigenvalues --    0.01052   0.01176   0.01620   0.02033   0.02928
 Alpha virt. eigenvalues --    0.03895   0.04858   0.05284   0.05541   0.05763

 Mulliken charges:
               1
     1  Mg   1.023847
     2  C   -0.034895
     3  C   -0.091443
     4  C   -0.045507
     5  C   -0.078626
     6  N   -0.321842
     7  C    0.024612
     8  C   -0.121678
     9  C   -0.102233
    10  C    0.029397
    11  C    0.020293
    12  C    0.046340
    13  C    0.000404
    14  C    0.197115
    15  O   -0.266650
    16  O   -0.368761
    17  N   -0.535663
    18  C    0.241492
    19  C   -0.239016
    20  C   -0.081317
    21  C    0.133697
    22  C    0.074525
    23  C    0.059567
    24  O   -0.230196
    25  C   -0.004767
    26  N   -0.475391
    27  C    0.084166
    28  C   -0.110523
    29  C   -0.075189
    30  C    0.104718
    31  C    0.039442
    32  C   -0.049395
    33  C   -0.083222
    34  N   -0.453851
    35  C    0.134326
    36  C   -0.156523
    37  C   -0.063083
    38  C    0.173835
    39  C    0.044026
    40  C    0.173708
    41  O   -0.221119
    42  C   -0.145171
    43  C    0.271286
    44  O   -0.269831
    45  O   -0.366787
    46  C    0.129102
    47  C    0.262714
    48  C   -0.199127
    49  C   -0.189188
    50  C    0.004654
    51  C   -0.007063
    52  C   -0.008182
    53  C   -0.014925
    54  C   -0.219685
    55  C   -0.014061
    56  C    0.026211
    57  C   -0.056819
    58  C   -0.022323
    59  C   -0.232635
    60  C    0.010166
    61  C    0.010397
    62  C   -0.042529
    63  C    0.027224
    64  C   -0.235931
    65  C   -0.045157
    66  C   -0.013630
    67  H   -0.000075
    68  H    0.027983
    69  H   -0.000399
    70  H    0.077032
    71  H    0.041470
    72  H    0.058587
    73  H    0.039227
    74  H    0.049488
    75  H    0.034313
    76  H    0.051836
    77  H    0.055015
    78  H    0.075415
    79  H    0.028716
    80  H    0.061629
    81  H    0.067957
    82  H    0.072628
    83  H    0.050222
    84  H    0.050918
    85  H    0.041041
    86  H    0.036064
    87  H    0.038150
    88  H    0.025029
    89  H    0.052863
    90  H    0.046914
    91  H    0.036299
    92  H    0.044304
    93  H    0.047063
    94  H    0.057098
    95  H    0.027221
    96  H    0.075512
    97  H    0.057542
    98  H    0.071500
    99  H    0.070209
   100  H    0.064494
   101  H    0.058666
   102  H    0.057652
   103  H    0.067029
   104  H    0.039839
   105  H    0.039305
   106  H    0.050173
   107  H    0.037062
   108  H    0.042311
   109  H    0.032850
   110  H    0.038569
   111  H    0.027068
   112  H    0.025112
   113  H    0.026322
   114  H    0.037716
   115  H    0.020734
   116  H    0.031697
   117  H    0.027903
   118  H    0.019222
   119  H    0.027282
   120  H    0.037035
   121  H    0.035275
   122  H    0.028858
   123  H    0.021657
   124  H    0.026088
   125  H    0.034141
   126  H    0.030578
   127  H    0.031362
   128  H    0.030316
   129  H    0.008374
   130  H    0.028084
   131  H    0.027430
   132  H    0.017335
   133  H    0.025614
   134  H    0.042659
   135  H    0.025939
   136  H    0.033072
   137  H    0.033249
   138  H    0.031528
   139  H    0.018994
   140  H    0.039307
 Sum of Mulliken charges =  -0.00000

 Dipole moment (field-independent basis, Debye):
    X=             -5.2004    Y=              2.4577    Z=              1.2196  Tot=              5.8798
 Quadrupole moment (field-independent basis, Debye-Ang):
   XX=           -385.1319   YY=           -424.0863   ZZ=           -402.8737
   XY=             27.4748   XZ=             13.7146   YZ=             -9.5514

 Normal termination of Gaussian 16 at Tue Apr 26 20:16:02 2022.
