 Gaussian 16, Revision A.03,
 Gaussian 16:  ES64L-G16RevA.03 25-Dec-2016

 --------------------------------
 #p wB97XD/Def2SVP td=(nstates=5)
 --------------------------------

 -----------------------------------------------------
 step_1001_chromophore_18 TDDFT with wB97XD functional
 -----------------------------------------------------
 Symbolic Z-matrix:
 Charge =  0 Multiplicity = 1

                         Standard orientation:
 ---------------------------------------------------------------------
 Center     Atomic      Atomic             Coordinates (Angstroms)
 Number     Number       Type             X           Y           Z
 ---------------------------------------------------------------------
      1         12           0        5.410065    1.211995   -0.054534
      2          6           0        4.824515   -2.309251   -0.019400
      3          6           0        1.990563    1.464592   -0.756916
      4          6           0        5.756545    4.534989    0.177177
      5          6           0        8.740897    0.703236    0.206132
      6          7           0        3.666259   -0.331179   -0.448329
      7          6           0        3.617243   -1.657357   -0.221296
      8          6           0        2.186669   -2.212829   -0.138637
      9          6           0        1.368362   -1.034023   -0.704891
     10          6           0        2.396093    0.116260   -0.641497
     11          6           0        0.715015   -1.278986   -2.102611
     12          6           0        1.840845   -2.571876    1.278027
     13          6           0        0.824845   -3.748502    1.433333
     14          6           0       -0.034706   -4.197034    0.255240
     15          8           0        0.273580   -5.107868   -0.503735
     16          8           0       -1.203945   -3.501863    0.212282
     17          7           0        4.069795    2.726405   -0.226476
     18          6           0        2.723589    2.657598   -0.520345
     19          6           0        2.153397    3.991989   -0.496063
     20          6           0        3.201478    4.965462   -0.216694
     21          6           0        4.404118    4.099152   -0.068167
     22          6           0        0.744919    4.289095   -0.717108
     23          6           0        3.144477    6.517220   -0.182025
     24          8           0        4.133989    7.136653    0.161742
     25          6           0        1.875173    7.225762   -0.450081
     26          7           0        6.963700    2.398075    0.169640
     27          6           0        6.895157    3.766869    0.121939
     28          6           0        8.355307    4.411603    0.016076
     29          6           0        9.237676    3.189292    0.379437
     30          6           0        8.258423    1.998838    0.238339
     31          6           0        8.598538    5.091080   -1.251211
     32          6           0        9.967939    3.333724    1.761178
     33          6           0        9.117972    2.963543    3.049867
     34          7           0        6.618610   -0.431674    0.033714
     35          6           0        7.931113   -0.482153    0.142626
     36          6           0        8.414731   -1.919674    0.080712
     37          6           0        7.196392   -2.643749    0.050805
     38          6           0        6.129748   -1.690201    0.112826
     39          6           0        9.731671   -2.419393    0.085485
     40          6           0        6.717096   -4.007213    0.048072
     41          8           0        7.295547   -5.091610   -0.095357
     42          6           0        5.088200   -3.775428    0.097942
     43          6           0        4.548402   -4.475467   -1.089251
     44          8           0        4.640555   -4.161276   -2.267226
     45          8           0        4.127223   -5.702465   -0.720044
     46          6           0        3.916264   -6.680672   -1.839283
     47          6           0       -2.307393   -4.027826   -0.579712
     48          6           0       -3.479599   -3.180654   -0.088466
     49          6           0       -4.753215   -3.047766   -0.496503
     50          6           0       -5.343744   -3.883615   -1.566351
     51          6           0       -5.699637   -1.995584    0.103246
     52          6           0       -6.799680   -2.504987    1.124399
     53          6           0       -7.054962   -1.485197    2.204767
     54          6           0       -8.580777   -1.178686    2.564250
     55          6           0       -8.710831   -0.797381    4.040373
     56          6           0       -9.196535   -0.122617    1.574212
     57          6           0      -10.100210   -0.758742    0.546006
     58          6           0      -11.534427   -0.863841    1.235556
     59          6           0      -12.327926    0.409882    0.898294
     60          6           0      -13.225700    0.918485    2.075009
     61          6           0      -13.049975    0.337098   -0.448906
     62          6           0      -12.998610    1.658579   -1.175168
     63          6           0      -14.170599    2.550463   -0.775998
     64          6           0      -14.914598    3.025668   -2.006238
     65          6           0      -14.998429    4.624897   -2.007174
     66          6           0      -16.357431    2.447749   -2.018278
     67          1           0        0.939129    1.519157   -1.049327
     68          1           0        5.920643    5.612001    0.255899
     69          1           0        9.818922    0.585232    0.328511
     70          1           0        2.193447   -3.165965   -0.667581
     71          1           0        0.598286   -0.669338   -0.024992
     72          1           0        1.300411   -1.890431   -2.789954
     73          1           0        0.535295   -0.306746   -2.562444
     74          1           0       -0.185213   -1.865784   -1.922579
     75          1           0        1.338968   -1.712504    1.723843
     76          1           0        2.719470   -2.802253    1.880072
     77          1           0        0.067211   -3.402217    2.136311
     78          1           0        1.323047   -4.679205    1.702292
     79          1           0        0.150258    3.398094   -0.917390
     80          1           0        0.756781    4.831598   -1.662100
     81          1           0        0.381489    4.761181    0.196335
     82          1           0        1.083511    7.031300    0.273887
     83          1           0        1.550625    6.963854   -1.457121
     84          1           0        2.051735    8.298329   -0.518458
     85          1           0        8.419108    5.177628    0.788921
     86          1           0       10.028864    3.022701   -0.352444
     87          1           0        7.882099    4.661559   -1.951452
     88          1           0        9.502135    4.821396   -1.799655
     89          1           0        8.643830    6.179772   -1.223270
     90          1           0       10.388332    4.332888    1.875294
     91          1           0       10.773244    2.599426    1.801492
     92          1           0        9.289705    3.771003    3.761209
     93          1           0        9.407435    1.985115    3.434426
     94          1           0        8.046780    2.919324    2.852269
     95          1           0       10.357669   -1.724729    0.645943
     96          1           0       10.278925   -2.679434   -0.820823
     97          1           0        9.657924   -3.291230    0.735536
     98          1           0        4.679609   -4.175154    1.024869
     99          1           0        4.777479   -6.691855   -2.506717
    100          1           0        3.012290   -6.326699   -2.334450
    101          1           0        3.752847   -7.672793   -1.417522
    102          1           0       -2.532307   -5.053237   -0.286399
    103          1           0       -2.248396   -4.003628   -1.667884
    104          1           0       -3.005161   -2.476161    0.594245
    105          1           0       -6.261229   -3.516924   -2.025507
    106          1           0       -5.574817   -4.834742   -1.086699
    107          1           0       -4.753491   -4.222286   -2.418012
    108          1           0       -6.184720   -1.396136   -0.666712
    109          1           0       -4.940411   -1.381839    0.589197
    110          1           0       -6.580560   -3.509468    1.485464
    111          1           0       -7.716704   -2.582506    0.540784
    112          1           0       -6.573264   -0.544306    1.937669
    113          1           0       -6.465994   -1.764505    3.078898
    114          1           0       -9.102077   -2.130067    2.458829
    115          1           0       -7.756486   -0.682756    4.555546
    116          1           0       -9.150819   -1.493263    4.753695
    117          1           0       -9.246751    0.144579    4.155809
    118          1           0       -8.364401    0.447351    1.162779
    119          1           0       -9.760422    0.611748    2.149295
    120          1           0       -9.810750   -1.779513    0.298206
    121          1           0      -10.151199   -0.141055   -0.351090
    122          1           0      -11.414404   -1.062065    2.300919
    123          1           0      -12.091548   -1.711236    0.837489
    124          1           0      -11.568160    1.183635    0.783629
    125          1           0      -13.054082    1.988386    2.194053
    126          1           0      -12.936229    0.276730    2.907762
    127          1           0      -14.301717    0.855851    1.911345
    128          1           0      -14.053167   -0.077588   -0.349123
    129          1           0      -12.514860   -0.423490   -1.017469
    130          1           0      -12.942332    1.426834   -2.238930
    131          1           0      -12.127202    2.286637   -0.987558
    132          1           0      -13.796657    3.435120   -0.259872
    133          1           0      -14.814812    2.110159   -0.015724
    134          1           0      -14.458801    2.710447   -2.944978
    135          1           0      -15.096479    5.019656   -0.996351
    136          1           0      -15.873959    4.986692   -2.547360
    137          1           0      -14.118683    5.188218   -2.318198
    138          1           0      -16.437778    1.695793   -2.801576
    139          1           0      -17.045624    3.215309   -2.373382
    140          1           0      -16.747092    2.085964   -1.066712
 ---------------------------------------------------------------------

 SCF Done:  E(RwB97XD) =  -3007.88332335     A.U. after   17 cycles

 Excitation energies and oscillator strengths:

 Excited State   1:      Singlet-A      1.6187 eV  765.93 nm  f=0.3881  <S**2>=0.000
     245 -> 248        0.18078
     246 -> 247        0.68423
     245 <- 248        0.11613
 This state for optimization and/or second-order correction.
 Total Energy, E(TD-HF/TD-DFT) =  -3007.82383570
 Copying the excited state density for this state as the 1-particle RhoCI density.

 Excited State   2:      Singlet-A      2.1975 eV  564.20 nm  f=0.1306  <S**2>=0.000
     245 -> 247        0.64246
     246 -> 248       -0.28162

 Excited State   3:      Singlet-A      3.4191 eV  362.62 nm  f=0.0081  <S**2>=0.000
     243 -> 247        0.18882
     244 -> 247        0.64340
     246 -> 248        0.14963

 Excited State   4:      Singlet-A      3.5560 eV  348.66 nm  f=0.3705  <S**2>=0.000
     240 -> 249       -0.10375
     241 -> 247        0.31130
     241 -> 249       -0.19139
     243 -> 247        0.17346
     244 -> 247       -0.13638
     245 -> 247        0.20246
     246 -> 248        0.48303

 Excited State   5:      Singlet-A      3.6018 eV  344.22 nm  f=0.1596  <S**2>=0.000
     240 -> 247        0.25461
     240 -> 249       -0.17815
     241 -> 247        0.34981
     241 -> 249       -0.27505
     241 -> 250        0.11113
     243 -> 247       -0.13359
     244 -> 247        0.13470
     245 -> 247       -0.13794
     246 -> 248       -0.31340

 The electronic state is 1-A.
 Alpha  occ. eigenvalues --  -46.93576 -19.31674 -19.28574 -19.25314 -19.24795
 Alpha  occ. eigenvalues --  -19.24110 -19.23054 -14.46615 -14.45909 -14.44303
 Alpha  occ. eigenvalues --  -14.44128 -10.43785 -10.41526 -10.39808 -10.39537
 Alpha  occ. eigenvalues --  -10.36971 -10.35079 -10.34521 -10.34506 -10.34376
 Alpha  occ. eigenvalues --  -10.34366 -10.34245 -10.34007 -10.33879 -10.33079
 Alpha  occ. eigenvalues --  -10.32444 -10.32179 -10.31961 -10.31906 -10.31871
 Alpha  occ. eigenvalues --  -10.31860 -10.31654 -10.31623 -10.31472 -10.31458
 Alpha  occ. eigenvalues --  -10.31416 -10.31113 -10.30900 -10.30602 -10.30396
 Alpha  occ. eigenvalues --  -10.30361 -10.30279 -10.30256 -10.30139 -10.29969
 Alpha  occ. eigenvalues --  -10.29907 -10.29721 -10.29711 -10.29701 -10.29589
 Alpha  occ. eigenvalues --  -10.29389 -10.29274 -10.29129 -10.29125 -10.29117
 Alpha  occ. eigenvalues --  -10.29108 -10.28931 -10.28797 -10.28604 -10.28355
 Alpha  occ. eigenvalues --  -10.28343 -10.28333 -10.28285 -10.28246 -10.28107
 Alpha  occ. eigenvalues --  -10.28069  -3.19894  -1.93480  -1.93035  -1.92893
 Alpha  occ. eigenvalues --   -1.19697  -1.17350  -1.12845  -1.11384  -1.10902
 Alpha  occ. eigenvalues --   -1.07889  -1.06762  -1.05856  -1.04972  -1.03082
 Alpha  occ. eigenvalues --   -0.94354  -0.92709  -0.92428  -0.92015  -0.90863
 Alpha  occ. eigenvalues --   -0.90386  -0.90184  -0.89603  -0.89216  -0.89047
 Alpha  occ. eigenvalues --   -0.88673  -0.87589  -0.86360  -0.85362  -0.85109
 Alpha  occ. eigenvalues --   -0.84477  -0.84242  -0.83474  -0.82863  -0.82001
 Alpha  occ. eigenvalues --   -0.81878  -0.80448  -0.79949  -0.78644  -0.78109
 Alpha  occ. eigenvalues --   -0.77546  -0.77268  -0.76881  -0.76615  -0.76064
 Alpha  occ. eigenvalues --   -0.75204  -0.74135  -0.73171  -0.72431  -0.70921
 Alpha  occ. eigenvalues --   -0.70541  -0.70325  -0.69228  -0.68827  -0.67947
 Alpha  occ. eigenvalues --   -0.67714  -0.67195  -0.66561  -0.66525  -0.66167
 Alpha  occ. eigenvalues --   -0.65934  -0.65814  -0.64709  -0.62597  -0.62191
 Alpha  occ. eigenvalues --   -0.61615  -0.61513  -0.60880  -0.60374  -0.59495
 Alpha  occ. eigenvalues --   -0.59250  -0.58491  -0.58164  -0.57731  -0.57275
 Alpha  occ. eigenvalues --   -0.57097  -0.56894  -0.56591  -0.56371  -0.55635
 Alpha  occ. eigenvalues --   -0.55503  -0.55465  -0.55262  -0.54841  -0.54718
 Alpha  occ. eigenvalues --   -0.54423  -0.54313  -0.54199  -0.53926  -0.53810
 Alpha  occ. eigenvalues --   -0.53297  -0.53144  -0.53062  -0.52996  -0.52785
 Alpha  occ. eigenvalues --   -0.52578  -0.52323  -0.52157  -0.51776  -0.51638
 Alpha  occ. eigenvalues --   -0.51443  -0.51291  -0.51050  -0.50933  -0.50815
 Alpha  occ. eigenvalues --   -0.50637  -0.50278  -0.50085  -0.49871  -0.49778
 Alpha  occ. eigenvalues --   -0.49269  -0.49237  -0.48878  -0.48846  -0.48618
 Alpha  occ. eigenvalues --   -0.48202  -0.48012  -0.47894  -0.47667  -0.47648
 Alpha  occ. eigenvalues --   -0.47100  -0.46980  -0.46836  -0.46759  -0.46648
 Alpha  occ. eigenvalues --   -0.46305  -0.46217  -0.46144  -0.46028  -0.45878
 Alpha  occ. eigenvalues --   -0.45781  -0.45603  -0.45459  -0.45143  -0.45045
 Alpha  occ. eigenvalues --   -0.44959  -0.44905  -0.44606  -0.44475  -0.44408
 Alpha  occ. eigenvalues --   -0.44005  -0.43850  -0.43758  -0.43751  -0.42646
 Alpha  occ. eigenvalues --   -0.42440  -0.42402  -0.42313  -0.42107  -0.41980
 Alpha  occ. eigenvalues --   -0.41696  -0.41341  -0.41203  -0.40995  -0.40869
 Alpha  occ. eigenvalues --   -0.40280  -0.40120  -0.40052  -0.39959  -0.39088
 Alpha  occ. eigenvalues --   -0.39078  -0.38900  -0.38726  -0.38393  -0.37976
 Alpha  occ. eigenvalues --   -0.37888  -0.37354  -0.37137  -0.36307  -0.36122
 Alpha  occ. eigenvalues --   -0.36114  -0.35229  -0.34758  -0.33467  -0.33209
 Alpha  occ. eigenvalues --   -0.32830  -0.32038  -0.32014  -0.31651  -0.25668
 Alpha  occ. eigenvalues --   -0.22583
 Alpha virt. eigenvalues --   -0.06823   0.00756   0.02172   0.04265   0.06090
 Alpha virt. eigenvalues --    0.07042   0.07875   0.08168   0.08627   0.09186
 Alpha virt. eigenvalues --    0.10651   0.11676   0.12108   0.12346   0.12565

 Mulliken charges:
               1
     1  Mg   1.009117
     2  C   -0.025312
     3  C   -0.104344
     4  C   -0.069161
     5  C   -0.102414
     6  N   -0.282101
     7  C   -0.012613
     8  C   -0.086674
     9  C   -0.076766
    10  C    0.009680
    11  C    0.034079
    12  C    0.051197
    13  C    0.018540
    14  C    0.180182
    15  O   -0.262797
    16  O   -0.364352
    17  N   -0.505366
    18  C    0.230944
    19  C   -0.219531
    20  C   -0.085181
    21  C    0.132869
    22  C    0.088082
    23  C    0.058125
    24  O   -0.224772
    25  C    0.004110
    26  N   -0.443603
    27  C    0.078973
    28  C   -0.083868
    29  C   -0.050632
    30  C    0.093076
    31  C    0.044330
    32  C   -0.036640
    33  C   -0.064215
    34  N   -0.414703
    35  C    0.126520
    36  C   -0.151168
    37  C   -0.060273
    38  C    0.152365
    39  C    0.054820
    40  C    0.156978
    41  O   -0.210947
    42  C   -0.110407
    43  C    0.246708
    44  O   -0.263591
    45  O   -0.365114
    46  C    0.144544
    47  C    0.271441
    48  C   -0.206125
    49  C   -0.170407
    50  C    0.011720
    51  C    0.014423
    52  C    0.009950
    53  C   -0.000304
    54  C   -0.190742
    55  C   -0.002872
    56  C    0.043088
    57  C   -0.033913
    58  C   -0.003058
    59  C   -0.201633
    60  C    0.021546
    61  C    0.026543
    62  C   -0.024863
    63  C    0.040228
    64  C   -0.206228
    65  C   -0.030239
    66  C   -0.002809
    67  H   -0.008585
    68  H    0.023816
    69  H   -0.006356
    70  H    0.057216
    71  H    0.031303
    72  H    0.054111
    73  H    0.032776
    74  H    0.040291
    75  H    0.026518
    76  H    0.043483
    77  H    0.049315
    78  H    0.070807
    79  H    0.024812
    80  H    0.055416
    81  H    0.062900
    82  H    0.068549
    83  H    0.044095
    84  H    0.050014
    85  H    0.031386
    86  H    0.026333
    87  H    0.030868
    88  H    0.019466
    89  H    0.049197
    90  H    0.039526
    91  H    0.028334
    92  H    0.039062
    93  H    0.041566
    94  H    0.045842
    95  H    0.020526
    96  H    0.072384
    97  H    0.051992
    98  H    0.065529
    99  H    0.066319
   100  H    0.061541
   101  H    0.055828
   102  H    0.053062
   103  H    0.062631
   104  H    0.034454
   105  H    0.035411
   106  H    0.043735
   107  H    0.032578
   108  H    0.035163
   109  H    0.022037
   110  H    0.032414
   111  H    0.011857
   112  H    0.013591
   113  H    0.018523
   114  H    0.024372
   115  H    0.014317
   116  H    0.026896
   117  H    0.021415
   118  H    0.011250
   119  H    0.013307
   120  H    0.026873
   121  H    0.025645
   122  H    0.015955
   123  H    0.013265
   124  H    0.006119
   125  H    0.028956
   126  H    0.024739
   127  H    0.025195
   128  H    0.021005
   129  H   -0.001022
   130  H    0.020215
   131  H    0.019720
   132  H    0.007894
   133  H    0.010938
   134  H    0.032412
   135  H    0.018149
   136  H    0.026560
   137  H    0.027697
   138  H    0.026046
   139  H    0.011914
   140  H    0.034088
 Sum of Mulliken charges =  -0.00000

 Dipole moment (field-independent basis, Debye):
    X=             -5.4797    Y=              2.4602    Z=              1.1920  Tot=              6.1238
 Quadrupole moment (field-independent basis, Debye-Ang):
   XX=           -387.6196   YY=           -422.5977   ZZ=           -402.4298
   XY=             26.3017   XZ=             13.6546   YZ=             -9.8026

 Normal termination of Gaussian 16 at Tue Apr 26 20:54:42 2022.
