 Gaussian 16, Revision A.03,
 Gaussian 16:  ES64L-G16RevA.03 25-Dec-2016

 --------------------
 #p ZINDO=(nstates=5)
 --------------------

 ------------------------------
 step_1001_chromophore_18 ZINDO
 ------------------------------
 Symbolic Z-matrix:
 Charge =  0 Multiplicity = 1

                         Standard orientation:
 ---------------------------------------------------------------------
 Center     Atomic      Atomic             Coordinates (Angstroms)
 Number     Number       Type             X           Y           Z
 ---------------------------------------------------------------------
      1         12           0        5.410065    1.211995   -0.054534
      2          6           0        4.824515   -2.309251   -0.019400
      3          6           0        1.990563    1.464592   -0.756916
      4          6           0        5.756545    4.534989    0.177177
      5          6           0        8.740897    0.703236    0.206132
      6          7           0        3.666259   -0.331179   -0.448329
      7          6           0        3.617243   -1.657357   -0.221296
      8          6           0        2.186669   -2.212829   -0.138637
      9          6           0        1.368362   -1.034023   -0.704891
     10          6           0        2.396093    0.116260   -0.641497
     11          6           0        0.715015   -1.278986   -2.102611
     12          6           0        1.840845   -2.571876    1.278027
     13          6           0        0.824845   -3.748502    1.433333
     14          6           0       -0.034706   -4.197034    0.255240
     15          8           0        0.273580   -5.107868   -0.503735
     16          8           0       -1.203945   -3.501863    0.212282
     17          7           0        4.069795    2.726405   -0.226476
     18          6           0        2.723589    2.657598   -0.520345
     19          6           0        2.153397    3.991989   -0.496063
     20          6           0        3.201478    4.965462   -0.216694
     21          6           0        4.404118    4.099152   -0.068167
     22          6           0        0.744919    4.289095   -0.717108
     23          6           0        3.144477    6.517220   -0.182025
     24          8           0        4.133989    7.136653    0.161742
     25          6           0        1.875173    7.225762   -0.450081
     26          7           0        6.963700    2.398075    0.169640
     27          6           0        6.895157    3.766869    0.121939
     28          6           0        8.355307    4.411603    0.016076
     29          6           0        9.237676    3.189292    0.379437
     30          6           0        8.258423    1.998838    0.238339
     31          6           0        8.598538    5.091080   -1.251211
     32          6           0        9.967939    3.333724    1.761178
     33          6           0        9.117972    2.963543    3.049867
     34          7           0        6.618610   -0.431674    0.033714
     35          6           0        7.931113   -0.482153    0.142626
     36          6           0        8.414731   -1.919674    0.080712
     37          6           0        7.196392   -2.643749    0.050805
     38          6           0        6.129748   -1.690201    0.112826
     39          6           0        9.731671   -2.419393    0.085485
     40          6           0        6.717096   -4.007213    0.048072
     41          8           0        7.295547   -5.091610   -0.095357
     42          6           0        5.088200   -3.775428    0.097942
     43          6           0        4.548402   -4.475467   -1.089251
     44          8           0        4.640555   -4.161276   -2.267226
     45          8           0        4.127223   -5.702465   -0.720044
     46          6           0        3.916264   -6.680672   -1.839283
     47          6           0       -2.307393   -4.027826   -0.579712
     48          6           0       -3.479599   -3.180654   -0.088466
     49          6           0       -4.753215   -3.047766   -0.496503
     50          6           0       -5.343744   -3.883615   -1.566351
     51          6           0       -5.699637   -1.995584    0.103246
     52          6           0       -6.799680   -2.504987    1.124399
     53          6           0       -7.054962   -1.485197    2.204767
     54          6           0       -8.580777   -1.178686    2.564250
     55          6           0       -8.710831   -0.797381    4.040373
     56          6           0       -9.196535   -0.122617    1.574212
     57          6           0      -10.100210   -0.758742    0.546006
     58          6           0      -11.534427   -0.863841    1.235556
     59          6           0      -12.327926    0.409882    0.898294
     60          6           0      -13.225700    0.918485    2.075009
     61          6           0      -13.049975    0.337098   -0.448906
     62          6           0      -12.998610    1.658579   -1.175168
     63          6           0      -14.170599    2.550463   -0.775998
     64          6           0      -14.914598    3.025668   -2.006238
     65          6           0      -14.998429    4.624897   -2.007174
     66          6           0      -16.357431    2.447749   -2.018278
     67          1           0        0.939129    1.519157   -1.049327
     68          1           0        5.920643    5.612001    0.255899
     69          1           0        9.818922    0.585232    0.328511
     70          1           0        2.193447   -3.165965   -0.667581
     71          1           0        0.598286   -0.669338   -0.024992
     72          1           0        1.300411   -1.890431   -2.789954
     73          1           0        0.535295   -0.306746   -2.562444
     74          1           0       -0.185213   -1.865784   -1.922579
     75          1           0        1.338968   -1.712504    1.723843
     76          1           0        2.719470   -2.802253    1.880072
     77          1           0        0.067211   -3.402217    2.136311
     78          1           0        1.323047   -4.679205    1.702292
     79          1           0        0.150258    3.398094   -0.917390
     80          1           0        0.756781    4.831598   -1.662100
     81          1           0        0.381489    4.761181    0.196335
     82          1           0        1.083511    7.031300    0.273887
     83          1           0        1.550625    6.963854   -1.457121
     84          1           0        2.051735    8.298329   -0.518458
     85          1           0        8.419108    5.177628    0.788921
     86          1           0       10.028864    3.022701   -0.352444
     87          1           0        7.882099    4.661559   -1.951452
     88          1           0        9.502135    4.821396   -1.799655
     89          1           0        8.643830    6.179772   -1.223270
     90          1           0       10.388332    4.332888    1.875294
     91          1           0       10.773244    2.599426    1.801492
     92          1           0        9.289705    3.771003    3.761209
     93          1           0        9.407435    1.985115    3.434426
     94          1           0        8.046780    2.919324    2.852269
     95          1           0       10.357669   -1.724729    0.645943
     96          1           0       10.278925   -2.679434   -0.820823
     97          1           0        9.657924   -3.291230    0.735536
     98          1           0        4.679609   -4.175154    1.024869
     99          1           0        4.777479   -6.691855   -2.506717
    100          1           0        3.012290   -6.326699   -2.334450
    101          1           0        3.752847   -7.672793   -1.417522
    102          1           0       -2.532307   -5.053237   -0.286399
    103          1           0       -2.248396   -4.003628   -1.667884
    104          1           0       -3.005161   -2.476161    0.594245
    105          1           0       -6.261229   -3.516924   -2.025507
    106          1           0       -5.574817   -4.834742   -1.086699
    107          1           0       -4.753491   -4.222286   -2.418012
    108          1           0       -6.184720   -1.396136   -0.666712
    109          1           0       -4.940411   -1.381839    0.589197
    110          1           0       -6.580560   -3.509468    1.485464
    111          1           0       -7.716704   -2.582506    0.540784
    112          1           0       -6.573264   -0.544306    1.937669
    113          1           0       -6.465994   -1.764505    3.078898
    114          1           0       -9.102077   -2.130067    2.458829
    115          1           0       -7.756486   -0.682756    4.555546
    116          1           0       -9.150819   -1.493263    4.753695
    117          1           0       -9.246751    0.144579    4.155809
    118          1           0       -8.364401    0.447351    1.162779
    119          1           0       -9.760422    0.611748    2.149295
    120          1           0       -9.810750   -1.779513    0.298206
    121          1           0      -10.151199   -0.141055   -0.351090
    122          1           0      -11.414404   -1.062065    2.300919
    123          1           0      -12.091548   -1.711236    0.837489
    124          1           0      -11.568160    1.183635    0.783629
    125          1           0      -13.054082    1.988386    2.194053
    126          1           0      -12.936229    0.276730    2.907762
    127          1           0      -14.301717    0.855851    1.911345
    128          1           0      -14.053167   -0.077588   -0.349123
    129          1           0      -12.514860   -0.423490   -1.017469
    130          1           0      -12.942332    1.426834   -2.238930
    131          1           0      -12.127202    2.286637   -0.987558
    132          1           0      -13.796657    3.435120   -0.259872
    133          1           0      -14.814812    2.110159   -0.015724
    134          1           0      -14.458801    2.710447   -2.944978
    135          1           0      -15.096479    5.019656   -0.996351
    136          1           0      -15.873959    4.986692   -2.547360
    137          1           0      -14.118683    5.188218   -2.318198
    138          1           0      -16.437778    1.695793   -2.801576
    139          1           0      -17.045624    3.215309   -2.373382
    140          1           0      -16.747092    2.085964   -1.066712
 ---------------------------------------------------------------------

 SCF Done:  E(RZINDO/S) =  -474.408883135     A.U. after   19 cycles

 Excitation energies and oscillator strengths:

 Excited State   1:      Singlet-A      1.2339 eV 1004.85 nm  f=0.6125  <S**2>=0.000
     175 ->178        -0.19212
     176 ->177         0.66171
 This state for optimization and/or second-order correction.
 Total Energy, E(CIS/TDA) =  -474.363539792
 Copying the excited state density for this state as the 1-particle RhoCI density.

 Excited State   2:      Singlet-A      1.9347 eV  640.85 nm  f=0.0554  <S**2>=0.000
     175 ->177         0.55174
     176 ->178         0.41389

 Excited State   3:      Singlet-A      2.9310 eV  423.01 nm  f=0.3515  <S**2>=0.000
     175 ->177        -0.22401
     176 ->178         0.37458
     176 ->179         0.51372

 Excited State   4:      Singlet-A      3.0240 eV  410.00 nm  f=0.0031  <S**2>=0.000
     169 ->177         0.32414
     169 ->178         0.21277
     169 ->179         0.42010
     169 ->180        -0.24686
     169 ->186         0.14282
     169 ->187        -0.12844
     169 ->198        -0.10753

 Excited State   5:      Singlet-A      3.0586 eV  405.36 nm  f=0.7866  <S**2>=0.000
     175 ->177         0.31219
     176 ->178        -0.38616
     176 ->179         0.42035
     176 ->180         0.11725

 The electronic state is 1-A.
 Alpha  occ. eigenvalues --   -1.84499  -1.81324  -1.78790  -1.73607  -1.72690
 Alpha  occ. eigenvalues --   -1.69658  -1.68070  -1.61378  -1.59145  -1.56417
 Alpha  occ. eigenvalues --   -1.55366  -1.51915  -1.48530  -1.47923  -1.45624
 Alpha  occ. eigenvalues --   -1.44264  -1.42267  -1.40948  -1.39321  -1.38762
 Alpha  occ. eigenvalues --   -1.36715  -1.35623  -1.32573  -1.31248  -1.29353
 Alpha  occ. eigenvalues --   -1.27671  -1.24183  -1.22883  -1.21765  -1.18229
 Alpha  occ. eigenvalues --   -1.17188  -1.16506  -1.15123  -1.14673  -1.14265
 Alpha  occ. eigenvalues --   -1.13180  -1.10069  -1.09657  -1.04014  -1.03269
 Alpha  occ. eigenvalues --   -1.02360  -1.01027  -0.98763  -0.97648  -0.96610
 Alpha  occ. eigenvalues --   -0.95856  -0.95381  -0.95080  -0.94004  -0.93078
 Alpha  occ. eigenvalues --   -0.91514  -0.90619  -0.89328  -0.88528  -0.87776
 Alpha  occ. eigenvalues --   -0.87256  -0.85605  -0.83040  -0.81747  -0.80328
 Alpha  occ. eigenvalues --   -0.79401  -0.78094  -0.77008  -0.76030  -0.75548
 Alpha  occ. eigenvalues --   -0.75191  -0.74822  -0.74201  -0.73913  -0.73355
 Alpha  occ. eigenvalues --   -0.72752  -0.72543  -0.71634  -0.71347  -0.70667
 Alpha  occ. eigenvalues --   -0.69919  -0.69480  -0.68947  -0.68648  -0.68504
 Alpha  occ. eigenvalues --   -0.67885  -0.67203  -0.66802  -0.66391  -0.65337
 Alpha  occ. eigenvalues --   -0.65265  -0.64550  -0.64048  -0.63889  -0.63489
 Alpha  occ. eigenvalues --   -0.63239  -0.62930  -0.62633  -0.62438  -0.62186
 Alpha  occ. eigenvalues --   -0.61648  -0.61027  -0.60786  -0.60627  -0.60355
 Alpha  occ. eigenvalues --   -0.60283  -0.59336  -0.59144  -0.58655  -0.58579
 Alpha  occ. eigenvalues --   -0.57929  -0.57511  -0.57282  -0.56921  -0.56085
 Alpha  occ. eigenvalues --   -0.56073  -0.55706  -0.55320  -0.54951  -0.54539
 Alpha  occ. eigenvalues --   -0.54329  -0.53498  -0.53308  -0.53116  -0.52791
 Alpha  occ. eigenvalues --   -0.52502  -0.52003  -0.51561  -0.51277  -0.51158
 Alpha  occ. eigenvalues --   -0.50947  -0.50600  -0.50539  -0.50075  -0.49737
 Alpha  occ. eigenvalues --   -0.49531  -0.49424  -0.49215  -0.49066  -0.48804
 Alpha  occ. eigenvalues --   -0.48619  -0.48317  -0.48064  -0.47911  -0.47842
 Alpha  occ. eigenvalues --   -0.47549  -0.47426  -0.47015  -0.46970  -0.46296
 Alpha  occ. eigenvalues --   -0.46187  -0.45958  -0.45745  -0.45639  -0.45487
 Alpha  occ. eigenvalues --   -0.45179  -0.45128  -0.44885  -0.44273  -0.43646
 Alpha  occ. eigenvalues --   -0.43548  -0.42864  -0.42734  -0.42450  -0.42176
 Alpha  occ. eigenvalues --   -0.41624  -0.41474  -0.40711  -0.38819  -0.38405
 Alpha  occ. eigenvalues --   -0.37502  -0.37029  -0.35513  -0.35153  -0.34398
 Alpha  occ. eigenvalues --   -0.32704  -0.32570  -0.32506  -0.31560  -0.26273
 Alpha  occ. eigenvalues --   -0.21412
 Alpha virt. eigenvalues --   -0.08261  -0.01640  -0.00423   0.01298   0.01829
 Alpha virt. eigenvalues --    0.03141   0.03409   0.03830   0.04449   0.05167
 Alpha virt. eigenvalues --    0.06625   0.06802   0.07399   0.07951   0.08595

 Mulliken charges:
               1
     1  Mg   0.425527
     2  C   -0.030359
     3  C   -0.070099
     4  C   -0.073814
     5  C   -0.092053
     6  N   -0.273541
     7  C    0.117919
     8  C    0.017396
     9  C    0.009301
    10  C    0.113016
    11  C   -0.048930
    12  C   -0.012597
    13  C   -0.004664
    14  C    0.466572
    15  O   -0.521434
    16  O   -0.267271
    17  N   -0.332190
    18  C    0.098680
    19  C    0.018806
    20  C   -0.081900
    21  C    0.137133
    22  C   -0.044082
    23  C    0.339326
    24  O   -0.517542
    25  C   -0.025096
    26  N   -0.277887
    27  C    0.137304
    28  C    0.012468
    29  C    0.003580
    30  C    0.135501
    31  C   -0.046045
    32  C   -0.032099
    33  C   -0.060285
    34  N   -0.282568
    35  C    0.108785
    36  C    0.033823
    37  C   -0.054509
    38  C    0.082344
    39  C   -0.027778
    40  C    0.331560
    41  O   -0.508610
    42  C    0.056671
    43  C    0.490338
    44  O   -0.533672
    45  O   -0.275271
    46  C    0.076209
    47  C    0.106784
    48  C   -0.099187
    49  C    0.000885
    50  C   -0.045210
    51  C   -0.027341
    52  C   -0.026355
    53  C   -0.033865
    54  C   -0.008195
    55  C   -0.062158
    56  C   -0.025826
    57  C   -0.034149
    58  C   -0.037445
    59  C   -0.014682
    60  C   -0.066173
    61  C   -0.024141
    62  C   -0.029885
    63  C   -0.028153
    64  C   -0.006267
    65  C   -0.067855
    66  C   -0.062203
    67  H    0.025533
    68  H    0.045464
    69  H    0.026692
    70  H    0.047404
    71  H    0.026918
    72  H    0.032341
    73  H    0.023683
    74  H    0.021689
    75  H    0.020450
    76  H    0.026770
    77  H    0.032911
    78  H    0.046758
    79  H    0.018418
    80  H    0.038263
    81  H    0.039439
    82  H    0.044452
    83  H    0.030923
    84  H    0.032526
    85  H    0.025310
    86  H    0.022954
    87  H    0.021426
    88  H    0.010486
    89  H    0.028867
    90  H    0.025191
    91  H    0.014641
    92  H    0.019064
    93  H    0.023806
    94  H    0.024158
    95  H    0.014249
    96  H    0.049953
    97  H    0.030727
    98  H    0.051944
    99  H    0.053432
   100  H    0.045616
   101  H    0.033449
   102  H    0.047576
   103  H    0.060204
   104  H    0.026508
   105  H    0.019130
   106  H    0.023985
   107  H    0.023105
   108  H    0.028842
   109  H    0.017738
   110  H    0.028119
   111  H    0.015616
   112  H    0.015235
   113  H    0.014279
   114  H    0.020405
   115  H    0.011967
   116  H    0.018778
   117  H    0.015400
   118  H    0.013182
   119  H    0.019492
   120  H    0.019765
   121  H    0.022247
   122  H    0.022968
   123  H    0.010151
   124  H    0.014282
   125  H    0.020044
   126  H    0.023913
   127  H    0.018989
   128  H    0.023556
   129  H    0.004122
   130  H    0.015016
   131  H    0.019537
   132  H    0.010732
   133  H    0.024817
   134  H    0.028010
   135  H    0.012580
   136  H    0.017048
   137  H    0.017874
   138  H    0.014523
   139  H    0.011467
   140  H    0.026352
 Sum of Mulliken charges =  -0.00000

 Dipole moment (field-independent basis, Debye):
    X=             -7.3765    Y=              3.4523    Z=              2.9798  Tot=              8.6724
 N-N= 4.282979844370D+03 E-N= 0.000000000000D+00  KE=-9.240570948732D+03
 Leave Link  601 at Tue Apr 26 21:07:07 2022, MaxMem=  6710886400 cpu:               0.7 elap:               0.0
 (Enter /sw/apps/gaussian-16.0/g16/l9999.exe)
 1\1\GINC-BP1-COMPUTE134\SP\RZINDO CIS\STO-3G\C55H74Mg1N4O6\OF15641\26-
 Apr-2022\0\\#p ZINDO=(nstates=5)\\step_1001_chromophore_18 ZINDO\\0,1\
 Mg,0,34.169,49.092,25.544\C,0,34.666,47.329,28.608\C,0,32.292,51.319,2
 7.485\C,0,33.872,50.999,22.807\C,0,35.658,46.597,23.818\N,0,33.496,49.
 18,27.806\C,0,33.939,48.481,28.868\C,0,33.625,49.149,30.216\C,0,32.598
 ,50.22,29.794\C,0,32.794,50.252,28.263\C,0,31.134,49.977,30.282\C,0,34
 .875,49.71,30.831\C,0,34.889,49.738,32.393\C,0,33.594,49.595,33.187\O,

 Normal termination of Gaussian 16 at Tue Apr 26 21:07:08 2022.
