 Gaussian 16, Revision A.03,
 Gaussian 16:  ES64L-G16RevA.03 25-Dec-2016

 ------------------------------
 #p blyp/Def2SVP td=(nstates=5)
 ------------------------------

 --------------------------------------------------
 step_1351_chromophore_3 TDDFT with blyp functional
 --------------------------------------------------
 Symbolic Z-matrix:
 Charge =  0 Multiplicity = 1

                         Standard orientation:
 ---------------------------------------------------------------------
 Center     Atomic      Atomic             Coordinates (Angstroms)
 Number     Number       Type             X           Y           Z
 ---------------------------------------------------------------------
      1         12           0       -5.419227    0.885990   -0.022568
      2          6           0       -4.561424   -2.455844    0.047823
      3          6           0       -2.064226    1.583860    0.116487
      4          6           0       -6.258248    4.053516    0.091079
      5          6           0       -8.756238    0.023735    0.327442
      6          7           0       -3.481910   -0.309419   -0.054198
      7          6           0       -3.403881   -1.655066    0.004581
      8          6           0       -1.959741   -2.105776   -0.069572
      9          6           0       -1.101451   -0.856393    0.224206
     10          6           0       -2.244585    0.208748    0.081725
     11          6           0       -0.302875   -0.836075    1.553333
     12          6           0       -1.707983   -2.699267   -1.501879
     13          6           0       -0.641719   -3.820665   -1.626324
     14          6           0        0.619183   -3.596934   -0.744441
     15          8           0        0.780444   -3.915834    0.406783
     16          8           0        1.526357   -2.860368   -1.410362
     17          7           0       -4.344497    2.602770    0.098399
     18          6           0       -2.994038    2.677726    0.018124
     19          6           0       -2.577760    3.996858    0.209470
     20          6           0       -3.760326    4.801870    0.138425
     21          6           0       -4.924268    3.812407    0.169266
     22          6           0       -1.157197    4.486153    0.264214
     23          6           0       -4.050543    6.298446    0.179932
     24          8           0       -5.132798    6.886990    0.384950
     25          6           0       -2.808192    7.162976   -0.121976
     26          7           0       -7.227320    1.850505    0.183527
     27          6           0       -7.327313    3.207312    0.267951
     28          6           0       -8.771976    3.708030    0.363663
     29          6           0       -9.610372    2.424277    0.221150
     30          6           0       -8.533687    1.356018    0.151437
     31          6           0       -8.984642    4.556784    1.635303
     32          6           0      -10.416767    2.394850   -1.124283
     33          6           0       -9.647350    2.251669   -2.424153
     34          7           0       -6.417268   -0.849963    0.205539
     35          6           0       -7.753046   -1.040294    0.407312
     36          6           0       -8.028202   -2.495577    0.524856
     37          6           0       -6.776118   -3.086150    0.394018
     38          6           0       -5.877120   -2.031658    0.144685
     39          6           0       -9.372902   -3.092910    0.462995
     40          6           0       -6.031514   -4.373741    0.354444
     41          8           0       -6.462253   -5.518321    0.494512
     42          6           0       -4.638462   -3.981292    0.087424
     43          6           0       -3.736401   -4.666213    1.077654
     44          8           0       -3.650570   -4.443731    2.281270
     45          8           0       -3.031358   -5.661050    0.523280
     46          6           0       -1.934154   -6.393795    1.164611
     47          6           0        2.757541   -2.565692   -0.767645
     48          6           0        3.941359   -2.439103   -1.718721
     49          6           0        5.253513   -2.712987   -1.697555
     50          6           0        5.796041   -3.360739   -0.451984
     51          6           0        6.209991   -2.289086   -2.793586
     52          6           0        6.802042   -0.808225   -2.610677
     53          6           0        8.305108   -0.944209   -2.381176
     54          6           0        8.912342    0.383179   -1.983054
     55          6           0        8.484057    0.745446   -0.590640
     56          6           0       10.456244    0.147010   -2.038827
     57          6           0       11.150795    1.431688   -2.469393
     58          6           0       12.538740    1.623575   -1.844609
     59          6           0       12.557977    2.728150   -0.789853
     60          6           0       13.271221    3.981760   -1.347070
     61          6           0       13.236032    2.176728    0.508571
     62          6           0       12.189625    1.429232    1.418034
     63          6           0       12.799997    0.274076    2.249189
     64          6           0       12.727105    0.552479    3.780514
     65          6           0       13.936377   -0.073557    4.539759
     66          6           0       11.328486    0.196375    4.363702
     67          1           0       -1.021659    1.655318    0.432215
     68          1           0       -6.591075    5.090758    0.006820
     69          1           0       -9.806773   -0.271156    0.362108
     70          1           0       -1.616979   -2.819144    0.680581
     71          1           0       -0.500150   -0.555038   -0.633118
     72          1           0        0.675082   -0.402831    1.343531
     73          1           0        0.042173   -1.850121    1.757740
     74          1           0       -0.762593   -0.370986    2.426380
     75          1           0       -1.339402   -1.891710   -2.135752
     76          1           0       -2.655589   -2.956270   -1.975974
     77          1           0       -0.368096   -4.053370   -2.655063
     78          1           0       -1.191518   -4.674223   -1.232731
     79          1           0       -0.930567    4.888287   -0.723580
     80          1           0       -0.447258    3.686638    0.476946
     81          1           0       -1.017661    5.256307    1.022678
     82          1           0       -2.120948    7.044602    0.716222
     83          1           0       -3.068172    8.220501   -0.156335
     84          1           0       -2.515000    6.927699   -1.145292
     85          1           0       -8.913347    4.478395   -0.394882
     86          1           0      -10.103817    2.269814    1.181234
     87          1           0       -9.693348    5.361477    1.438466
     88          1           0       -8.108213    5.050947    2.054464
     89          1           0       -9.394844    3.958406    2.448925
     90          1           0      -10.953000    3.334074   -1.259733
     91          1           0      -11.179954    1.617183   -1.108146
     92          1           0      -10.249732    1.568785   -3.023595
     93          1           0       -8.659410    1.837466   -2.222858
     94          1           0       -9.453481    3.190406   -2.943581
     95          1           0       -9.811413   -3.292957    1.441091
     96          1           0       -9.358358   -4.034138   -0.086617
     97          1           0       -9.993154   -2.386974   -0.090337
     98          1           0       -4.419653   -4.382706   -0.901737
     99          1           0       -1.411362   -5.795052    1.910118
    100          1           0       -1.192174   -6.786345    0.468935
    101          1           0       -2.305985   -7.274693    1.688186
    102          1           0        2.952860   -3.230802    0.073532
    103          1           0        2.530158   -1.569739   -0.384555
    104          1           0        3.580071   -2.115754   -2.694767
    105          1           0        5.051003   -3.487508    0.333069
    106          1           0        6.557374   -2.640681   -0.152212
    107          1           0        6.164288   -4.339061   -0.759705
    108          1           0        5.578260   -2.137996   -3.668891
    109          1           0        6.949978   -3.053343   -3.030324
    110          1           0        6.378164   -0.427718   -1.680459
    111          1           0        6.634595   -0.146461   -3.460161
    112          1           0        8.794114   -1.355821   -3.264289
    113          1           0        8.326665   -1.599568   -1.510573
    114          1           0        8.723364    1.212991   -2.664037
    115          1           0        7.863182   -0.004517   -0.099962
    116          1           0        7.888001    1.657507   -0.602383
    117          1           0        9.315973    0.955322    0.081286
    118          1           0       10.717489   -0.619177   -2.768519
    119          1           0       10.675615   -0.296737   -1.067666
    120          1           0       10.649273    2.387344   -2.317900
    121          1           0       11.492150    1.280145   -3.493650
    122          1           0       13.255217    1.896123   -2.619887
    123          1           0       12.808389    0.694773   -1.341845
    124          1           0       11.516037    2.962888   -0.574188
    125          1           0       14.260681    3.953324   -0.891322
    126          1           0       12.720673    4.818527   -0.917196
    127          1           0       13.481205    4.041126   -2.414928
    128          1           0       13.451112    3.059046    1.109955
    129          1           0       14.136738    1.569981    0.416231
    130          1           0       11.426584    0.904358    0.845260
    131          1           0       11.748790    2.115485    2.140509
    132          1           0       13.782548    0.024409    1.847971
    133          1           0       12.173082   -0.593486    2.048251
    134          1           0       12.855854    1.631860    3.870063
    135          1           0       14.565570   -0.502092    3.759555
    136          1           0       13.674704   -0.980353    5.083547
    137          1           0       14.438740    0.601509    5.232926
    138          1           0       10.864600   -0.681461    3.913463
    139          1           0       10.719177    1.075924    4.159748
    140          1           0       11.469910   -0.052447    5.415440
 ---------------------------------------------------------------------

 SCF Done:  E(RB-LYP) =  -3007.36093172     A.U. after   20 cycles

 Excitation energies and oscillator strengths:

 Excited State   1:      Singlet-A      1.7889 eV  693.09 nm  f=0.0147  <S**2>=0.000
     244 -> 247        0.61548
     245 -> 247        0.31832
     246 -> 247       -0.12301
 This state for optimization and/or second-order correction.
 Total Energy, E(TD-HF/TD-DFT) =  -3007.29519234
 Copying the excited state density for this state as the 1-particle RhoCI density.

 Excited State   2:      Singlet-A      1.8357 eV  675.41 nm  f=0.3178  <S**2>=0.000
     244 -> 247        0.14329
     245 -> 248       -0.15996
     246 -> 247        0.67974
     246 <- 247       -0.15035

 Excited State   3:      Singlet-A      2.0008 eV  619.68 nm  f=0.0318  <S**2>=0.000
     243 -> 247        0.55291
     244 -> 247       -0.21604
     245 -> 247        0.35673
     246 -> 248        0.10012

 Excited State   4:      Singlet-A      2.0907 eV  593.02 nm  f=0.0574  <S**2>=0.000
     243 -> 247       -0.43585
     244 -> 247       -0.21779
     245 -> 247        0.45806
     246 -> 248        0.17948
     246 -> 249       -0.10224

 Excited State   5:      Singlet-A      2.4981 eV  496.31 nm  f=0.0002  <S**2>=0.000
     241 -> 247        0.70600

 The electronic state is 1-A.
 Alpha  occ. eigenvalues --  -46.25931 -18.83146 -18.81712 -18.77999 -18.75550
 Alpha  occ. eigenvalues --  -18.75467 -18.75409 -14.02967 -14.02668 -14.00870
 Alpha  occ. eigenvalues --  -14.00810 -10.05229 -10.03723  -9.99622  -9.99430
 Alpha  occ. eigenvalues --   -9.98741  -9.97698  -9.96446  -9.95793  -9.95790
 Alpha  occ. eigenvalues --   -9.95775  -9.95760  -9.95506  -9.95289  -9.94334
 Alpha  occ. eigenvalues --   -9.94311  -9.94125  -9.94075  -9.93976  -9.93870
 Alpha  occ. eigenvalues --   -9.93868  -9.93593  -9.93488  -9.93466  -9.93399
 Alpha  occ. eigenvalues --   -9.93171  -9.92927  -9.92854  -9.92779  -9.92558
 Alpha  occ. eigenvalues --   -9.92529  -9.92522  -9.92481  -9.92416  -9.92346
 Alpha  occ. eigenvalues --   -9.92099  -9.91922  -9.91877  -9.91825  -9.91747
 Alpha  occ. eigenvalues --   -9.91662  -9.91600  -9.91399  -9.91388  -9.91190
 Alpha  occ. eigenvalues --   -9.91173  -9.91162  -9.91134  -9.91107  -9.90993
 Alpha  occ. eigenvalues --   -9.90975  -9.90871  -9.90757  -9.90678  -9.90537
 Alpha  occ. eigenvalues --   -9.90210  -2.90875  -1.71301  -1.70758  -1.70587
 Alpha  occ. eigenvalues --   -1.00699  -0.97750  -0.91963  -0.90861  -0.89679
 Alpha  occ. eigenvalues --   -0.88481  -0.87650  -0.86614  -0.86135  -0.85164
 Alpha  occ. eigenvalues --   -0.76218  -0.74692  -0.73659  -0.73151  -0.72855
 Alpha  occ. eigenvalues --   -0.72584  -0.72097  -0.71223  -0.70950  -0.70602
 Alpha  occ. eigenvalues --   -0.69909  -0.69539  -0.68355  -0.67714  -0.67697
 Alpha  occ. eigenvalues --   -0.66835  -0.66096  -0.65654  -0.65074  -0.64651
 Alpha  occ. eigenvalues --   -0.63872  -0.62791  -0.62491  -0.61638  -0.61333
 Alpha  occ. eigenvalues --   -0.61185  -0.60269  -0.60257  -0.60001  -0.59153
 Alpha  occ. eigenvalues --   -0.58714  -0.57954  -0.56761  -0.55873  -0.54749
 Alpha  occ. eigenvalues --   -0.54228  -0.53904  -0.52824  -0.52067  -0.51609
 Alpha  occ. eigenvalues --   -0.51104  -0.51095  -0.50835  -0.50629  -0.50339
 Alpha  occ. eigenvalues --   -0.50262  -0.49449  -0.48999  -0.48957  -0.46957
 Alpha  occ. eigenvalues --   -0.46635  -0.46374  -0.45819  -0.45118  -0.44833
 Alpha  occ. eigenvalues --   -0.44628  -0.43983  -0.43323  -0.43225  -0.42841
 Alpha  occ. eigenvalues --   -0.42644  -0.42224  -0.41854  -0.41562  -0.41300
 Alpha  occ. eigenvalues --   -0.41117  -0.40953  -0.40720  -0.40330  -0.40279
 Alpha  occ. eigenvalues --   -0.39929  -0.39861  -0.39658  -0.39584  -0.39385
 Alpha  occ. eigenvalues --   -0.39155  -0.38945  -0.38892  -0.38662  -0.38364
 Alpha  occ. eigenvalues --   -0.38239  -0.38168  -0.37856  -0.37758  -0.37414
 Alpha  occ. eigenvalues --   -0.37173  -0.37040  -0.36677  -0.36557  -0.36441
 Alpha  occ. eigenvalues --   -0.36336  -0.36079  -0.36033  -0.35801  -0.35698
 Alpha  occ. eigenvalues --   -0.35439  -0.35347  -0.35226  -0.35065  -0.34951
 Alpha  occ. eigenvalues --   -0.34844  -0.34568  -0.34400  -0.34294  -0.34232
 Alpha  occ. eigenvalues --   -0.34020  -0.33791  -0.33726  -0.33304  -0.33178
 Alpha  occ. eigenvalues --   -0.32986  -0.32675  -0.32629  -0.32543  -0.32100
 Alpha  occ. eigenvalues --   -0.32025  -0.31717  -0.31527  -0.31451  -0.31282
 Alpha  occ. eigenvalues --   -0.31203  -0.31083  -0.30937  -0.30829  -0.30652
 Alpha  occ. eigenvalues --   -0.30557  -0.30219  -0.30150  -0.30008  -0.29830
 Alpha  occ. eigenvalues --   -0.29804  -0.29473  -0.29430  -0.29410  -0.28577
 Alpha  occ. eigenvalues --   -0.28506  -0.28458  -0.28275  -0.28168  -0.28101
 Alpha  occ. eigenvalues --   -0.27924  -0.27837  -0.27553  -0.27183  -0.26770
 Alpha  occ. eigenvalues --   -0.26443  -0.26425  -0.26152  -0.25988  -0.25857
 Alpha  occ. eigenvalues --   -0.25313  -0.24406  -0.24307  -0.23824  -0.23523
 Alpha  occ. eigenvalues --   -0.23447  -0.23193  -0.22142  -0.20981  -0.20742
 Alpha  occ. eigenvalues --   -0.20593  -0.20420  -0.18764  -0.18007  -0.17033
 Alpha  occ. eigenvalues --   -0.15715
 Alpha virt. eigenvalues --   -0.11412  -0.06434  -0.05784  -0.04642  -0.03483
 Alpha virt. eigenvalues --   -0.02263  -0.02076  -0.01867  -0.00579   0.00591
 Alpha virt. eigenvalues --    0.01108   0.01341   0.01736   0.02508   0.02703

 Mulliken charges:
               1
     1  Mg   0.714438
     2  C    0.032345
     3  C   -0.043900
     4  C   -0.056221
     5  C   -0.073928
     6  N   -0.174649
     7  C   -0.068607
     8  C   -0.029763
     9  C    0.036264
    10  C   -0.121172
    11  C    0.146703
    12  C    0.085954
    13  C    0.173120
    14  C    0.058259
    15  O   -0.183217
    16  O   -0.244422
    17  N   -0.286155
    18  C    0.194429
    19  C   -0.151950
    20  C   -0.001524
    21  C    0.124037
    22  C    0.194419
    23  C   -0.059336
    24  O   -0.183897
    25  C    0.121201
    26  N   -0.261684
    27  C    0.025424
    28  C   -0.004002
    29  C    0.155021
    30  C   -0.016862
    31  C    0.102925
    32  C    0.083789
    33  C    0.052714
    34  N   -0.223329
    35  C    0.105939
    36  C   -0.205627
    37  C    0.065622
    38  C    0.045661
    39  C    0.175438
    40  C   -0.053661
    41  O   -0.130363
    42  C    0.125172
    43  C    0.082559
    44  O   -0.186081
    45  O   -0.260162
    46  C    0.220831
    47  C    0.320440
    48  C   -0.093528
    49  C   -0.193935
    50  C    0.149152
    51  C    0.177498
    52  C    0.081997
    53  C    0.056526
    54  C   -0.072659
    55  C    0.127482
    56  C    0.109260
    57  C    0.099485
    58  C    0.101057
    59  C   -0.111958
    60  C    0.128461
    61  C    0.122667
    62  C    0.014589
    63  C    0.087484
    64  C   -0.112278
    65  C    0.114052
    66  C    0.114310
    67  H   -0.069213
    68  H   -0.044491
    69  H   -0.067552
    70  H    0.004811
    71  H   -0.022594
    72  H   -0.022795
    73  H    0.005258
    74  H    0.014103
    75  H   -0.027087
    76  H   -0.013296
    77  H   -0.003483
    78  H   -0.008171
    79  H    0.008311
    80  H   -0.019555
    81  H   -0.002215
    82  H    0.008654
    83  H   -0.024461
    84  H    0.009140
    85  H   -0.021737
    86  H   -0.028920
    87  H   -0.011223
    88  H    0.009023
    89  H   -0.021612
    90  H   -0.025245
    91  H   -0.020968
    92  H   -0.002496
    93  H    0.007173
    94  H   -0.003631
    95  H    0.003948
    96  H    0.003000
    97  H   -0.010421
    98  H   -0.002153
    99  H    0.023965
   100  H    0.017521
   101  H    0.013035
   102  H    0.002273
   103  H   -0.016379
   104  H   -0.047195
   105  H   -0.017521
   106  H   -0.000264
   107  H    0.004309
   108  H   -0.040316
   109  H   -0.022939
   110  H   -0.027641
   111  H   -0.023374
   112  H   -0.026015
   113  H   -0.034751
   114  H   -0.036922
   115  H   -0.019504
   116  H   -0.020918
   117  H   -0.029216
   118  H   -0.045000
   119  H   -0.034219
   120  H   -0.018609
   121  H   -0.036191
   122  H   -0.046625
   123  H   -0.039210
   124  H   -0.036087
   125  H   -0.025942
   126  H   -0.012332
   127  H   -0.011154
   128  H   -0.045890
   129  H   -0.020830
   130  H   -0.009067
   131  H   -0.022735
   132  H   -0.034683
   133  H   -0.045990
   134  H   -0.032721
   135  H   -0.030612
   136  H   -0.031818
   137  H   -0.002358
   138  H   -0.016524
   139  H   -0.008156
   140  H   -0.013348
 Sum of Mulliken charges =  -0.00000

 Dipole moment (field-independent basis, Debye):
    X=              4.6996    Y=              1.5548    Z=             -4.1291  Tot=              6.4462
 Quadrupole moment (field-independent basis, Debye-Ang):
   XX=           -378.9503   YY=           -442.5091   ZZ=           -407.3522
   XY=            -19.5635   XZ=             10.7391   YZ=             10.4871

 Normal termination of Gaussian 16 at Wed May  4 04:59:04 2022.
