 Gaussian 16, Revision A.03,
 Gaussian 16:  ES64L-G16RevA.03 25-Dec-2016

 -----------------------------------
 #p cam-b3lyp/Def2SVP td=(nstates=5)
 -----------------------------------

 -------------------------------------------------------
 step_1351_chromophore_3 TDDFT with cam-b3lyp functional
 -------------------------------------------------------
 Symbolic Z-matrix:
 Charge =  0 Multiplicity = 1

                         Standard orientation:
 ---------------------------------------------------------------------
 Center     Atomic      Atomic             Coordinates (Angstroms)
 Number     Number       Type             X           Y           Z
 ---------------------------------------------------------------------
      1         12           0       -5.419227    0.885990   -0.022568
      2          6           0       -4.561424   -2.455844    0.047823
      3          6           0       -2.064226    1.583860    0.116487
      4          6           0       -6.258248    4.053516    0.091079
      5          6           0       -8.756238    0.023735    0.327442
      6          7           0       -3.481910   -0.309419   -0.054198
      7          6           0       -3.403881   -1.655066    0.004581
      8          6           0       -1.959741   -2.105776   -0.069572
      9          6           0       -1.101451   -0.856393    0.224206
     10          6           0       -2.244585    0.208748    0.081725
     11          6           0       -0.302875   -0.836075    1.553333
     12          6           0       -1.707983   -2.699267   -1.501879
     13          6           0       -0.641719   -3.820665   -1.626324
     14          6           0        0.619183   -3.596934   -0.744441
     15          8           0        0.780444   -3.915834    0.406783
     16          8           0        1.526357   -2.860368   -1.410362
     17          7           0       -4.344497    2.602770    0.098399
     18          6           0       -2.994038    2.677726    0.018124
     19          6           0       -2.577760    3.996858    0.209470
     20          6           0       -3.760326    4.801870    0.138425
     21          6           0       -4.924268    3.812407    0.169266
     22          6           0       -1.157197    4.486153    0.264214
     23          6           0       -4.050543    6.298446    0.179932
     24          8           0       -5.132798    6.886990    0.384950
     25          6           0       -2.808192    7.162976   -0.121976
     26          7           0       -7.227320    1.850505    0.183527
     27          6           0       -7.327313    3.207312    0.267951
     28          6           0       -8.771976    3.708030    0.363663
     29          6           0       -9.610372    2.424277    0.221150
     30          6           0       -8.533687    1.356018    0.151437
     31          6           0       -8.984642    4.556784    1.635303
     32          6           0      -10.416767    2.394850   -1.124283
     33          6           0       -9.647350    2.251669   -2.424153
     34          7           0       -6.417268   -0.849963    0.205539
     35          6           0       -7.753046   -1.040294    0.407312
     36          6           0       -8.028202   -2.495577    0.524856
     37          6           0       -6.776118   -3.086150    0.394018
     38          6           0       -5.877120   -2.031658    0.144685
     39          6           0       -9.372902   -3.092910    0.462995
     40          6           0       -6.031514   -4.373741    0.354444
     41          8           0       -6.462253   -5.518321    0.494512
     42          6           0       -4.638462   -3.981292    0.087424
     43          6           0       -3.736401   -4.666213    1.077654
     44          8           0       -3.650570   -4.443731    2.281270
     45          8           0       -3.031358   -5.661050    0.523280
     46          6           0       -1.934154   -6.393795    1.164611
     47          6           0        2.757541   -2.565692   -0.767645
     48          6           0        3.941359   -2.439103   -1.718721
     49          6           0        5.253513   -2.712987   -1.697555
     50          6           0        5.796041   -3.360739   -0.451984
     51          6           0        6.209991   -2.289086   -2.793586
     52          6           0        6.802042   -0.808225   -2.610677
     53          6           0        8.305108   -0.944209   -2.381176
     54          6           0        8.912342    0.383179   -1.983054
     55          6           0        8.484057    0.745446   -0.590640
     56          6           0       10.456244    0.147010   -2.038827
     57          6           0       11.150795    1.431688   -2.469393
     58          6           0       12.538740    1.623575   -1.844609
     59          6           0       12.557977    2.728150   -0.789853
     60          6           0       13.271221    3.981760   -1.347070
     61          6           0       13.236032    2.176728    0.508571
     62          6           0       12.189625    1.429232    1.418034
     63          6           0       12.799997    0.274076    2.249189
     64          6           0       12.727105    0.552479    3.780514
     65          6           0       13.936377   -0.073557    4.539759
     66          6           0       11.328486    0.196375    4.363702
     67          1           0       -1.021659    1.655318    0.432215
     68          1           0       -6.591075    5.090758    0.006820
     69          1           0       -9.806773   -0.271156    0.362108
     70          1           0       -1.616979   -2.819144    0.680581
     71          1           0       -0.500150   -0.555038   -0.633118
     72          1           0        0.675082   -0.402831    1.343531
     73          1           0        0.042173   -1.850121    1.757740
     74          1           0       -0.762593   -0.370986    2.426380
     75          1           0       -1.339402   -1.891710   -2.135752
     76          1           0       -2.655589   -2.956270   -1.975974
     77          1           0       -0.368096   -4.053370   -2.655063
     78          1           0       -1.191518   -4.674223   -1.232731
     79          1           0       -0.930567    4.888287   -0.723580
     80          1           0       -0.447258    3.686638    0.476946
     81          1           0       -1.017661    5.256307    1.022678
     82          1           0       -2.120948    7.044602    0.716222
     83          1           0       -3.068172    8.220501   -0.156335
     84          1           0       -2.515000    6.927699   -1.145292
     85          1           0       -8.913347    4.478395   -0.394882
     86          1           0      -10.103817    2.269814    1.181234
     87          1           0       -9.693348    5.361477    1.438466
     88          1           0       -8.108213    5.050947    2.054464
     89          1           0       -9.394844    3.958406    2.448925
     90          1           0      -10.953000    3.334074   -1.259733
     91          1           0      -11.179954    1.617183   -1.108146
     92          1           0      -10.249732    1.568785   -3.023595
     93          1           0       -8.659410    1.837466   -2.222858
     94          1           0       -9.453481    3.190406   -2.943581
     95          1           0       -9.811413   -3.292957    1.441091
     96          1           0       -9.358358   -4.034138   -0.086617
     97          1           0       -9.993154   -2.386974   -0.090337
     98          1           0       -4.419653   -4.382706   -0.901737
     99          1           0       -1.411362   -5.795052    1.910118
    100          1           0       -1.192174   -6.786345    0.468935
    101          1           0       -2.305985   -7.274693    1.688186
    102          1           0        2.952860   -3.230802    0.073532
    103          1           0        2.530158   -1.569739   -0.384555
    104          1           0        3.580071   -2.115754   -2.694767
    105          1           0        5.051003   -3.487508    0.333069
    106          1           0        6.557374   -2.640681   -0.152212
    107          1           0        6.164288   -4.339061   -0.759705
    108          1           0        5.578260   -2.137996   -3.668891
    109          1           0        6.949978   -3.053343   -3.030324
    110          1           0        6.378164   -0.427718   -1.680459
    111          1           0        6.634595   -0.146461   -3.460161
    112          1           0        8.794114   -1.355821   -3.264289
    113          1           0        8.326665   -1.599568   -1.510573
    114          1           0        8.723364    1.212991   -2.664037
    115          1           0        7.863182   -0.004517   -0.099962
    116          1           0        7.888001    1.657507   -0.602383
    117          1           0        9.315973    0.955322    0.081286
    118          1           0       10.717489   -0.619177   -2.768519
    119          1           0       10.675615   -0.296737   -1.067666
    120          1           0       10.649273    2.387344   -2.317900
    121          1           0       11.492150    1.280145   -3.493650
    122          1           0       13.255217    1.896123   -2.619887
    123          1           0       12.808389    0.694773   -1.341845
    124          1           0       11.516037    2.962888   -0.574188
    125          1           0       14.260681    3.953324   -0.891322
    126          1           0       12.720673    4.818527   -0.917196
    127          1           0       13.481205    4.041126   -2.414928
    128          1           0       13.451112    3.059046    1.109955
    129          1           0       14.136738    1.569981    0.416231
    130          1           0       11.426584    0.904358    0.845260
    131          1           0       11.748790    2.115485    2.140509
    132          1           0       13.782548    0.024409    1.847971
    133          1           0       12.173082   -0.593486    2.048251
    134          1           0       12.855854    1.631860    3.870063
    135          1           0       14.565570   -0.502092    3.759555
    136          1           0       13.674704   -0.980353    5.083547
    137          1           0       14.438740    0.601509    5.232926
    138          1           0       10.864600   -0.681461    3.913463
    139          1           0       10.719177    1.075924    4.159748
    140          1           0       11.469910   -0.052447    5.415440
 ---------------------------------------------------------------------

 SCF Done:  E(RCAM-B3LYP) =  -3007.17375202     A.U. after   17 cycles

 Excitation energies and oscillator strengths:

 Excited State   1:      Singlet-A      1.7120 eV  724.20 nm  f=0.3944  <S**2>=0.000
     245 -> 248       -0.17121
     246 -> 247        0.68657
     245 <- 248       -0.10560
 This state for optimization and/or second-order correction.
 Total Energy, E(TD-HF/TD-DFT) =  -3007.11083693
 Copying the excited state density for this state as the 1-particle RhoCI density.

 Excited State   2:      Singlet-A      2.2458 eV  552.06 nm  f=0.1402  <S**2>=0.000
     245 -> 247        0.65013
     246 -> 248        0.26302

 Excited State   3:      Singlet-A      3.3967 eV  365.01 nm  f=0.0075  <S**2>=0.000
     241 -> 247        0.15091
     241 -> 249        0.10669
     241 -> 250       -0.12501
     244 -> 247        0.59670
     244 -> 249        0.13661
     246 -> 248       -0.13596

 Excited State   4:      Singlet-A      3.5250 eV  351.73 nm  f=0.0107  <S**2>=0.000
     241 -> 247        0.42142
     241 -> 249        0.14358
     241 -> 250       -0.11685
     242 -> 247        0.39414
     244 -> 247       -0.25224
     244 -> 250       -0.10610

 Excited State   5:      Singlet-A      3.6005 eV  344.35 nm  f=0.0526  <S**2>=0.000
     239 -> 247        0.22536
     239 -> 249       -0.16723
     240 -> 247        0.45623
     240 -> 249       -0.28695
     240 -> 250       -0.16237
     242 -> 247       -0.16933
     246 -> 248       -0.16749

 The electronic state is 1-A.
 Alpha  occ. eigenvalues --  -46.87394 -19.26022 -19.24617 -19.21053 -19.18846
 Alpha  occ. eigenvalues --  -19.18677 -19.18504 -14.41970 -14.41431 -14.39289
 Alpha  occ. eigenvalues --  -14.39256 -10.40559 -10.39112 -10.35006 -10.34765
 Alpha  occ. eigenvalues --  -10.32770 -10.31711 -10.30885 -10.30304 -10.30268
 Alpha  occ. eigenvalues --  -10.30044 -10.30011 -10.29844 -10.29782 -10.28403
 Alpha  occ. eigenvalues --  -10.28358 -10.28204 -10.28185 -10.28044 -10.28030
 Alpha  occ. eigenvalues --  -10.27992 -10.27988 -10.27779 -10.27639 -10.27481
 Alpha  occ. eigenvalues --  -10.27476 -10.27000 -10.26778 -10.26734 -10.26622
 Alpha  occ. eigenvalues --  -10.26589 -10.26470 -10.26188 -10.26151 -10.26075
 Alpha  occ. eigenvalues --  -10.25911 -10.25846 -10.25492 -10.25462 -10.25356
 Alpha  occ. eigenvalues --  -10.25317 -10.25308 -10.25264 -10.25100 -10.25039
 Alpha  occ. eigenvalues --  -10.24859 -10.24839 -10.24777 -10.24770 -10.24767
 Alpha  occ. eigenvalues --  -10.24651 -10.24602 -10.24461 -10.24458 -10.24293
 Alpha  occ. eigenvalues --  -10.23833  -3.16258  -1.91154  -1.90712  -1.90578
 Alpha  occ. eigenvalues --   -1.19259  -1.16270  -1.09927  -1.09327  -1.08080
 Alpha  occ. eigenvalues --   -1.06388  -1.05376  -1.04325  -1.03822  -1.02711
 Alpha  occ. eigenvalues --   -0.93444  -0.91613  -0.90498  -0.89968  -0.89603
 Alpha  occ. eigenvalues --   -0.89333  -0.88734  -0.87848  -0.87551  -0.87251
 Alpha  occ. eigenvalues --   -0.86423  -0.85954  -0.84642  -0.83876  -0.83810
 Alpha  occ. eigenvalues --   -0.82852  -0.82058  -0.81491  -0.81179  -0.80491
 Alpha  occ. eigenvalues --   -0.79842  -0.78394  -0.78086  -0.77416  -0.76812
 Alpha  occ. eigenvalues --   -0.76586  -0.75651  -0.75560  -0.75302  -0.74412
 Alpha  occ. eigenvalues --   -0.73774  -0.72984  -0.71663  -0.70708  -0.69317
 Alpha  occ. eigenvalues --   -0.68826  -0.68504  -0.67360  -0.66427  -0.65834
 Alpha  occ. eigenvalues --   -0.65281  -0.65258  -0.64785  -0.64580  -0.64282
 Alpha  occ. eigenvalues --   -0.64230  -0.63435  -0.62926  -0.62620  -0.60678
 Alpha  occ. eigenvalues --   -0.60254  -0.60024  -0.59262  -0.58692  -0.58392
 Alpha  occ. eigenvalues --   -0.57971  -0.57320  -0.56399  -0.56229  -0.56113
 Alpha  occ. eigenvalues --   -0.55823  -0.55424  -0.55145  -0.54576  -0.54214
 Alpha  occ. eigenvalues --   -0.54207  -0.53871  -0.53416  -0.52968  -0.52904
 Alpha  occ. eigenvalues --   -0.52808  -0.52457  -0.52391  -0.52140  -0.52047
 Alpha  occ. eigenvalues --   -0.51821  -0.51447  -0.51288  -0.51133  -0.50845
 Alpha  occ. eigenvalues --   -0.50791  -0.50652  -0.50274  -0.50051  -0.49865
 Alpha  occ. eigenvalues --   -0.49590  -0.49289  -0.49084  -0.48954  -0.48850
 Alpha  occ. eigenvalues --   -0.48568  -0.48501  -0.48413  -0.48107  -0.47976
 Alpha  occ. eigenvalues --   -0.47654  -0.47403  -0.47369  -0.47215  -0.46873
 Alpha  occ. eigenvalues --   -0.46864  -0.46440  -0.46307  -0.46139  -0.46006
 Alpha  occ. eigenvalues --   -0.45752  -0.45617  -0.45358  -0.45148  -0.44928
 Alpha  occ. eigenvalues --   -0.44626  -0.44486  -0.44445  -0.44269  -0.43826
 Alpha  occ. eigenvalues --   -0.43628  -0.43286  -0.42923  -0.42900  -0.42718
 Alpha  occ. eigenvalues --   -0.42674  -0.42546  -0.42435  -0.42337  -0.42210
 Alpha  occ. eigenvalues --   -0.42119  -0.41557  -0.41367  -0.41353  -0.41209
 Alpha  occ. eigenvalues --   -0.41001  -0.40938  -0.40657  -0.40578  -0.40415
 Alpha  occ. eigenvalues --   -0.39757  -0.39504  -0.39416  -0.39107  -0.39047
 Alpha  occ. eigenvalues --   -0.38931  -0.38656  -0.38414  -0.38002  -0.37572
 Alpha  occ. eigenvalues --   -0.37552  -0.37383  -0.37225  -0.36912  -0.36854
 Alpha  occ. eigenvalues --   -0.35891  -0.35832  -0.35347  -0.34786  -0.34770
 Alpha  occ. eigenvalues --   -0.33874  -0.33516  -0.32682  -0.31480  -0.30929
 Alpha  occ. eigenvalues --   -0.30345  -0.30220  -0.30196  -0.29644  -0.23833
 Alpha  occ. eigenvalues --   -0.21049
 Alpha virt. eigenvalues --   -0.08544  -0.01029   0.00663   0.02161   0.03122
 Alpha virt. eigenvalues --    0.04344   0.05207   0.05845   0.06109   0.06891
 Alpha virt. eigenvalues --    0.07821   0.07996   0.08464   0.08981   0.09232

 Mulliken charges:
               1
     1  Mg   0.851545
     2  C    0.002343
     3  C   -0.058905
     4  C   -0.080082
     5  C   -0.078202
     6  N   -0.240708
     7  C   -0.030939
     8  C   -0.079652
     9  C   -0.016473
    10  C   -0.096008
    11  C    0.084648
    12  C    0.039859
    13  C    0.111436
    14  C    0.129678
    15  O   -0.224452
    16  O   -0.306504
    17  N   -0.377899
    18  C    0.205704
    19  C   -0.155764
    20  C   -0.068646
    21  C    0.152330
    22  C    0.134565
    23  C    0.022008
    24  O   -0.224574
    25  C    0.037095
    26  N   -0.334745
    27  C    0.048697
    28  C   -0.059459
    29  C    0.087891
    30  C   -0.005676
    31  C    0.048690
    32  C    0.030713
    33  C   -0.006421
    34  N   -0.315491
    35  C    0.108230
    36  C   -0.196560
    37  C   -0.009618
    38  C    0.082321
    39  C    0.118226
    40  C    0.050786
    41  O   -0.168066
    42  C    0.045959
    43  C    0.169438
    44  O   -0.223123
    45  O   -0.325738
    46  C    0.184063
    47  C    0.291845
    48  C   -0.121619
    49  C   -0.212329
    50  C    0.092848
    51  C    0.114550
    52  C    0.031516
    53  C    0.004074
    54  C   -0.130030
    55  C    0.066647
    56  C    0.059448
    57  C    0.039363
    58  C    0.051496
    59  C   -0.163336
    60  C    0.066525
    61  C    0.064184
    62  C   -0.028755
    63  C    0.036723
    64  C   -0.171941
    65  C    0.053117
    66  C    0.056970
    67  H   -0.035561
    68  H   -0.004976
    69  H   -0.032058
    70  H    0.036667
    71  H    0.013105
    72  H    0.000544
    73  H    0.031374
    74  H    0.040803
    75  H    0.003585
    76  H    0.017472
    77  H    0.031106
    78  H    0.020896
    79  H    0.035092
    80  H    0.009826
    81  H    0.023631
    82  H    0.034756
    83  H    0.012476
    84  H    0.036915
    85  H    0.013488
    86  H    0.009061
    87  H    0.013475
    88  H    0.035134
    89  H    0.002915
    90  H    0.004020
    91  H    0.007550
    92  H    0.021567
    93  H    0.028311
    94  H    0.019309
    95  H    0.030732
    96  H    0.029977
    97  H    0.012704
    98  H    0.041553
    99  H    0.048451
   100  H    0.037792
   101  H    0.036435
   102  H    0.031842
   103  H    0.010627
   104  H   -0.014162
   105  H    0.007125
   106  H    0.016607
   107  H    0.028271
   108  H   -0.006843
   109  H    0.007613
   110  H    0.000565
   111  H    0.005616
   112  H    0.002670
   113  H   -0.010001
   114  H   -0.004082
   115  H    0.003363
   116  H    0.004567
   117  H   -0.005351
   118  H   -0.013342
   119  H   -0.008128
   120  H    0.006995
   121  H   -0.005203
   122  H   -0.016317
   123  H   -0.010818
   124  H   -0.005409
   125  H   -0.000833
   126  H    0.011765
   127  H    0.013370
   128  H   -0.015226
   129  H    0.006754
   130  H    0.007549
   131  H    0.003191
   132  H   -0.006756
   133  H   -0.016809
   134  H   -0.001926
   135  H   -0.005526
   136  H   -0.006967
   137  H    0.021698
   138  H    0.006499
   139  H    0.013880
   140  H    0.011185
 Sum of Mulliken charges =  -0.00000

 Dipole moment (field-independent basis, Debye):
    X=              5.0862    Y=              1.9529    Z=             -4.3208  Tot=              6.9537
 Quadrupole moment (field-independent basis, Debye-Ang):
   XX=           -380.2316   YY=           -438.6014   ZZ=           -407.6041
   XY=            -21.1057   XZ=             11.8670   YZ=             11.0877

 Normal termination of Gaussian 16 at Wed May  4 03:57:40 2022.
