 Gaussian 16, Revision A.03,
 Gaussian 16:  ES64L-G16RevA.03 25-Dec-2016

 ---------------------------------
 #p PBE1PBE/Def2SVP td=(nstates=5)
 ---------------------------------

 -----------------------------------------------------
 step_1351_chromophore_3 TDDFT with PBE1PBE functional
 -----------------------------------------------------
 Symbolic Z-matrix:
 Charge =  0 Multiplicity = 1

                         Standard orientation:
 ---------------------------------------------------------------------
 Center     Atomic      Atomic             Coordinates (Angstroms)
 Number     Number       Type             X           Y           Z
 ---------------------------------------------------------------------
      1         12           0       -5.419227    0.885990   -0.022568
      2          6           0       -4.561424   -2.455844    0.047823
      3          6           0       -2.064226    1.583860    0.116487
      4          6           0       -6.258248    4.053516    0.091079
      5          6           0       -8.756238    0.023735    0.327442
      6          7           0       -3.481910   -0.309419   -0.054198
      7          6           0       -3.403881   -1.655066    0.004581
      8          6           0       -1.959741   -2.105776   -0.069572
      9          6           0       -1.101451   -0.856393    0.224206
     10          6           0       -2.244585    0.208748    0.081725
     11          6           0       -0.302875   -0.836075    1.553333
     12          6           0       -1.707983   -2.699267   -1.501879
     13          6           0       -0.641719   -3.820665   -1.626324
     14          6           0        0.619183   -3.596934   -0.744441
     15          8           0        0.780444   -3.915834    0.406783
     16          8           0        1.526357   -2.860368   -1.410362
     17          7           0       -4.344497    2.602770    0.098399
     18          6           0       -2.994038    2.677726    0.018124
     19          6           0       -2.577760    3.996858    0.209470
     20          6           0       -3.760326    4.801870    0.138425
     21          6           0       -4.924268    3.812407    0.169266
     22          6           0       -1.157197    4.486153    0.264214
     23          6           0       -4.050543    6.298446    0.179932
     24          8           0       -5.132798    6.886990    0.384950
     25          6           0       -2.808192    7.162976   -0.121976
     26          7           0       -7.227320    1.850505    0.183527
     27          6           0       -7.327313    3.207312    0.267951
     28          6           0       -8.771976    3.708030    0.363663
     29          6           0       -9.610372    2.424277    0.221150
     30          6           0       -8.533687    1.356018    0.151437
     31          6           0       -8.984642    4.556784    1.635303
     32          6           0      -10.416767    2.394850   -1.124283
     33          6           0       -9.647350    2.251669   -2.424153
     34          7           0       -6.417268   -0.849963    0.205539
     35          6           0       -7.753046   -1.040294    0.407312
     36          6           0       -8.028202   -2.495577    0.524856
     37          6           0       -6.776118   -3.086150    0.394018
     38          6           0       -5.877120   -2.031658    0.144685
     39          6           0       -9.372902   -3.092910    0.462995
     40          6           0       -6.031514   -4.373741    0.354444
     41          8           0       -6.462253   -5.518321    0.494512
     42          6           0       -4.638462   -3.981292    0.087424
     43          6           0       -3.736401   -4.666213    1.077654
     44          8           0       -3.650570   -4.443731    2.281270
     45          8           0       -3.031358   -5.661050    0.523280
     46          6           0       -1.934154   -6.393795    1.164611
     47          6           0        2.757541   -2.565692   -0.767645
     48          6           0        3.941359   -2.439103   -1.718721
     49          6           0        5.253513   -2.712987   -1.697555
     50          6           0        5.796041   -3.360739   -0.451984
     51          6           0        6.209991   -2.289086   -2.793586
     52          6           0        6.802042   -0.808225   -2.610677
     53          6           0        8.305108   -0.944209   -2.381176
     54          6           0        8.912342    0.383179   -1.983054
     55          6           0        8.484057    0.745446   -0.590640
     56          6           0       10.456244    0.147010   -2.038827
     57          6           0       11.150795    1.431688   -2.469393
     58          6           0       12.538740    1.623575   -1.844609
     59          6           0       12.557977    2.728150   -0.789853
     60          6           0       13.271221    3.981760   -1.347070
     61          6           0       13.236032    2.176728    0.508571
     62          6           0       12.189625    1.429232    1.418034
     63          6           0       12.799997    0.274076    2.249189
     64          6           0       12.727105    0.552479    3.780514
     65          6           0       13.936377   -0.073557    4.539759
     66          6           0       11.328486    0.196375    4.363702
     67          1           0       -1.021659    1.655318    0.432215
     68          1           0       -6.591075    5.090758    0.006820
     69          1           0       -9.806773   -0.271156    0.362108
     70          1           0       -1.616979   -2.819144    0.680581
     71          1           0       -0.500150   -0.555038   -0.633118
     72          1           0        0.675082   -0.402831    1.343531
     73          1           0        0.042173   -1.850121    1.757740
     74          1           0       -0.762593   -0.370986    2.426380
     75          1           0       -1.339402   -1.891710   -2.135752
     76          1           0       -2.655589   -2.956270   -1.975974
     77          1           0       -0.368096   -4.053370   -2.655063
     78          1           0       -1.191518   -4.674223   -1.232731
     79          1           0       -0.930567    4.888287   -0.723580
     80          1           0       -0.447258    3.686638    0.476946
     81          1           0       -1.017661    5.256307    1.022678
     82          1           0       -2.120948    7.044602    0.716222
     83          1           0       -3.068172    8.220501   -0.156335
     84          1           0       -2.515000    6.927699   -1.145292
     85          1           0       -8.913347    4.478395   -0.394882
     86          1           0      -10.103817    2.269814    1.181234
     87          1           0       -9.693348    5.361477    1.438466
     88          1           0       -8.108213    5.050947    2.054464
     89          1           0       -9.394844    3.958406    2.448925
     90          1           0      -10.953000    3.334074   -1.259733
     91          1           0      -11.179954    1.617183   -1.108146
     92          1           0      -10.249732    1.568785   -3.023595
     93          1           0       -8.659410    1.837466   -2.222858
     94          1           0       -9.453481    3.190406   -2.943581
     95          1           0       -9.811413   -3.292957    1.441091
     96          1           0       -9.358358   -4.034138   -0.086617
     97          1           0       -9.993154   -2.386974   -0.090337
     98          1           0       -4.419653   -4.382706   -0.901737
     99          1           0       -1.411362   -5.795052    1.910118
    100          1           0       -1.192174   -6.786345    0.468935
    101          1           0       -2.305985   -7.274693    1.688186
    102          1           0        2.952860   -3.230802    0.073532
    103          1           0        2.530158   -1.569739   -0.384555
    104          1           0        3.580071   -2.115754   -2.694767
    105          1           0        5.051003   -3.487508    0.333069
    106          1           0        6.557374   -2.640681   -0.152212
    107          1           0        6.164288   -4.339061   -0.759705
    108          1           0        5.578260   -2.137996   -3.668891
    109          1           0        6.949978   -3.053343   -3.030324
    110          1           0        6.378164   -0.427718   -1.680459
    111          1           0        6.634595   -0.146461   -3.460161
    112          1           0        8.794114   -1.355821   -3.264289
    113          1           0        8.326665   -1.599568   -1.510573
    114          1           0        8.723364    1.212991   -2.664037
    115          1           0        7.863182   -0.004517   -0.099962
    116          1           0        7.888001    1.657507   -0.602383
    117          1           0        9.315973    0.955322    0.081286
    118          1           0       10.717489   -0.619177   -2.768519
    119          1           0       10.675615   -0.296737   -1.067666
    120          1           0       10.649273    2.387344   -2.317900
    121          1           0       11.492150    1.280145   -3.493650
    122          1           0       13.255217    1.896123   -2.619887
    123          1           0       12.808389    0.694773   -1.341845
    124          1           0       11.516037    2.962888   -0.574188
    125          1           0       14.260681    3.953324   -0.891322
    126          1           0       12.720673    4.818527   -0.917196
    127          1           0       13.481205    4.041126   -2.414928
    128          1           0       13.451112    3.059046    1.109955
    129          1           0       14.136738    1.569981    0.416231
    130          1           0       11.426584    0.904358    0.845260
    131          1           0       11.748790    2.115485    2.140509
    132          1           0       13.782548    0.024409    1.847971
    133          1           0       12.173082   -0.593486    2.048251
    134          1           0       12.855854    1.631860    3.870063
    135          1           0       14.565570   -0.502092    3.759555
    136          1           0       13.674704   -0.980353    5.083547
    137          1           0       14.438740    0.601509    5.232926
    138          1           0       10.864600   -0.681461    3.913463
    139          1           0       10.719177    1.075924    4.159748
    140          1           0       11.469910   -0.052447    5.415440
 ---------------------------------------------------------------------

 SCF Done:  E(RPBE1PBE) =  -3005.36211444     A.U. after   15 cycles

 Excitation energies and oscillator strengths:

 Excited State   1:      Singlet-A      1.8720 eV  662.32 nm  f=0.3860  <S**2>=0.000
     245 -> 248       -0.16118
     246 -> 247        0.69380
     246 <- 247       -0.11033
 This state for optimization and/or second-order correction.
 Total Energy, E(TD-HF/TD-DFT) =  -3005.29332126
 Copying the excited state density for this state as the 1-particle RhoCI density.

 Excited State   2:      Singlet-A      2.2499 eV  551.08 nm  f=0.1313  <S**2>=0.000
     245 -> 247        0.65874
     246 -> 248        0.23533

 Excited State   3:      Singlet-A      2.8847 eV  429.80 nm  f=0.0020  <S**2>=0.000
     242 -> 247       -0.10236
     244 -> 247        0.66897

 Excited State   4:      Singlet-A      3.1066 eV  399.10 nm  f=0.0032  <S**2>=0.000
     240 -> 247        0.25917
     241 -> 247        0.55139
     241 -> 249       -0.15181
     242 -> 247       -0.27101

 Excited State   5:      Singlet-A      3.1660 eV  391.61 nm  f=0.0059  <S**2>=0.000
     241 -> 247        0.28383
     242 -> 247        0.61927
     244 -> 247        0.10595

 The electronic state is 1-A.
 Alpha  occ. eigenvalues --  -46.90810 -19.26681 -19.25254 -19.21295 -19.19071
 Alpha  occ. eigenvalues --  -19.18871 -19.18735 -14.41386 -14.41051 -14.38927
 Alpha  occ. eigenvalues --  -14.38888 -10.37571 -10.36130 -10.32105 -10.31907
 Alpha  occ. eigenvalues --  -10.30170 -10.28936 -10.28658 -10.27964 -10.27959
 Alpha  occ. eigenvalues --  -10.27881 -10.27862 -10.27467 -10.27377 -10.26190
 Alpha  occ. eigenvalues --  -10.25850 -10.25845 -10.25842 -10.25798 -10.25719
 Alpha  occ. eigenvalues --  -10.25715 -10.25674 -10.25522 -10.25294 -10.25288
 Alpha  occ. eigenvalues --  -10.25262 -10.24745 -10.24308 -10.24248 -10.24214
 Alpha  occ. eigenvalues --  -10.24206 -10.24124 -10.23658 -10.23626 -10.23561
 Alpha  occ. eigenvalues --  -10.23535 -10.23467 -10.23024 -10.23018 -10.22967
 Alpha  occ. eigenvalues --  -10.22963 -10.22698 -10.22694 -10.22617 -10.22587
 Alpha  occ. eigenvalues --  -10.22523 -10.22436 -10.22417 -10.22364 -10.22183
 Alpha  occ. eigenvalues --  -10.22165 -10.22156 -10.22047 -10.21861 -10.21688
 Alpha  occ. eigenvalues --  -10.21391  -3.13245  -1.86085  -1.85620  -1.85490
 Alpha  occ. eigenvalues --   -1.14079  -1.11054  -1.04776  -1.04055  -1.02753
 Alpha  occ. eigenvalues --   -1.01200  -1.00092  -0.98974  -0.98452  -0.97361
 Alpha  occ. eigenvalues --   -0.87819  -0.85733  -0.84646  -0.84155  -0.83917
 Alpha  occ. eigenvalues --   -0.83463  -0.83064  -0.81964  -0.81883  -0.81555
 Alpha  occ. eigenvalues --   -0.80717  -0.80197  -0.78832  -0.78204  -0.78077
 Alpha  occ. eigenvalues --   -0.77073  -0.76310  -0.75761  -0.75408  -0.74649
 Alpha  occ. eigenvalues --   -0.74111  -0.72716  -0.72379  -0.71634  -0.71136
 Alpha  occ. eigenvalues --   -0.70742  -0.69937  -0.69737  -0.69460  -0.68585
 Alpha  occ. eigenvalues --   -0.68098  -0.67455  -0.66073  -0.65032  -0.63673
 Alpha  occ. eigenvalues --   -0.63146  -0.62906  -0.61748  -0.60679  -0.60317
 Alpha  occ. eigenvalues --   -0.59747  -0.59509  -0.59295  -0.59000  -0.58820
 Alpha  occ. eigenvalues --   -0.58416  -0.57572  -0.57229  -0.57105  -0.55091
 Alpha  occ. eigenvalues --   -0.54680  -0.54558  -0.53902  -0.53204  -0.52849
 Alpha  occ. eigenvalues --   -0.52460  -0.51905  -0.50880  -0.50785  -0.50586
 Alpha  occ. eigenvalues --   -0.50381  -0.49904  -0.49660  -0.49172  -0.48717
 Alpha  occ. eigenvalues --   -0.48627  -0.48398  -0.47941  -0.47556  -0.47394
 Alpha  occ. eigenvalues --   -0.47221  -0.46914  -0.46874  -0.46711  -0.46528
 Alpha  occ. eigenvalues --   -0.46383  -0.45990  -0.45910  -0.45627  -0.45419
 Alpha  occ. eigenvalues --   -0.45368  -0.45204  -0.44784  -0.44611  -0.44440
 Alpha  occ. eigenvalues --   -0.44202  -0.43892  -0.43694  -0.43621  -0.43440
 Alpha  occ. eigenvalues --   -0.43208  -0.43059  -0.43045  -0.42750  -0.42544
 Alpha  occ. eigenvalues --   -0.42274  -0.42016  -0.41916  -0.41883  -0.41576
 Alpha  occ. eigenvalues --   -0.41469  -0.41157  -0.40893  -0.40885  -0.40659
 Alpha  occ. eigenvalues --   -0.40496  -0.40295  -0.40169  -0.39820  -0.39725
 Alpha  occ. eigenvalues --   -0.39356  -0.39275  -0.39208  -0.38988  -0.38683
 Alpha  occ. eigenvalues --   -0.38412  -0.38125  -0.37793  -0.37709  -0.37584
 Alpha  occ. eigenvalues --   -0.37423  -0.37311  -0.37202  -0.37109  -0.37035
 Alpha  occ. eigenvalues --   -0.36842  -0.36363  -0.36227  -0.36196  -0.35991
 Alpha  occ. eigenvalues --   -0.35762  -0.35756  -0.35521  -0.35306  -0.35240
 Alpha  occ. eigenvalues --   -0.34615  -0.34271  -0.34191  -0.34072  -0.33898
 Alpha  occ. eigenvalues --   -0.33821  -0.33479  -0.33184  -0.32768  -0.32581
 Alpha  occ. eigenvalues --   -0.32363  -0.32351  -0.32241  -0.31922  -0.31746
 Alpha  occ. eigenvalues --   -0.30805  -0.30764  -0.30191  -0.29961  -0.29710
 Alpha  occ. eigenvalues --   -0.28868  -0.28696  -0.27878  -0.27007  -0.26007
 Alpha  occ. eigenvalues --   -0.25760  -0.25517  -0.25499  -0.24767  -0.20760
 Alpha  occ. eigenvalues --   -0.18674
 Alpha virt. eigenvalues --   -0.11015  -0.04629  -0.03553  -0.02163  -0.00283
 Alpha virt. eigenvalues --    0.00222   0.00818   0.01215   0.02134   0.03455
 Alpha virt. eigenvalues --    0.03740   0.04366   0.04645   0.05469   0.05685

 Mulliken charges:
               1
     1  Mg   1.007682
     2  C   -0.018360
     3  C   -0.062586
     4  C   -0.073619
     5  C   -0.064115
     6  N   -0.344261
     7  C    0.043550
     8  C   -0.151162
     9  C   -0.092178
    10  C   -0.045273
    11  C    0.023731
    12  C   -0.002307
    13  C    0.028498
    14  C    0.196566
    15  O   -0.260198
    16  O   -0.339290
    17  N   -0.499281
    18  C    0.234084
    19  C   -0.184788
    20  C   -0.108460
    21  C    0.188598
    22  C    0.071755
    23  C    0.070240
    24  O   -0.261991
    25  C   -0.041885
    26  N   -0.436827
    27  C    0.079876
    28  C   -0.128421
    29  C   -0.001992
    30  C    0.023613
    31  C   -0.003209
    32  C   -0.026930
    33  C   -0.079433
    34  N   -0.452471
    35  C    0.131367
    36  C   -0.213399
    37  C   -0.052497
    38  C    0.136045
    39  C    0.061015
    40  C    0.152652
    41  O   -0.217090
    42  C   -0.058277
    43  C    0.264741
    44  O   -0.260377
    45  O   -0.362615
    46  C    0.130727
    47  C    0.250776
    48  C   -0.130381
    49  C   -0.260889
    50  C    0.027586
    51  C    0.051236
    52  C   -0.028366
    53  C   -0.060780
    54  C   -0.216058
    55  C    0.001898
    56  C    0.008438
    57  C   -0.030814
    58  C    0.004364
    59  C   -0.247802
    60  C    0.005062
    61  C    0.002892
    62  C   -0.100452
    63  C   -0.011814
    64  C   -0.266681
    65  C   -0.007709
    66  C   -0.003642
    67  H   -0.001521
    68  H    0.026738
    69  H   -0.000086
    70  H    0.074392
    71  H    0.049681
    72  H    0.028826
    73  H    0.059686
    74  H    0.067299
    75  H    0.036985
    76  H    0.050199
    77  H    0.061881
    78  H    0.060974
    79  H    0.062842
    80  H    0.037380
    81  H    0.051019
    82  H    0.061596
    83  H    0.040785
    84  H    0.063835
    85  H    0.049438
    86  H    0.045149
    87  H    0.040958
    88  H    0.062070
    89  H    0.030553
    90  H    0.038131
    91  H    0.039776
    92  H    0.049248
    93  H    0.060873
    94  H    0.046344
    95  H    0.059213
    96  H    0.058301
    97  H    0.039395
    98  H    0.079080
    99  H    0.068585
   100  H    0.058007
   101  H    0.058468
   102  H    0.056401
   103  H    0.041615
   104  H    0.016443
   105  H    0.035039
   106  H    0.046520
   107  H    0.056503
   108  H    0.027307
   109  H    0.038651
   110  H    0.035241
   111  H    0.037585
   112  H    0.035517
   113  H    0.026981
   114  H    0.033195
   115  H    0.031213
   116  H    0.032943
   117  H    0.029207
   118  H    0.019704
   119  H    0.024020
   120  H    0.037993
   121  H    0.029560
   122  H    0.016292
   123  H    0.023839
   124  H    0.032134
   125  H    0.027828
   126  H    0.039898
   127  H    0.039634
   128  H    0.020483
   129  H    0.036911
   130  H    0.048878
   131  H    0.035585
   132  H    0.023490
   133  H    0.016447
   134  H    0.037607
   135  H    0.022427
   136  H    0.021057
   137  H    0.048269
   138  H    0.033084
   139  H    0.040968
   140  H    0.039124
 Sum of Mulliken charges =  -0.00000

 Dipole moment (field-independent basis, Debye):
    X=              4.9445    Y=              1.8988    Z=             -4.3337  Tot=              6.8436
 Quadrupole moment (field-independent basis, Debye-Ang):
   XX=           -372.6702   YY=           -436.4693   ZZ=           -405.0062
   XY=            -21.3845   XZ=             12.0097   YZ=             10.8596

 Normal termination of Gaussian 16 at Wed May  4 04:15:43 2022.
