 Gaussian 16, Revision A.03,
 Gaussian 16:  ES64L-G16RevA.03 25-Dec-2016

 --------------------------------
 #p wB97XD/Def2SVP td=(nstates=5)
 --------------------------------

 ----------------------------------------------------
 step_1351_chromophore_3 TDDFT with wB97XD functional
 ----------------------------------------------------
 Symbolic Z-matrix:
 Charge =  0 Multiplicity = 1

                         Standard orientation:
 ---------------------------------------------------------------------
 Center     Atomic      Atomic             Coordinates (Angstroms)
 Number     Number       Type             X           Y           Z
 ---------------------------------------------------------------------
      1         12           0       -5.419227    0.885990   -0.022568
      2          6           0       -4.561424   -2.455844    0.047823
      3          6           0       -2.064226    1.583860    0.116487
      4          6           0       -6.258248    4.053516    0.091079
      5          6           0       -8.756238    0.023735    0.327442
      6          7           0       -3.481910   -0.309419   -0.054198
      7          6           0       -3.403881   -1.655066    0.004581
      8          6           0       -1.959741   -2.105776   -0.069572
      9          6           0       -1.101451   -0.856393    0.224206
     10          6           0       -2.244585    0.208748    0.081725
     11          6           0       -0.302875   -0.836075    1.553333
     12          6           0       -1.707983   -2.699267   -1.501879
     13          6           0       -0.641719   -3.820665   -1.626324
     14          6           0        0.619183   -3.596934   -0.744441
     15          8           0        0.780444   -3.915834    0.406783
     16          8           0        1.526357   -2.860368   -1.410362
     17          7           0       -4.344497    2.602770    0.098399
     18          6           0       -2.994038    2.677726    0.018124
     19          6           0       -2.577760    3.996858    0.209470
     20          6           0       -3.760326    4.801870    0.138425
     21          6           0       -4.924268    3.812407    0.169266
     22          6           0       -1.157197    4.486153    0.264214
     23          6           0       -4.050543    6.298446    0.179932
     24          8           0       -5.132798    6.886990    0.384950
     25          6           0       -2.808192    7.162976   -0.121976
     26          7           0       -7.227320    1.850505    0.183527
     27          6           0       -7.327313    3.207312    0.267951
     28          6           0       -8.771976    3.708030    0.363663
     29          6           0       -9.610372    2.424277    0.221150
     30          6           0       -8.533687    1.356018    0.151437
     31          6           0       -8.984642    4.556784    1.635303
     32          6           0      -10.416767    2.394850   -1.124283
     33          6           0       -9.647350    2.251669   -2.424153
     34          7           0       -6.417268   -0.849963    0.205539
     35          6           0       -7.753046   -1.040294    0.407312
     36          6           0       -8.028202   -2.495577    0.524856
     37          6           0       -6.776118   -3.086150    0.394018
     38          6           0       -5.877120   -2.031658    0.144685
     39          6           0       -9.372902   -3.092910    0.462995
     40          6           0       -6.031514   -4.373741    0.354444
     41          8           0       -6.462253   -5.518321    0.494512
     42          6           0       -4.638462   -3.981292    0.087424
     43          6           0       -3.736401   -4.666213    1.077654
     44          8           0       -3.650570   -4.443731    2.281270
     45          8           0       -3.031358   -5.661050    0.523280
     46          6           0       -1.934154   -6.393795    1.164611
     47          6           0        2.757541   -2.565692   -0.767645
     48          6           0        3.941359   -2.439103   -1.718721
     49          6           0        5.253513   -2.712987   -1.697555
     50          6           0        5.796041   -3.360739   -0.451984
     51          6           0        6.209991   -2.289086   -2.793586
     52          6           0        6.802042   -0.808225   -2.610677
     53          6           0        8.305108   -0.944209   -2.381176
     54          6           0        8.912342    0.383179   -1.983054
     55          6           0        8.484057    0.745446   -0.590640
     56          6           0       10.456244    0.147010   -2.038827
     57          6           0       11.150795    1.431688   -2.469393
     58          6           0       12.538740    1.623575   -1.844609
     59          6           0       12.557977    2.728150   -0.789853
     60          6           0       13.271221    3.981760   -1.347070
     61          6           0       13.236032    2.176728    0.508571
     62          6           0       12.189625    1.429232    1.418034
     63          6           0       12.799997    0.274076    2.249189
     64          6           0       12.727105    0.552479    3.780514
     65          6           0       13.936377   -0.073557    4.539759
     66          6           0       11.328486    0.196375    4.363702
     67          1           0       -1.021659    1.655318    0.432215
     68          1           0       -6.591075    5.090758    0.006820
     69          1           0       -9.806773   -0.271156    0.362108
     70          1           0       -1.616979   -2.819144    0.680581
     71          1           0       -0.500150   -0.555038   -0.633118
     72          1           0        0.675082   -0.402831    1.343531
     73          1           0        0.042173   -1.850121    1.757740
     74          1           0       -0.762593   -0.370986    2.426380
     75          1           0       -1.339402   -1.891710   -2.135752
     76          1           0       -2.655589   -2.956270   -1.975974
     77          1           0       -0.368096   -4.053370   -2.655063
     78          1           0       -1.191518   -4.674223   -1.232731
     79          1           0       -0.930567    4.888287   -0.723580
     80          1           0       -0.447258    3.686638    0.476946
     81          1           0       -1.017661    5.256307    1.022678
     82          1           0       -2.120948    7.044602    0.716222
     83          1           0       -3.068172    8.220501   -0.156335
     84          1           0       -2.515000    6.927699   -1.145292
     85          1           0       -8.913347    4.478395   -0.394882
     86          1           0      -10.103817    2.269814    1.181234
     87          1           0       -9.693348    5.361477    1.438466
     88          1           0       -8.108213    5.050947    2.054464
     89          1           0       -9.394844    3.958406    2.448925
     90          1           0      -10.953000    3.334074   -1.259733
     91          1           0      -11.179954    1.617183   -1.108146
     92          1           0      -10.249732    1.568785   -3.023595
     93          1           0       -8.659410    1.837466   -2.222858
     94          1           0       -9.453481    3.190406   -2.943581
     95          1           0       -9.811413   -3.292957    1.441091
     96          1           0       -9.358358   -4.034138   -0.086617
     97          1           0       -9.993154   -2.386974   -0.090337
     98          1           0       -4.419653   -4.382706   -0.901737
     99          1           0       -1.411362   -5.795052    1.910118
    100          1           0       -1.192174   -6.786345    0.468935
    101          1           0       -2.305985   -7.274693    1.688186
    102          1           0        2.952860   -3.230802    0.073532
    103          1           0        2.530158   -1.569739   -0.384555
    104          1           0        3.580071   -2.115754   -2.694767
    105          1           0        5.051003   -3.487508    0.333069
    106          1           0        6.557374   -2.640681   -0.152212
    107          1           0        6.164288   -4.339061   -0.759705
    108          1           0        5.578260   -2.137996   -3.668891
    109          1           0        6.949978   -3.053343   -3.030324
    110          1           0        6.378164   -0.427718   -1.680459
    111          1           0        6.634595   -0.146461   -3.460161
    112          1           0        8.794114   -1.355821   -3.264289
    113          1           0        8.326665   -1.599568   -1.510573
    114          1           0        8.723364    1.212991   -2.664037
    115          1           0        7.863182   -0.004517   -0.099962
    116          1           0        7.888001    1.657507   -0.602383
    117          1           0        9.315973    0.955322    0.081286
    118          1           0       10.717489   -0.619177   -2.768519
    119          1           0       10.675615   -0.296737   -1.067666
    120          1           0       10.649273    2.387344   -2.317900
    121          1           0       11.492150    1.280145   -3.493650
    122          1           0       13.255217    1.896123   -2.619887
    123          1           0       12.808389    0.694773   -1.341845
    124          1           0       11.516037    2.962888   -0.574188
    125          1           0       14.260681    3.953324   -0.891322
    126          1           0       12.720673    4.818527   -0.917196
    127          1           0       13.481205    4.041126   -2.414928
    128          1           0       13.451112    3.059046    1.109955
    129          1           0       14.136738    1.569981    0.416231
    130          1           0       11.426584    0.904358    0.845260
    131          1           0       11.748790    2.115485    2.140509
    132          1           0       13.782548    0.024409    1.847971
    133          1           0       12.173082   -0.593486    2.048251
    134          1           0       12.855854    1.631860    3.870063
    135          1           0       14.565570   -0.502092    3.759555
    136          1           0       13.674704   -0.980353    5.083547
    137          1           0       14.438740    0.601509    5.232926
    138          1           0       10.864600   -0.681461    3.913463
    139          1           0       10.719177    1.075924    4.159748
    140          1           0       11.469910   -0.052447    5.415440
 ---------------------------------------------------------------------

 SCF Done:  E(RwB97XD) =  -3007.87498542     A.U. after   19 cycles

 Excitation energies and oscillator strengths:

 Excited State   1:      Singlet-A      1.6550 eV  749.17 nm  f=0.3927  <S**2>=0.000
     245 -> 248       -0.17701
     246 -> 247        0.68448
     245 <- 248       -0.11493
 This state for optimization and/or second-order correction.
 Total Energy, E(TD-HF/TD-DFT) =  -3007.81416689
 Copying the excited state density for this state as the 1-particle RhoCI density.

 Excited State   2:      Singlet-A      2.1931 eV  565.33 nm  f=0.1367  <S**2>=0.000
     245 -> 247        0.64830
     246 -> 248        0.26655

 Excited State   3:      Singlet-A      3.4220 eV  362.31 nm  f=0.0099  <S**2>=0.000
     242 -> 250        0.12920
     244 -> 247        0.60073
     244 -> 249        0.18015
     244 -> 250        0.13126
     246 -> 248       -0.14846

 Excited State   4:      Singlet-A      3.5460 eV  349.65 nm  f=0.0150  <S**2>=0.000
     241 -> 247       -0.18067
     242 -> 247        0.57391
     242 -> 249        0.14929
     244 -> 247       -0.13879
     244 -> 250        0.13532
     246 -> 248        0.10859

 Excited State   5:      Singlet-A      3.6290 eV  341.65 nm  f=0.0637  <S**2>=0.000
     239 -> 247        0.14182
     239 -> 249       -0.12653
     240 -> 247        0.46744
     240 -> 249       -0.32373
     240 -> 250        0.18652
     241 -> 247       -0.16164
     246 -> 248       -0.18219

 The electronic state is 1-A.
 Alpha  occ. eigenvalues --  -46.93751 -19.31242 -19.29840 -19.25963 -19.23915
 Alpha  occ. eigenvalues --  -19.23728 -19.23466 -14.46577 -14.46043 -14.43873
 Alpha  occ. eigenvalues --  -14.43853 -10.44361 -10.42984 -10.39005 -10.38784
 Alpha  occ. eigenvalues --  -10.36658 -10.35461 -10.34899 -10.34319 -10.34301
 Alpha  occ. eigenvalues --  -10.34056 -10.34048 -10.33885 -10.33827 -10.32472
 Alpha  occ. eigenvalues --  -10.32333 -10.32273 -10.32253 -10.32118 -10.32033
 Alpha  occ. eigenvalues --  -10.32016 -10.31971 -10.31908 -10.31636 -10.31586
 Alpha  occ. eigenvalues --  -10.31508 -10.31129 -10.30815 -10.30725 -10.30589
 Alpha  occ. eigenvalues --  -10.30520 -10.30487 -10.30038 -10.30029 -10.30020
 Alpha  occ. eigenvalues --  -10.29864 -10.29801 -10.29351 -10.29318 -10.29297
 Alpha  occ. eigenvalues --  -10.29294 -10.29232 -10.29066 -10.29055 -10.28989
 Alpha  occ. eigenvalues --  -10.28847 -10.28805 -10.28724 -10.28701 -10.28619
 Alpha  occ. eigenvalues --  -10.28595 -10.28526 -10.28390 -10.28288 -10.28106
 Alpha  occ. eigenvalues --  -10.27743  -3.20010  -1.93606  -1.93143  -1.93006
 Alpha  occ. eigenvalues --   -1.21436  -1.18461  -1.12107  -1.11566  -1.10304
 Alpha  occ. eigenvalues --   -1.08586  -1.07402  -1.06358  -1.05852  -1.04731
 Alpha  occ. eigenvalues --   -0.95445  -0.93403  -0.92310  -0.91802  -0.91508
 Alpha  occ. eigenvalues --   -0.91121  -0.90630  -0.89621  -0.89475  -0.89193
 Alpha  occ. eigenvalues --   -0.88356  -0.87858  -0.86492  -0.85816  -0.85672
 Alpha  occ. eigenvalues --   -0.84719  -0.83954  -0.83391  -0.83123  -0.82319
 Alpha  occ. eigenvalues --   -0.81798  -0.80321  -0.79999  -0.79369  -0.78739
 Alpha  occ. eigenvalues --   -0.78430  -0.77505  -0.77440  -0.77133  -0.76251
 Alpha  occ. eigenvalues --   -0.75699  -0.74969  -0.73621  -0.72638  -0.71218
 Alpha  occ. eigenvalues --   -0.70742  -0.70479  -0.69342  -0.68307  -0.67810
 Alpha  occ. eigenvalues --   -0.67241  -0.67141  -0.66737  -0.66524  -0.66231
 Alpha  occ. eigenvalues --   -0.66100  -0.65246  -0.64754  -0.64611  -0.62611
 Alpha  occ. eigenvalues --   -0.62178  -0.62015  -0.61251  -0.60666  -0.60363
 Alpha  occ. eigenvalues --   -0.59888  -0.59309  -0.58316  -0.58172  -0.58036
 Alpha  occ. eigenvalues --   -0.57775  -0.57342  -0.57072  -0.56577  -0.56133
 Alpha  occ. eigenvalues --   -0.56082  -0.55787  -0.55319  -0.54886  -0.54787
 Alpha  occ. eigenvalues --   -0.54720  -0.54380  -0.54266  -0.54047  -0.53919
 Alpha  occ. eigenvalues --   -0.53747  -0.53343  -0.53245  -0.53011  -0.52771
 Alpha  occ. eigenvalues --   -0.52719  -0.52553  -0.52225  -0.51953  -0.51777
 Alpha  occ. eigenvalues --   -0.51546  -0.51186  -0.51021  -0.50862  -0.50778
 Alpha  occ. eigenvalues --   -0.50490  -0.50372  -0.50347  -0.50057  -0.49836
 Alpha  occ. eigenvalues --   -0.49578  -0.49345  -0.49305  -0.49117  -0.48849
 Alpha  occ. eigenvalues --   -0.48724  -0.48326  -0.48147  -0.48080  -0.47878
 Alpha  occ. eigenvalues --   -0.47672  -0.47493  -0.47262  -0.47065  -0.46837
 Alpha  occ. eigenvalues --   -0.46517  -0.46421  -0.46360  -0.46157  -0.45750
 Alpha  occ. eigenvalues --   -0.45548  -0.45205  -0.44858  -0.44830  -0.44620
 Alpha  occ. eigenvalues --   -0.44578  -0.44472  -0.44362  -0.44237  -0.44133
 Alpha  occ. eigenvalues --   -0.43990  -0.43545  -0.43344  -0.43275  -0.43083
 Alpha  occ. eigenvalues --   -0.42860  -0.42829  -0.42568  -0.42440  -0.42355
 Alpha  occ. eigenvalues --   -0.41637  -0.41352  -0.41266  -0.40998  -0.40925
 Alpha  occ. eigenvalues --   -0.40822  -0.40517  -0.40256  -0.39834  -0.39484
 Alpha  occ. eigenvalues --   -0.39388  -0.39362  -0.39209  -0.38959  -0.38766
 Alpha  occ. eigenvalues --   -0.37855  -0.37737  -0.37253  -0.36777  -0.36618
 Alpha  occ. eigenvalues --   -0.35743  -0.35563  -0.34840  -0.33660  -0.32957
 Alpha  occ. eigenvalues --   -0.32455  -0.32317  -0.32211  -0.31749  -0.25760
 Alpha  occ. eigenvalues --   -0.22871
 Alpha virt. eigenvalues --   -0.06893   0.00897   0.02694   0.04295   0.06115
 Alpha virt. eigenvalues --    0.06629   0.07494   0.08003   0.08690   0.09618
 Alpha virt. eigenvalues --    0.10486   0.11114   0.11334   0.12260   0.12532

 Mulliken charges:
               1
     1  Mg   0.993807
     2  C   -0.017487
     3  C   -0.070319
     4  C   -0.092189
     5  C   -0.084805
     6  N   -0.308251
     7  C    0.011552
     8  C   -0.119663
     9  C   -0.065590
    10  C   -0.065687
    11  C    0.035375
    12  C    0.004158
    13  C    0.055880
    14  C    0.179297
    15  O   -0.254377
    16  O   -0.336499
    17  N   -0.464870
    18  C    0.222384
    19  C   -0.171727
    20  C   -0.107903
    21  C    0.179556
    22  C    0.084692
    23  C    0.067498
    24  O   -0.255551
    25  C   -0.027248
    26  N   -0.407286
    27  C    0.072262
    28  C   -0.109238
    29  C    0.026192
    30  C    0.018003
    31  C    0.004754
    32  C   -0.016004
    33  C   -0.060633
    34  N   -0.409979
    35  C    0.122199
    36  C   -0.208861
    37  C   -0.050396
    38  C    0.117235
    39  C    0.073041
    40  C    0.131484
    41  O   -0.205895
    42  C   -0.020508
    43  C    0.236074
    44  O   -0.252633
    45  O   -0.357758
    46  C    0.143537
    47  C    0.267404
    48  C   -0.142936
    49  C   -0.241816
    50  C    0.043901
    51  C    0.066633
    52  C   -0.013034
    53  C   -0.031121
    54  C   -0.188931
    55  C    0.016150
    56  C    0.023469
    57  C   -0.010877
    58  C    0.016781
    59  C   -0.215778
    60  C    0.016232
    61  C    0.020720
    62  C   -0.068193
    63  C    0.002202
    64  C   -0.234896
    65  C    0.004557
    66  C    0.007788
    67  H   -0.011884
    68  H    0.020866
    69  H   -0.006127
    70  H    0.055841
    71  H    0.038294
    72  H    0.022187
    73  H    0.052387
    74  H    0.063995
    75  H    0.028086
    76  H    0.041525
    77  H    0.058751
    78  H    0.044959
    79  H    0.057772
    80  H    0.033958
    81  H    0.045685
    82  H    0.055305
    83  H    0.039430
    84  H    0.058667
    85  H    0.039959
    86  H    0.036881
    87  H    0.035784
    88  H    0.056580
    89  H    0.024325
    90  H    0.030017
    91  H    0.032953
    92  H    0.044593
    93  H    0.048101
    94  H    0.041214
    95  H    0.054727
    96  H    0.054036
    97  H    0.032206
    98  H    0.071871
    99  H    0.066339
   100  H    0.055021
   101  H    0.055137
   102  H    0.049837
   103  H    0.035381
   104  H    0.011825
   105  H    0.029621
   106  H    0.036240
   107  H    0.051250
   108  H    0.019693
   109  H    0.032325
   110  H    0.021305
   111  H    0.031549
   112  H    0.026346
   113  H    0.008895
   114  H    0.021660
   115  H    0.023144
   116  H    0.027859
   117  H    0.019187
   118  H    0.011603
   119  H    0.012507
   120  H    0.027337
   121  H    0.022087
   122  H    0.008191
   123  H    0.011071
   124  H    0.016736
   125  H    0.020679
   126  H    0.034708
   127  H    0.034748
   128  H    0.010514
   129  H    0.028865
   130  H    0.020930
   131  H    0.024957
   132  H    0.013438
   133  H    0.006901
   134  H    0.024098
   135  H    0.015307
   136  H    0.014589
   137  H    0.044014
   138  H    0.027008
   139  H    0.034909
   140  H    0.033367
 Sum of Mulliken charges =  -0.00000

 Dipole moment (field-independent basis, Debye):
    X=              5.1624    Y=              2.0470    Z=             -4.3814  Tot=              7.0737
 Quadrupole moment (field-independent basis, Debye-Ang):
   XX=           -375.2339   YY=           -434.5152   ZZ=           -404.6809
   XY=            -21.3291   XZ=             12.2988   YZ=             11.0010

 Normal termination of Gaussian 16 at Wed May  4 04:47:11 2022.
