 Gaussian 16, Revision A.03,
 Gaussian 16:  ES64L-G16RevA.03 25-Dec-2016

 --------------------
 #p ZINDO=(nstates=5)
 --------------------

 -----------------------------
 step_1351_chromophore_3 ZINDO
 -----------------------------
 Symbolic Z-matrix:
 Charge =  0 Multiplicity = 1

                         Standard orientation:
 ---------------------------------------------------------------------
 Center     Atomic      Atomic             Coordinates (Angstroms)
 Number     Number       Type             X           Y           Z
 ---------------------------------------------------------------------
      1         12           0       -5.419227    0.885990   -0.022568
      2          6           0       -4.561424   -2.455844    0.047823
      3          6           0       -2.064226    1.583860    0.116487
      4          6           0       -6.258248    4.053516    0.091079
      5          6           0       -8.756238    0.023735    0.327442
      6          7           0       -3.481910   -0.309419   -0.054198
      7          6           0       -3.403881   -1.655066    0.004581
      8          6           0       -1.959741   -2.105776   -0.069572
      9          6           0       -1.101451   -0.856393    0.224206
     10          6           0       -2.244585    0.208748    0.081725
     11          6           0       -0.302875   -0.836075    1.553333
     12          6           0       -1.707983   -2.699267   -1.501879
     13          6           0       -0.641719   -3.820665   -1.626324
     14          6           0        0.619183   -3.596934   -0.744441
     15          8           0        0.780444   -3.915834    0.406783
     16          8           0        1.526357   -2.860368   -1.410362
     17          7           0       -4.344497    2.602770    0.098399
     18          6           0       -2.994038    2.677726    0.018124
     19          6           0       -2.577760    3.996858    0.209470
     20          6           0       -3.760326    4.801870    0.138425
     21          6           0       -4.924268    3.812407    0.169266
     22          6           0       -1.157197    4.486153    0.264214
     23          6           0       -4.050543    6.298446    0.179932
     24          8           0       -5.132798    6.886990    0.384950
     25          6           0       -2.808192    7.162976   -0.121976
     26          7           0       -7.227320    1.850505    0.183527
     27          6           0       -7.327313    3.207312    0.267951
     28          6           0       -8.771976    3.708030    0.363663
     29          6           0       -9.610372    2.424277    0.221150
     30          6           0       -8.533687    1.356018    0.151437
     31          6           0       -8.984642    4.556784    1.635303
     32          6           0      -10.416767    2.394850   -1.124283
     33          6           0       -9.647350    2.251669   -2.424153
     34          7           0       -6.417268   -0.849963    0.205539
     35          6           0       -7.753046   -1.040294    0.407312
     36          6           0       -8.028202   -2.495577    0.524856
     37          6           0       -6.776118   -3.086150    0.394018
     38          6           0       -5.877120   -2.031658    0.144685
     39          6           0       -9.372902   -3.092910    0.462995
     40          6           0       -6.031514   -4.373741    0.354444
     41          8           0       -6.462253   -5.518321    0.494512
     42          6           0       -4.638462   -3.981292    0.087424
     43          6           0       -3.736401   -4.666213    1.077654
     44          8           0       -3.650570   -4.443731    2.281270
     45          8           0       -3.031358   -5.661050    0.523280
     46          6           0       -1.934154   -6.393795    1.164611
     47          6           0        2.757541   -2.565692   -0.767645
     48          6           0        3.941359   -2.439103   -1.718721
     49          6           0        5.253513   -2.712987   -1.697555
     50          6           0        5.796041   -3.360739   -0.451984
     51          6           0        6.209991   -2.289086   -2.793586
     52          6           0        6.802042   -0.808225   -2.610677
     53          6           0        8.305108   -0.944209   -2.381176
     54          6           0        8.912342    0.383179   -1.983054
     55          6           0        8.484057    0.745446   -0.590640
     56          6           0       10.456244    0.147010   -2.038827
     57          6           0       11.150795    1.431688   -2.469393
     58          6           0       12.538740    1.623575   -1.844609
     59          6           0       12.557977    2.728150   -0.789853
     60          6           0       13.271221    3.981760   -1.347070
     61          6           0       13.236032    2.176728    0.508571
     62          6           0       12.189625    1.429232    1.418034
     63          6           0       12.799997    0.274076    2.249189
     64          6           0       12.727105    0.552479    3.780514
     65          6           0       13.936377   -0.073557    4.539759
     66          6           0       11.328486    0.196375    4.363702
     67          1           0       -1.021659    1.655318    0.432215
     68          1           0       -6.591075    5.090758    0.006820
     69          1           0       -9.806773   -0.271156    0.362108
     70          1           0       -1.616979   -2.819144    0.680581
     71          1           0       -0.500150   -0.555038   -0.633118
     72          1           0        0.675082   -0.402831    1.343531
     73          1           0        0.042173   -1.850121    1.757740
     74          1           0       -0.762593   -0.370986    2.426380
     75          1           0       -1.339402   -1.891710   -2.135752
     76          1           0       -2.655589   -2.956270   -1.975974
     77          1           0       -0.368096   -4.053370   -2.655063
     78          1           0       -1.191518   -4.674223   -1.232731
     79          1           0       -0.930567    4.888287   -0.723580
     80          1           0       -0.447258    3.686638    0.476946
     81          1           0       -1.017661    5.256307    1.022678
     82          1           0       -2.120948    7.044602    0.716222
     83          1           0       -3.068172    8.220501   -0.156335
     84          1           0       -2.515000    6.927699   -1.145292
     85          1           0       -8.913347    4.478395   -0.394882
     86          1           0      -10.103817    2.269814    1.181234
     87          1           0       -9.693348    5.361477    1.438466
     88          1           0       -8.108213    5.050947    2.054464
     89          1           0       -9.394844    3.958406    2.448925
     90          1           0      -10.953000    3.334074   -1.259733
     91          1           0      -11.179954    1.617183   -1.108146
     92          1           0      -10.249732    1.568785   -3.023595
     93          1           0       -8.659410    1.837466   -2.222858
     94          1           0       -9.453481    3.190406   -2.943581
     95          1           0       -9.811413   -3.292957    1.441091
     96          1           0       -9.358358   -4.034138   -0.086617
     97          1           0       -9.993154   -2.386974   -0.090337
     98          1           0       -4.419653   -4.382706   -0.901737
     99          1           0       -1.411362   -5.795052    1.910118
    100          1           0       -1.192174   -6.786345    0.468935
    101          1           0       -2.305985   -7.274693    1.688186
    102          1           0        2.952860   -3.230802    0.073532
    103          1           0        2.530158   -1.569739   -0.384555
    104          1           0        3.580071   -2.115754   -2.694767
    105          1           0        5.051003   -3.487508    0.333069
    106          1           0        6.557374   -2.640681   -0.152212
    107          1           0        6.164288   -4.339061   -0.759705
    108          1           0        5.578260   -2.137996   -3.668891
    109          1           0        6.949978   -3.053343   -3.030324
    110          1           0        6.378164   -0.427718   -1.680459
    111          1           0        6.634595   -0.146461   -3.460161
    112          1           0        8.794114   -1.355821   -3.264289
    113          1           0        8.326665   -1.599568   -1.510573
    114          1           0        8.723364    1.212991   -2.664037
    115          1           0        7.863182   -0.004517   -0.099962
    116          1           0        7.888001    1.657507   -0.602383
    117          1           0        9.315973    0.955322    0.081286
    118          1           0       10.717489   -0.619177   -2.768519
    119          1           0       10.675615   -0.296737   -1.067666
    120          1           0       10.649273    2.387344   -2.317900
    121          1           0       11.492150    1.280145   -3.493650
    122          1           0       13.255217    1.896123   -2.619887
    123          1           0       12.808389    0.694773   -1.341845
    124          1           0       11.516037    2.962888   -0.574188
    125          1           0       14.260681    3.953324   -0.891322
    126          1           0       12.720673    4.818527   -0.917196
    127          1           0       13.481205    4.041126   -2.414928
    128          1           0       13.451112    3.059046    1.109955
    129          1           0       14.136738    1.569981    0.416231
    130          1           0       11.426584    0.904358    0.845260
    131          1           0       11.748790    2.115485    2.140509
    132          1           0       13.782548    0.024409    1.847971
    133          1           0       12.173082   -0.593486    2.048251
    134          1           0       12.855854    1.631860    3.870063
    135          1           0       14.565570   -0.502092    3.759555
    136          1           0       13.674704   -0.980353    5.083547
    137          1           0       14.438740    0.601509    5.232926
    138          1           0       10.864600   -0.681461    3.913463
    139          1           0       10.719177    1.075924    4.159748
    140          1           0       11.469910   -0.052447    5.415440
 ---------------------------------------------------------------------

 SCF Done:  E(RZINDO/S) =  -474.774560971     A.U. after   20 cycles

 Excitation energies and oscillator strengths:

 Excited State   1:      Singlet-A      1.2350 eV 1003.94 nm  f=0.6248  <S**2>=0.000
     175 ->178        -0.18891
     176 ->177         0.66405
 This state for optimization and/or second-order correction.
 Total Energy, E(CIS/TDA) =  -474.729176387
 Copying the excited state density for this state as the 1-particle RhoCI density.

 Excited State   2:      Singlet-A      1.9166 eV  646.88 nm  f=0.0886  <S**2>=0.000
     175 ->177         0.57613
     176 ->178         0.38327

 Excited State   3:      Singlet-A      2.9875 eV  415.00 nm  f=0.0339  <S**2>=0.000
     168 ->179         0.15396
     168 ->180         0.10134
     169 ->177         0.24122
     169 ->179        -0.21259
     169 ->180        -0.25533
     169 ->186        -0.13470
     169 ->187        -0.10790
     170 ->177         0.18447
     170 ->179        -0.17929
     170 ->180        -0.19027
     170 ->186        -0.11045
     172 ->177        -0.13152
     176 ->178        -0.12132

 Excited State   4:      Singlet-A      3.0060 eV  412.46 nm  f=0.0280  <S**2>=0.000
     168 ->177         0.29866
     168 ->178         0.11799
     168 ->179         0.34041
     168 ->180        -0.26866
     168 ->186         0.16033
     168 ->187        -0.10228
     169 ->177         0.12110
     169 ->179         0.20121

 Excited State   5:      Singlet-A      3.0647 eV  404.56 nm  f=0.4759  <S**2>=0.000
     175 ->177        -0.22563
     176 ->178         0.37367
     176 ->179         0.49198

 The electronic state is 1-A.
 Alpha  occ. eigenvalues --   -1.87118  -1.83201  -1.82131  -1.76992  -1.72815
 Alpha  occ. eigenvalues --   -1.72302  -1.68702  -1.62527  -1.59704  -1.56168
 Alpha  occ. eigenvalues --   -1.55597  -1.52663  -1.49439  -1.47783  -1.47107
 Alpha  occ. eigenvalues --   -1.43977  -1.43237  -1.41019  -1.39618  -1.39178
 Alpha  occ. eigenvalues --   -1.37149  -1.34938  -1.33350  -1.32283  -1.30210
 Alpha  occ. eigenvalues --   -1.28111  -1.24889  -1.21942  -1.20127  -1.18501
 Alpha  occ. eigenvalues --   -1.18197  -1.16309  -1.15840  -1.14875  -1.13971
 Alpha  occ. eigenvalues --   -1.12776  -1.11301  -1.10441  -1.05556  -1.05203
 Alpha  occ. eigenvalues --   -1.02690  -1.01811  -0.99101  -0.98168  -0.97044
 Alpha  occ. eigenvalues --   -0.95946  -0.94634  -0.93011  -0.92924  -0.92622
 Alpha  occ. eigenvalues --   -0.90968  -0.90304  -0.89982  -0.88134  -0.87465
 Alpha  occ. eigenvalues --   -0.85369  -0.84778  -0.83941  -0.82110  -0.81023
 Alpha  occ. eigenvalues --   -0.80729  -0.80036  -0.77908  -0.77448  -0.76484
 Alpha  occ. eigenvalues --   -0.75802  -0.75397  -0.74981  -0.74475  -0.73947
 Alpha  occ. eigenvalues --   -0.73258  -0.72472  -0.71804  -0.71349  -0.70806
 Alpha  occ. eigenvalues --   -0.70137  -0.69485  -0.68786  -0.68403  -0.67876
 Alpha  occ. eigenvalues --   -0.67843  -0.66855  -0.66315  -0.66112  -0.65551
 Alpha  occ. eigenvalues --   -0.65125  -0.64771  -0.64443  -0.64085  -0.63646
 Alpha  occ. eigenvalues --   -0.63323  -0.62636  -0.62615  -0.62211  -0.61834
 Alpha  occ. eigenvalues --   -0.61484  -0.61317  -0.60955  -0.60589  -0.60391
 Alpha  occ. eigenvalues --   -0.60048  -0.59706  -0.59332  -0.58893  -0.58524
 Alpha  occ. eigenvalues --   -0.57960  -0.57727  -0.57159  -0.56926  -0.56759
 Alpha  occ. eigenvalues --   -0.56213  -0.55906  -0.55025  -0.54879  -0.54732
 Alpha  occ. eigenvalues --   -0.54547  -0.53942  -0.53418  -0.52753  -0.52589
 Alpha  occ. eigenvalues --   -0.52369  -0.51783  -0.51250  -0.51093  -0.50842
 Alpha  occ. eigenvalues --   -0.50744  -0.50467  -0.50122  -0.49857  -0.49842
 Alpha  occ. eigenvalues --   -0.49632  -0.49376  -0.49086  -0.48789  -0.48721
 Alpha  occ. eigenvalues --   -0.48366  -0.47993  -0.47834  -0.47685  -0.47345
 Alpha  occ. eigenvalues --   -0.47198  -0.46895  -0.46678  -0.46663  -0.46515
 Alpha  occ. eigenvalues --   -0.46149  -0.46128  -0.45883  -0.45755  -0.45353
 Alpha  occ. eigenvalues --   -0.45134  -0.44798  -0.44541  -0.44435  -0.44125
 Alpha  occ. eigenvalues --   -0.43732  -0.43382  -0.43196  -0.42075  -0.41972
 Alpha  occ. eigenvalues --   -0.41270  -0.40686  -0.40584  -0.39174  -0.38917
 Alpha  occ. eigenvalues --   -0.37879  -0.37188  -0.35308  -0.34909  -0.34273
 Alpha  occ. eigenvalues --   -0.33153  -0.32588  -0.32365  -0.32359  -0.26420
 Alpha  occ. eigenvalues --   -0.21737
 Alpha virt. eigenvalues --   -0.08570  -0.01480  -0.00277   0.01370   0.01808
 Alpha virt. eigenvalues --    0.02980   0.03221   0.03372   0.04741   0.05043
 Alpha virt. eigenvalues --    0.06430   0.07114   0.07535   0.07728   0.08144

 Mulliken charges:
               1
     1  Mg   0.422444
     2  C   -0.051760
     3  C   -0.087821
     4  C   -0.059434
     5  C   -0.078086
     6  N   -0.277894
     7  C    0.130406
     8  C    0.014134
     9  C    0.002990
    10  C    0.112862
    11  C   -0.050315
    12  C   -0.020552
    13  C    0.003110
    14  C    0.472460
    15  O   -0.518616
    16  O   -0.265764
    17  N   -0.307107
    18  C    0.109604
    19  C    0.024077
    20  C   -0.076908
    21  C    0.140028
    22  C   -0.042120
    23  C    0.321368
    24  O   -0.532424
    25  C   -0.040252
    26  N   -0.293686
    27  C    0.149572
    28  C    0.005392
    29  C    0.011245
    30  C    0.120894
    31  C   -0.051507
    32  C   -0.021128
    33  C   -0.053063
    34  N   -0.291068
    35  C    0.084967
    36  C    0.028027
    37  C   -0.059427
    38  C    0.119985
    39  C   -0.033629
    40  C    0.346719
    41  O   -0.519603
    42  C    0.068001
    43  C    0.496384
    44  O   -0.531399
    45  O   -0.276638
    46  C    0.081114
    47  C    0.112882
    48  C   -0.100181
    49  C    0.002843
    50  C   -0.048920
    51  C   -0.025016
    52  C   -0.039558
    53  C   -0.032966
    54  C   -0.014565
    55  C   -0.052414
    56  C   -0.037546
    57  C   -0.043082
    58  C   -0.043765
    59  C   -0.014283
    60  C   -0.063205
    61  C   -0.038270
    62  C   -0.050600
    63  C   -0.041910
    64  C   -0.012885
    65  C   -0.064953
    66  C   -0.055477
    67  H    0.026184
    68  H    0.037385
    69  H    0.022754
    70  H    0.047441
    71  H    0.033071
    72  H    0.012789
    73  H    0.031002
    74  H    0.039377
    75  H    0.015180
    76  H    0.026249
    77  H    0.040554
    78  H    0.034200
    79  H    0.030782
    80  H    0.023010
    81  H    0.030097
    82  H    0.044786
    83  H    0.026684
    84  H    0.040049
    85  H    0.034739
    86  H    0.043839
    87  H    0.015272
    88  H    0.030760
    89  H    0.014850
    90  H    0.012842
    91  H    0.017791
    92  H    0.021357
    93  H    0.025644
    94  H    0.022742
    95  H    0.037627
    96  H    0.030866
    97  H    0.022144
    98  H    0.051880
    99  H    0.049436
   100  H    0.035962
   101  H    0.039904
   102  H    0.056438
   103  H    0.037707
   104  H    0.008108
   105  H    0.027571
   106  H    0.029183
   107  H    0.032876
   108  H    0.012777
   109  H    0.032837
   110  H    0.026132
   111  H    0.028254
   112  H    0.021766
   113  H    0.022520
   114  H    0.025491
   115  H    0.018904
   116  H    0.009022
   117  H    0.017868
   118  H    0.014390
   119  H    0.024947
   120  H    0.032884
   121  H    0.015703
   122  H    0.017721
   123  H    0.016335
   124  H    0.022671
   125  H    0.012578
   126  H    0.018658
   127  H    0.029205
   128  H    0.007895
   129  H    0.035660
   130  H    0.019990
   131  H    0.024074
   132  H    0.021888
   133  H    0.009260
   134  H    0.015872
   135  H    0.017456
   136  H    0.013226
   137  H    0.027325
   138  H    0.021275
   139  H    0.022103
   140  H    0.020470
 Sum of Mulliken charges =  -0.00000

 Dipole moment (field-independent basis, Debye):
    X=              6.0084    Y=              2.6251    Z=             -6.2149  Tot=              9.0343
 N-N= 4.325682148667D+03 E-N= 0.000000000000D+00  KE=-9.326061093713D+03
 Leave Link  601 at Wed May  4 04:59:11 2022, MaxMem=  6710886400 cpu:               1.0 elap:               0.1
 (Enter /sw/apps/gaussian-16.0/g16/l9999.exe)
 1\1\GINC-BP1-COMPUTE092\SP\RZINDO CIS\STO-3G\C55H74Mg1N4O6\OF15641\04-
 May-2022\0\\#p ZINDO=(nstates=5)\\step_1351_chromophore_3 ZINDO\\0,1\M
 g,0,2.282,8.393,26.709\C,0,2.386,10.607,29.354\C,0,2.707,5.881,29.005\
 C,0,2.361,6.32,24.17\C,0,2.344,11.056,24.494\N,0,2.398,8.232,28.977\C,
 0,2.448,9.281,29.824\C,0,2.489,8.801,31.26\C,0,2.867,7.305,31.205\C,0,
 2.642,7.099,29.666\C,0,4.258,6.9,31.758\C,0,1.076,9.053,31.898\C,0,1.0
 28,9.334,33.424\C,0,2.014,8.469,34.259\O,0,3.171,8.7,34.506\O,0,1.434,

 Normal termination of Gaussian 16 at Wed May  4 04:59:11 2022.
