 Gaussian 16, Revision A.03,
 Gaussian 16:  ES64L-G16RevA.03 25-Dec-2016

 ------------------------------
 #p blyp/Def2SVP td=(nstates=5)
 ------------------------------

 ---------------------------------------------------
 step_1301_chromophore_27 TDDFT with blyp functional
 ---------------------------------------------------
 Symbolic Z-matrix:
 Charge =  0 Multiplicity = 1

                         Standard orientation:
 ---------------------------------------------------------------------
 Center     Atomic      Atomic             Coordinates (Angstroms)
 Number     Number       Type             X           Y           Z
 ---------------------------------------------------------------------
      1         12           0       -4.285104    0.851706   -0.294808
      2          6           0       -3.570656   -2.450066    0.704997
      3          6           0       -0.853222    1.562347    0.198538
      4          6           0       -4.927586    4.160717   -0.419165
      5          6           0       -7.615071   -0.009994   -0.200774
      6          7           0       -2.461482   -0.319342    0.491300
      7          6           0       -2.443042   -1.672590    0.652198
      8          6           0       -1.035880   -2.280261    0.611377
      9          6           0       -0.094338   -0.971370    0.600809
     10          6           0       -1.160420    0.190154    0.416379
     11          6           0        0.640200   -0.793602    2.040097
     12          6           0       -0.801985   -3.131879   -0.730274
     13          6           0       -0.151663   -4.528770   -0.635967
     14          6           0        1.074548   -4.866092   -1.554158
     15          8           0        0.976530   -4.993191   -2.832948
     16          8           0        2.291100   -5.036919   -0.926045
     17          7           0       -3.057651    2.615486   -0.180329
     18          6           0       -1.676727    2.691434    0.112788
     19          6           0       -1.363004    4.135269    0.135169
     20          6           0       -2.488495    4.880895   -0.050298
     21          6           0       -3.567326    3.923151   -0.218607
     22          6           0        0.065892    4.580083    0.401786
     23          6           0       -2.728529    6.445816   -0.014300
     24          8           0       -3.827366    6.899865   -0.316614
     25          6           0       -1.570679    7.396223    0.214740
     26          7           0       -5.975136    1.898499   -0.430344
     27          6           0       -6.015404    3.219488   -0.502242
     28          6           0       -7.444436    3.765469   -0.504618
     29          6           0       -8.248697    2.433201   -0.832047
     30          6           0       -7.213791    1.318326   -0.546242
     31          6           0       -7.976076    4.405670    0.770694
     32          6           0       -8.677145    2.365783   -2.312055
     33          6           0      -10.161009    2.630435   -2.528278
     34          7           0       -5.495821   -0.814973    0.242332
     35          6           0       -6.770673   -0.974200    0.178853
     36          6           0       -7.090360   -2.325200    0.600382
     37          6           0       -5.873910   -2.992962    0.737470
     38          6           0       -4.897943   -1.993046    0.491721
     39          6           0       -8.443342   -2.977389    0.812130
     40          6           0       -5.229104   -4.222810    1.127625
     41          8           0       -5.691859   -5.334568    1.430421
     42          6           0       -3.675527   -3.946485    1.073601
     43          6           0       -3.035155   -4.217407    2.424071
     44          8           0       -3.407558   -3.662353    3.481404
     45          8           0       -2.013884   -5.160307    2.263639
     46          6           0       -1.508528   -5.791393    3.462168
     47          6           0        3.555382   -5.074215   -1.733982
     48          6           0        4.010332   -3.689990   -2.079742
     49          6           0        5.066719   -2.977944   -1.560778
     50          6           0        5.796295   -3.330030   -0.267973
     51          6           0        5.276483   -1.569022   -1.966732
     52          6           0        5.581180   -1.480370   -3.448790
     53          6           0        7.007509   -1.022358   -3.814236
     54          6           0        7.147930    0.384715   -4.363958
     55          6           0        7.176083    0.415075   -5.887193
     56          6           0        8.419402    1.017782   -3.669353
     57          6           0        8.172042    1.813702   -2.400822
     58          6           0        9.469680    1.963248   -1.603585
     59          6           0        9.180967    1.576843   -0.131992
     60          6           0        9.334001    0.068406    0.141205
     61          6           0       10.022433    2.461058    0.903962
     62          6           0        9.259626    2.698238    2.234656
     63          6           0       10.008157    2.108375    3.436137
     64          6           0        9.381704    2.456854    4.812592
     65          6           0       10.503020    2.543892    5.901042
     66          6           0        8.205261    1.542393    5.275923
     67          1           0        0.210360    1.809809    0.196374
     68          1           0       -5.290814    5.190067   -0.448450
     69          1           0       -8.699197   -0.109501   -0.284729
     70          1           0       -0.883374   -2.955344    1.453496
     71          1           0        0.764419   -0.984141   -0.069380
     72          1           0        0.264868    0.103188    2.532136
     73          1           0        1.725488   -0.711351    1.989553
     74          1           0        0.296057   -1.647906    2.623247
     75          1           0       -0.348971   -2.628426   -1.584300
     76          1           0       -1.788040   -3.427400   -1.089777
     77          1           0       -0.781376   -5.393736   -0.844859
     78          1           0        0.139191   -4.729780    0.395413
     79          1           0        0.493142    5.346395   -0.245752
     80          1           0        0.724761    3.718071    0.500356
     81          1           0        0.174553    4.930361    1.427899
     82          1           0       -0.801993    7.146373    0.945527
     83          1           0       -1.767506    8.401782    0.587926
     84          1           0       -1.270919    7.575587   -0.818466
     85          1           0       -7.684310    4.515557   -1.257708
     86          1           0       -9.112760    2.296674   -0.180185
     87          1           0       -8.771946    3.799476    1.204379
     88          1           0       -8.434492    5.357226    0.502617
     89          1           0       -7.161746    4.494638    1.489462
     90          1           0       -8.499360    1.343824   -2.646855
     91          1           0       -8.199962    3.013558   -3.047807
     92          1           0      -10.527496    2.733936   -1.507358
     93          1           0      -10.813930    1.921933   -3.039388
     94          1           0      -10.392673    3.602551   -2.962932
     95          1           0       -8.339399   -4.043134    0.610632
     96          1           0       -9.210434   -2.548793    0.168322
     97          1           0       -8.750574   -2.838124    1.849041
     98          1           0       -3.099343   -4.476209    0.314127
     99          1           0       -2.246282   -6.344582    4.044106
    100          1           0       -0.951045   -5.183271    4.175163
    101          1           0       -0.816236   -6.504185    3.014019
    102          1           0        3.423603   -5.702421   -2.614525
    103          1           0        4.303234   -5.575763   -1.120750
    104          1           0        3.548114   -3.242640   -2.959140
    105          1           0        6.770875   -3.644065   -0.643973
    106          1           0        5.396967   -4.170446    0.300249
    107          1           0        5.923888   -2.503069    0.430572
    108          1           0        6.115175   -1.133916   -1.424370
    109          1           0        4.469041   -0.906105   -1.656666
    110          1           0        4.847407   -0.810705   -3.897036
    111          1           0        5.486348   -2.464661   -3.908978
    112          1           0        7.497499   -1.662520   -4.546992
    113          1           0        7.572555   -1.180866   -2.895452
    114          1           0        6.242956    0.966128   -4.187580
    115          1           0        6.679494    1.317776   -6.240745
    116          1           0        6.588688   -0.418056   -6.273888
    117          1           0        8.210293    0.410849   -6.231510
    118          1           0        8.696276    1.710516   -4.464104
    119          1           0        9.282381    0.358467   -3.760209
    120          1           0        7.445751    1.175709   -1.896946
    121          1           0        7.733659    2.724397   -2.809774
    122          1           0        9.736399    3.020641   -1.601096
    123          1           0       10.264323    1.291648   -1.928477
    124          1           0        8.130264    1.695855    0.133166
    125          1           0       10.102211   -0.060230    0.902519
    126          1           0        9.425841   -0.403615   -0.837491
    127          1           0        8.445789   -0.178966    0.721539
    128          1           0       10.341681    3.385193    0.422547
    129          1           0       10.959260    1.918415    1.031766
    130          1           0        8.228139    2.346106    2.267314
    131          1           0        9.340473    3.765363    2.442829
    132          1           0       11.067203    2.367660    3.415517
    133          1           0       10.011630    1.020678    3.362626
    134          1           0        8.910044    3.438262    4.742774
    135          1           0       10.208202    2.018406    6.808599
    136          1           0       10.627317    3.599192    6.143249
    137          1           0       11.462464    2.118147    5.605222
    138          1           0        7.829064    1.044484    4.382821
    139          1           0        7.419576    2.088687    5.797594
    140          1           0        8.572674    0.728368    5.901387
 ---------------------------------------------------------------------

 SCF Done:  E(RB-LYP) =  -3007.34008156     A.U. after   21 cycles

 Excitation energies and oscillator strengths:

 Excited State   1:      Singlet-A      1.8355 eV  675.49 nm  f=0.2972  <S**2>=0.000
     245 -> 248        0.19531
     246 -> 247        0.68301
     246 <- 247       -0.13718
 This state for optimization and/or second-order correction.
 Total Energy, E(TD-HF/TD-DFT) =  -3007.27262918
 Copying the excited state density for this state as the 1-particle RhoCI density.

 Excited State   2:      Singlet-A      2.0301 eV  610.73 nm  f=0.0467  <S**2>=0.000
     245 -> 247        0.64009
     246 -> 248       -0.26052
     246 -> 249        0.10454

 Excited State   3:      Singlet-A      2.1424 eV  578.72 nm  f=0.0006  <S**2>=0.000
     244 -> 247        0.70598

 Excited State   4:      Singlet-A      2.3065 eV  537.55 nm  f=0.0002  <S**2>=0.000
     243 -> 247        0.70535

 Excited State   5:      Singlet-A      2.3901 eV  518.73 nm  f=0.0006  <S**2>=0.000
     242 -> 247        0.70649

 The electronic state is 1-A.
 Alpha  occ. eigenvalues --  -46.27578 -18.83395 -18.81686 -18.77517 -18.76623
 Alpha  occ. eigenvalues --  -18.75873 -18.75649 -14.03511 -14.03430 -14.01019
 Alpha  occ. eigenvalues --  -14.00753 -10.04775 -10.04139 -10.01493 -10.00077
 Alpha  occ. eigenvalues --   -9.98098  -9.98050  -9.97479  -9.96536  -9.96523
 Alpha  occ. eigenvalues --   -9.96241  -9.95927  -9.95565  -9.95209  -9.95000
 Alpha  occ. eigenvalues --   -9.94566  -9.94554  -9.94306  -9.94087  -9.93859
 Alpha  occ. eigenvalues --   -9.93842  -9.93729  -9.93431  -9.93371  -9.93328
 Alpha  occ. eigenvalues --   -9.93239  -9.93233  -9.93068  -9.92894  -9.92859
 Alpha  occ. eigenvalues --   -9.92719  -9.92689  -9.92437  -9.92215  -9.92199
 Alpha  occ. eigenvalues --   -9.92119  -9.92086  -9.92002  -9.91970  -9.91708
 Alpha  occ. eigenvalues --   -9.91684  -9.91670  -9.91621  -9.91572  -9.91474
 Alpha  occ. eigenvalues --   -9.91347  -9.91271  -9.91255  -9.91232  -9.91220
 Alpha  occ. eigenvalues --   -9.91193  -9.90984  -9.90891  -9.90885  -9.90853
 Alpha  occ. eigenvalues --   -9.90833  -2.92222  -1.72628  -1.72094  -1.71952
 Alpha  occ. eigenvalues --   -0.97324  -0.95351  -0.92291  -0.90481  -0.89600
 Alpha  occ. eigenvalues --   -0.88432  -0.86586  -0.86108  -0.84868  -0.83668
 Alpha  occ. eigenvalues --   -0.75769  -0.74527  -0.73393  -0.72339  -0.72310
 Alpha  occ. eigenvalues --   -0.71835  -0.71458  -0.71131  -0.70683  -0.70228
 Alpha  occ. eigenvalues --   -0.69672  -0.68735  -0.68257  -0.67987  -0.67258
 Alpha  occ. eigenvalues --   -0.66733  -0.66023  -0.65704  -0.65385  -0.64975
 Alpha  occ. eigenvalues --   -0.64693  -0.62632  -0.62080  -0.61913  -0.60875
 Alpha  occ. eigenvalues --   -0.60696  -0.60206  -0.60091  -0.59688  -0.59026
 Alpha  occ. eigenvalues --   -0.58295  -0.57475  -0.56738  -0.55474  -0.54694
 Alpha  occ. eigenvalues --   -0.54140  -0.53954  -0.52669  -0.52596  -0.51774
 Alpha  occ. eigenvalues --   -0.51384  -0.51377  -0.50852  -0.50750  -0.49884
 Alpha  occ. eigenvalues --   -0.49397  -0.49275  -0.49136  -0.48592  -0.46860
 Alpha  occ. eigenvalues --   -0.46243  -0.46007  -0.45805  -0.45460  -0.44794
 Alpha  occ. eigenvalues --   -0.44208  -0.43597  -0.43096  -0.42794  -0.42704
 Alpha  occ. eigenvalues --   -0.42451  -0.41923  -0.41785  -0.41688  -0.41054
 Alpha  occ. eigenvalues --   -0.40930  -0.40798  -0.40735  -0.40337  -0.40110
 Alpha  occ. eigenvalues --   -0.39877  -0.39801  -0.39566  -0.39377  -0.39198
 Alpha  occ. eigenvalues --   -0.39123  -0.38929  -0.38832  -0.38506  -0.38224
 Alpha  occ. eigenvalues --   -0.37994  -0.37932  -0.37768  -0.37504  -0.37365
 Alpha  occ. eigenvalues --   -0.37207  -0.37030  -0.36960  -0.36657  -0.36162
 Alpha  occ. eigenvalues --   -0.36080  -0.35932  -0.35863  -0.35786  -0.35690
 Alpha  occ. eigenvalues --   -0.35448  -0.35426  -0.35293  -0.34960  -0.34881
 Alpha  occ. eigenvalues --   -0.34665  -0.34552  -0.34430  -0.34354  -0.34317
 Alpha  occ. eigenvalues --   -0.34190  -0.33770  -0.33571  -0.33368  -0.32973
 Alpha  occ. eigenvalues --   -0.32859  -0.32684  -0.32415  -0.32288  -0.32066
 Alpha  occ. eigenvalues --   -0.32033  -0.31915  -0.31604  -0.31509  -0.31209
 Alpha  occ. eigenvalues --   -0.31118  -0.30952  -0.30893  -0.30652  -0.30501
 Alpha  occ. eigenvalues --   -0.30443  -0.30198  -0.30093  -0.29943  -0.29893
 Alpha  occ. eigenvalues --   -0.29823  -0.29530  -0.29483  -0.29240  -0.29079
 Alpha  occ. eigenvalues --   -0.28935  -0.28582  -0.28402  -0.28172  -0.27495
 Alpha  occ. eigenvalues --   -0.27311  -0.27152  -0.26792  -0.26658  -0.26529
 Alpha  occ. eigenvalues --   -0.26511  -0.26341  -0.26036  -0.25749  -0.25728
 Alpha  occ. eigenvalues --   -0.25438  -0.24244  -0.24161  -0.23885  -0.23563
 Alpha  occ. eigenvalues --   -0.23398  -0.22498  -0.21957  -0.20996  -0.20787
 Alpha  occ. eigenvalues --   -0.20661  -0.20028  -0.19636  -0.19012  -0.17289
 Alpha  occ. eigenvalues --   -0.15737
 Alpha virt. eigenvalues --   -0.11248  -0.07288  -0.06483  -0.05226  -0.04512
 Alpha virt. eigenvalues --   -0.04193  -0.03461  -0.03325  -0.01709   0.00014
 Alpha virt. eigenvalues --    0.01124   0.01385   0.02046   0.02552   0.02860

 Mulliken charges:
               1
     1  Mg   0.707969
     2  C   -0.031445
     3  C   -0.046690
     4  C   -0.038054
     5  C   -0.139443
     6  N   -0.197798
     7  C   -0.082687
     8  C    0.041430
     9  C   -0.024162
    10  C    0.048890
    11  C    0.095108
    12  C    0.122376
    13  C    0.116444
    14  C    0.078573
    15  O   -0.267108
    16  O   -0.274376
    17  N   -0.311288
    18  C    0.129828
    19  C   -0.116326
    20  C    0.044471
    21  C    0.102996
    22  C    0.157397
    23  C   -0.018467
    24  O   -0.160320
    25  C    0.112614
    26  N   -0.250974
    27  C    0.036405
    28  C   -0.007959
    29  C   -0.016969
    30  C    0.020684
    31  C    0.139220
    32  C    0.106715
    33  C    0.055818
    34  N   -0.181989
    35  C    0.208729
    36  C   -0.211724
    37  C    0.103442
    38  C    0.055692
    39  C    0.175647
    40  C   -0.010789
    41  O   -0.147211
    42  C    0.112456
    43  C    0.121140
    44  O   -0.190792
    45  O   -0.278775
    46  C    0.215452
    47  C    0.350473
    48  C   -0.108339
    49  C   -0.150513
    50  C    0.123687
    51  C    0.142330
    52  C    0.076615
    53  C    0.108355
    54  C   -0.101961
    55  C    0.124133
    56  C    0.057223
    57  C    0.112623
    58  C    0.172895
    59  C   -0.174025
    60  C    0.120615
    61  C    0.119757
    62  C    0.099209
    63  C    0.052726
    64  C   -0.085300
    65  C    0.103689
    66  C    0.102468
    67  H   -0.067543
    68  H   -0.042478
    69  H   -0.059110
    70  H   -0.005306
    71  H   -0.010337
    72  H   -0.004988
    73  H   -0.000867
    74  H   -0.009098
    75  H   -0.004813
    76  H   -0.015187
    77  H    0.012929
    78  H   -0.024279
    79  H    0.010202
    80  H   -0.037215
    81  H   -0.004207
    82  H    0.002309
    83  H   -0.011716
    84  H    0.023721
    85  H   -0.024695
    86  H   -0.019893
    87  H   -0.017622
    88  H   -0.006911
    89  H   -0.001628
    90  H   -0.029155
    91  H   -0.012114
    92  H   -0.038262
    93  H   -0.001803
    94  H   -0.018241
    95  H    0.010110
    96  H   -0.015050
    97  H    0.007494
    98  H   -0.014553
    99  H    0.021984
   100  H    0.013961
   101  H    0.010824
   102  H   -0.001024
   103  H   -0.018984
   104  H   -0.018539
   105  H   -0.000170
   106  H   -0.007512
   107  H    0.007139
   108  H   -0.042154
   109  H   -0.012193
   110  H   -0.032862
   111  H   -0.021993
   112  H   -0.043550
   113  H   -0.042495
   114  H   -0.051689
   115  H   -0.020187
   116  H   -0.018199
   117  H   -0.014877
   118  H   -0.068750
   119  H   -0.039321
   120  H   -0.022136
   121  H   -0.018435
   122  H   -0.035123
   123  H   -0.023102
   124  H   -0.034330
   125  H   -0.018966
   126  H    0.005143
   127  H   -0.024905
   128  H   -0.042615
   129  H   -0.037518
   130  H   -0.019922
   131  H   -0.031741
   132  H   -0.030251
   133  H   -0.042513
   134  H   -0.040224
   135  H   -0.025764
   136  H   -0.012997
   137  H   -0.012987
   138  H   -0.028015
   139  H   -0.004313
   140  H   -0.019203
 Sum of Mulliken charges =  -0.00000

 Dipole moment (field-independent basis, Debye):
    X=              4.6044    Y=              3.6682    Z=             -0.1906  Tot=              5.8900
 Quadrupole moment (field-independent basis, Debye-Ang):
   XX=           -383.2064   YY=           -424.9489   ZZ=           -417.7439
   XY=            -16.9578   XZ=             17.0124   YZ=             -6.1097

 Normal termination of Gaussian 16 at Wed May  4 04:14:55 2022.
