 Gaussian 16, Revision A.03,
 Gaussian 16:  ES64L-G16RevA.03 25-Dec-2016

 -----------------------------------
 #p cam-b3lyp/Def2SVP td=(nstates=5)
 -----------------------------------

 --------------------------------------------------------
 step_1301_chromophore_27 TDDFT with cam-b3lyp functional
 --------------------------------------------------------
 Symbolic Z-matrix:
 Charge =  0 Multiplicity = 1

                         Standard orientation:
 ---------------------------------------------------------------------
 Center     Atomic      Atomic             Coordinates (Angstroms)
 Number     Number       Type             X           Y           Z
 ---------------------------------------------------------------------
      1         12           0       -4.285104    0.851706   -0.294808
      2          6           0       -3.570656   -2.450066    0.704997
      3          6           0       -0.853222    1.562347    0.198538
      4          6           0       -4.927586    4.160717   -0.419165
      5          6           0       -7.615071   -0.009994   -0.200774
      6          7           0       -2.461482   -0.319342    0.491300
      7          6           0       -2.443042   -1.672590    0.652198
      8          6           0       -1.035880   -2.280261    0.611377
      9          6           0       -0.094338   -0.971370    0.600809
     10          6           0       -1.160420    0.190154    0.416379
     11          6           0        0.640200   -0.793602    2.040097
     12          6           0       -0.801985   -3.131879   -0.730274
     13          6           0       -0.151663   -4.528770   -0.635967
     14          6           0        1.074548   -4.866092   -1.554158
     15          8           0        0.976530   -4.993191   -2.832948
     16          8           0        2.291100   -5.036919   -0.926045
     17          7           0       -3.057651    2.615486   -0.180329
     18          6           0       -1.676727    2.691434    0.112788
     19          6           0       -1.363004    4.135269    0.135169
     20          6           0       -2.488495    4.880895   -0.050298
     21          6           0       -3.567326    3.923151   -0.218607
     22          6           0        0.065892    4.580083    0.401786
     23          6           0       -2.728529    6.445816   -0.014300
     24          8           0       -3.827366    6.899865   -0.316614
     25          6           0       -1.570679    7.396223    0.214740
     26          7           0       -5.975136    1.898499   -0.430344
     27          6           0       -6.015404    3.219488   -0.502242
     28          6           0       -7.444436    3.765469   -0.504618
     29          6           0       -8.248697    2.433201   -0.832047
     30          6           0       -7.213791    1.318326   -0.546242
     31          6           0       -7.976076    4.405670    0.770694
     32          6           0       -8.677145    2.365783   -2.312055
     33          6           0      -10.161009    2.630435   -2.528278
     34          7           0       -5.495821   -0.814973    0.242332
     35          6           0       -6.770673   -0.974200    0.178853
     36          6           0       -7.090360   -2.325200    0.600382
     37          6           0       -5.873910   -2.992962    0.737470
     38          6           0       -4.897943   -1.993046    0.491721
     39          6           0       -8.443342   -2.977389    0.812130
     40          6           0       -5.229104   -4.222810    1.127625
     41          8           0       -5.691859   -5.334568    1.430421
     42          6           0       -3.675527   -3.946485    1.073601
     43          6           0       -3.035155   -4.217407    2.424071
     44          8           0       -3.407558   -3.662353    3.481404
     45          8           0       -2.013884   -5.160307    2.263639
     46          6           0       -1.508528   -5.791393    3.462168
     47          6           0        3.555382   -5.074215   -1.733982
     48          6           0        4.010332   -3.689990   -2.079742
     49          6           0        5.066719   -2.977944   -1.560778
     50          6           0        5.796295   -3.330030   -0.267973
     51          6           0        5.276483   -1.569022   -1.966732
     52          6           0        5.581180   -1.480370   -3.448790
     53          6           0        7.007509   -1.022358   -3.814236
     54          6           0        7.147930    0.384715   -4.363958
     55          6           0        7.176083    0.415075   -5.887193
     56          6           0        8.419402    1.017782   -3.669353
     57          6           0        8.172042    1.813702   -2.400822
     58          6           0        9.469680    1.963248   -1.603585
     59          6           0        9.180967    1.576843   -0.131992
     60          6           0        9.334001    0.068406    0.141205
     61          6           0       10.022433    2.461058    0.903962
     62          6           0        9.259626    2.698238    2.234656
     63          6           0       10.008157    2.108375    3.436137
     64          6           0        9.381704    2.456854    4.812592
     65          6           0       10.503020    2.543892    5.901042
     66          6           0        8.205261    1.542393    5.275923
     67          1           0        0.210360    1.809809    0.196374
     68          1           0       -5.290814    5.190067   -0.448450
     69          1           0       -8.699197   -0.109501   -0.284729
     70          1           0       -0.883374   -2.955344    1.453496
     71          1           0        0.764419   -0.984141   -0.069380
     72          1           0        0.264868    0.103188    2.532136
     73          1           0        1.725488   -0.711351    1.989553
     74          1           0        0.296057   -1.647906    2.623247
     75          1           0       -0.348971   -2.628426   -1.584300
     76          1           0       -1.788040   -3.427400   -1.089777
     77          1           0       -0.781376   -5.393736   -0.844859
     78          1           0        0.139191   -4.729780    0.395413
     79          1           0        0.493142    5.346395   -0.245752
     80          1           0        0.724761    3.718071    0.500356
     81          1           0        0.174553    4.930361    1.427899
     82          1           0       -0.801993    7.146373    0.945527
     83          1           0       -1.767506    8.401782    0.587926
     84          1           0       -1.270919    7.575587   -0.818466
     85          1           0       -7.684310    4.515557   -1.257708
     86          1           0       -9.112760    2.296674   -0.180185
     87          1           0       -8.771946    3.799476    1.204379
     88          1           0       -8.434492    5.357226    0.502617
     89          1           0       -7.161746    4.494638    1.489462
     90          1           0       -8.499360    1.343824   -2.646855
     91          1           0       -8.199962    3.013558   -3.047807
     92          1           0      -10.527496    2.733936   -1.507358
     93          1           0      -10.813930    1.921933   -3.039388
     94          1           0      -10.392673    3.602551   -2.962932
     95          1           0       -8.339399   -4.043134    0.610632
     96          1           0       -9.210434   -2.548793    0.168322
     97          1           0       -8.750574   -2.838124    1.849041
     98          1           0       -3.099343   -4.476209    0.314127
     99          1           0       -2.246282   -6.344582    4.044106
    100          1           0       -0.951045   -5.183271    4.175163
    101          1           0       -0.816236   -6.504185    3.014019
    102          1           0        3.423603   -5.702421   -2.614525
    103          1           0        4.303234   -5.575763   -1.120750
    104          1           0        3.548114   -3.242640   -2.959140
    105          1           0        6.770875   -3.644065   -0.643973
    106          1           0        5.396967   -4.170446    0.300249
    107          1           0        5.923888   -2.503069    0.430572
    108          1           0        6.115175   -1.133916   -1.424370
    109          1           0        4.469041   -0.906105   -1.656666
    110          1           0        4.847407   -0.810705   -3.897036
    111          1           0        5.486348   -2.464661   -3.908978
    112          1           0        7.497499   -1.662520   -4.546992
    113          1           0        7.572555   -1.180866   -2.895452
    114          1           0        6.242956    0.966128   -4.187580
    115          1           0        6.679494    1.317776   -6.240745
    116          1           0        6.588688   -0.418056   -6.273888
    117          1           0        8.210293    0.410849   -6.231510
    118          1           0        8.696276    1.710516   -4.464104
    119          1           0        9.282381    0.358467   -3.760209
    120          1           0        7.445751    1.175709   -1.896946
    121          1           0        7.733659    2.724397   -2.809774
    122          1           0        9.736399    3.020641   -1.601096
    123          1           0       10.264323    1.291648   -1.928477
    124          1           0        8.130264    1.695855    0.133166
    125          1           0       10.102211   -0.060230    0.902519
    126          1           0        9.425841   -0.403615   -0.837491
    127          1           0        8.445789   -0.178966    0.721539
    128          1           0       10.341681    3.385193    0.422547
    129          1           0       10.959260    1.918415    1.031766
    130          1           0        8.228139    2.346106    2.267314
    131          1           0        9.340473    3.765363    2.442829
    132          1           0       11.067203    2.367660    3.415517
    133          1           0       10.011630    1.020678    3.362626
    134          1           0        8.910044    3.438262    4.742774
    135          1           0       10.208202    2.018406    6.808599
    136          1           0       10.627317    3.599192    6.143249
    137          1           0       11.462464    2.118147    5.605222
    138          1           0        7.829064    1.044484    4.382821
    139          1           0        7.419576    2.088687    5.797594
    140          1           0        8.572674    0.728368    5.901387
 ---------------------------------------------------------------------

 SCF Done:  E(RCAM-B3LYP) =  -3007.12229592     A.U. after   19 cycles

 Excitation energies and oscillator strengths:

 Excited State   1:      Singlet-A      1.7673 eV  701.54 nm  f=0.3649  <S**2>=0.000
     245 -> 248        0.19441
     246 -> 247        0.68111
     245 <- 248        0.10776
 This state for optimization and/or second-order correction.
 Total Energy, E(TD-HF/TD-DFT) =  -3007.05734833
 Copying the excited state density for this state as the 1-particle RhoCI density.

 Excited State   2:      Singlet-A      2.2631 eV  547.86 nm  f=0.0492  <S**2>=0.000
     245 -> 247        0.60826
     246 -> 248       -0.34985

 Excited State   3:      Singlet-A      3.4231 eV  362.20 nm  f=0.6306  <S**2>=0.000
     240 -> 247        0.11360
     242 -> 247        0.20818
     244 -> 247       -0.14713
     245 -> 247        0.30911
     246 -> 248        0.57068
     245 <- 247       -0.10520

 Excited State   4:      Singlet-A      3.6363 eV  340.96 nm  f=0.0579  <S**2>=0.000
     241 -> 247        0.33914
     241 -> 249       -0.27267
     241 -> 251        0.14535
     242 -> 247       -0.14188
     244 -> 247        0.45437
     246 -> 248        0.12530

 Excited State   5:      Singlet-A      3.6562 eV  339.11 nm  f=0.0728  <S**2>=0.000
     241 -> 247       -0.38264
     241 -> 249        0.27518
     241 -> 251       -0.14552
     242 -> 247       -0.18343
     244 -> 247        0.40152
     245 -> 247        0.10126
     246 -> 248        0.14091

 The electronic state is 1-A.
 Alpha  occ. eigenvalues --  -46.89119 -19.26402 -19.24548 -19.20636 -19.20045
 Alpha  occ. eigenvalues --  -19.18977 -19.18566 -14.42343 -14.42264 -14.39542
 Alpha  occ. eigenvalues --  -14.38997 -10.40351 -10.39597 -10.36949 -10.35372
 Alpha  occ. eigenvalues --  -10.32236 -10.32183 -10.32074 -10.31053 -10.30742
 Alpha  occ. eigenvalues --  -10.30520 -10.30513 -10.30095 -10.29348 -10.29119
 Alpha  occ. eigenvalues --  -10.28850 -10.28691 -10.28665 -10.28349 -10.28049
 Alpha  occ. eigenvalues --  -10.27881 -10.27644 -10.27506 -10.27497 -10.27456
 Alpha  occ. eigenvalues --  -10.27432 -10.27280 -10.27120 -10.27110 -10.27096
 Alpha  occ. eigenvalues --  -10.26691 -10.26383 -10.26225 -10.26199 -10.25981
 Alpha  occ. eigenvalues --  -10.25922 -10.25775 -10.25762 -10.25539 -10.25375
 Alpha  occ. eigenvalues --  -10.25370 -10.25356 -10.25345 -10.25307 -10.25159
 Alpha  occ. eigenvalues --  -10.25106 -10.24934 -10.24904 -10.24876 -10.24837
 Alpha  occ. eigenvalues --  -10.24815 -10.24720 -10.24600 -10.24548 -10.24543
 Alpha  occ. eigenvalues --  -10.24520  -3.17663  -1.92545  -1.92116  -1.91966
 Alpha  occ. eigenvalues --   -1.15790  -1.13657  -1.10883  -1.08736  -1.07589
 Alpha  occ. eigenvalues --   -1.05976  -1.04193  -1.03854  -1.02468  -1.01274
 Alpha  occ. eigenvalues --   -0.92838  -0.91457  -0.90239  -0.89066  -0.88941
 Alpha  occ. eigenvalues --   -0.88514  -0.88116  -0.87757  -0.87235  -0.86947
 Alpha  occ. eigenvalues --   -0.86096  -0.85043  -0.84485  -0.84209  -0.83400
 Alpha  occ. eigenvalues --   -0.82800  -0.82276  -0.81675  -0.81257  -0.80832
 Alpha  occ. eigenvalues --   -0.80493  -0.78412  -0.77574  -0.77468  -0.76259
 Alpha  occ. eigenvalues --   -0.76071  -0.75589  -0.75452  -0.74916  -0.74297
 Alpha  occ. eigenvalues --   -0.73286  -0.72400  -0.71617  -0.70257  -0.69214
 Alpha  occ. eigenvalues --   -0.68744  -0.68476  -0.67141  -0.67049  -0.65816
 Alpha  occ. eigenvalues --   -0.65623  -0.65572  -0.64937  -0.64764  -0.63948
 Alpha  occ. eigenvalues --   -0.63382  -0.62988  -0.62837  -0.62493  -0.60562
 Alpha  occ. eigenvalues --   -0.59786  -0.59537  -0.59167  -0.58784  -0.58225
 Alpha  occ. eigenvalues --   -0.57813  -0.56934  -0.56292  -0.56005  -0.55576
 Alpha  occ. eigenvalues --   -0.55415  -0.55045  -0.54704  -0.54579  -0.53931
 Alpha  occ. eigenvalues --   -0.53744  -0.53594  -0.53462  -0.53107  -0.52862
 Alpha  occ. eigenvalues --   -0.52586  -0.52431  -0.52336  -0.52118  -0.51819
 Alpha  occ. eigenvalues --   -0.51616  -0.51563  -0.51257  -0.51031  -0.50696
 Alpha  occ. eigenvalues --   -0.50666  -0.50427  -0.50098  -0.50036  -0.49692
 Alpha  occ. eigenvalues --   -0.49535  -0.49495  -0.49100  -0.48912  -0.48637
 Alpha  occ. eigenvalues --   -0.48405  -0.48218  -0.47917  -0.47801  -0.47715
 Alpha  occ. eigenvalues --   -0.47657  -0.47520  -0.47250  -0.46924  -0.46706
 Alpha  occ. eigenvalues --   -0.46618  -0.46406  -0.46398  -0.46217  -0.46186
 Alpha  occ. eigenvalues --   -0.46067  -0.45726  -0.45357  -0.45208  -0.44651
 Alpha  occ. eigenvalues --   -0.44507  -0.44400  -0.44112  -0.43854  -0.43658
 Alpha  occ. eigenvalues --   -0.43511  -0.43403  -0.43305  -0.43130  -0.43026
 Alpha  occ. eigenvalues --   -0.42732  -0.42470  -0.42304  -0.42196  -0.41978
 Alpha  occ. eigenvalues --   -0.41937  -0.41466  -0.41319  -0.41193  -0.41098
 Alpha  occ. eigenvalues --   -0.41050  -0.40737  -0.40688  -0.40304  -0.40201
 Alpha  occ. eigenvalues --   -0.40154  -0.39944  -0.39544  -0.39066  -0.38555
 Alpha  occ. eigenvalues --   -0.38169  -0.37956  -0.37641  -0.37578  -0.37438
 Alpha  occ. eigenvalues --   -0.37310  -0.37249  -0.37104  -0.36875  -0.36426
 Alpha  occ. eigenvalues --   -0.36172  -0.35197  -0.34642  -0.34609  -0.34248
 Alpha  occ. eigenvalues --   -0.33900  -0.33683  -0.32637  -0.31966  -0.31560
 Alpha  occ. eigenvalues --   -0.31107  -0.30238  -0.30033  -0.29913  -0.24085
 Alpha  occ. eigenvalues --   -0.20913
 Alpha virt. eigenvalues --   -0.08054  -0.02216   0.00069   0.01551   0.01875
 Alpha virt. eigenvalues --    0.02776   0.03580   0.04355   0.05483   0.07033
 Alpha virt. eigenvalues --    0.07317   0.08001   0.08430   0.08845   0.09144

 Mulliken charges:
               1
     1  Mg   0.837191
     2  C   -0.059084
     3  C   -0.068668
     4  C   -0.056827
     5  C   -0.133741
     6  N   -0.266143
     7  C   -0.039516
     8  C   -0.008324
     9  C   -0.071455
    10  C    0.065869
    11  C    0.043505
    12  C    0.063707
    13  C    0.052411
    14  C    0.164708
    15  O   -0.309771
    16  O   -0.341902
    17  N   -0.393929
    18  C    0.142748
    19  C   -0.127376
    20  C   -0.015489
    21  C    0.123831
    22  C    0.100607
    23  C    0.058462
    24  O   -0.199567
    25  C    0.032243
    26  N   -0.327186
    27  C    0.057140
    28  C   -0.062063
    29  C   -0.073935
    30  C    0.032547
    31  C    0.081407
    32  C    0.048372
    33  C   -0.003581
    34  N   -0.272711
    35  C    0.199885
    36  C   -0.198223
    37  C    0.017192
    38  C    0.093808
    39  C    0.125424
    40  C    0.086027
    41  O   -0.186806
    42  C    0.039993
    43  C    0.209260
    44  O   -0.226100
    45  O   -0.343994
    46  C    0.175034
    47  C    0.311857
    48  C   -0.125363
    49  C   -0.169820
    50  C    0.059127
    51  C    0.085662
    52  C    0.013147
    53  C    0.059441
    54  C   -0.154114
    55  C    0.064093
    56  C   -0.000378
    57  C    0.064056
    58  C    0.109497
    59  C   -0.221361
    60  C    0.066611
    61  C    0.066505
    62  C    0.040565
    63  C    0.003596
    64  C   -0.145643
    65  C    0.043160
    66  C    0.045679
    67  H   -0.033458
    68  H   -0.001252
    69  H   -0.022529
    70  H    0.025329
    71  H    0.022879
    72  H    0.020477
    73  H    0.022327
    74  H    0.014304
    75  H    0.027405
    76  H    0.015948
    77  H    0.042789
    78  H    0.010155
    79  H    0.036622
    80  H   -0.007431
    81  H    0.023192
    82  H    0.031093
    83  H    0.023522
    84  H    0.051667
    85  H    0.010595
    86  H    0.013562
    87  H    0.007438
    88  H    0.017117
    89  H    0.023652
    90  H    0.002462
    91  H    0.015869
    92  H   -0.015402
    93  H    0.022518
    94  H    0.005514
    95  H    0.036096
    96  H    0.008022
    97  H    0.033459
    98  H    0.027122
    99  H    0.045041
   100  H    0.036414
   101  H    0.033628
   102  H    0.033341
   103  H    0.011870
   104  H    0.012942
   105  H    0.023220
   106  H    0.017825
   107  H    0.030537
   108  H   -0.014722
   109  H    0.017758
   110  H   -0.003990
   111  H    0.009579
   112  H   -0.012642
   113  H   -0.016679
   114  H   -0.019031
   115  H    0.004873
   116  H    0.006837
   117  H    0.008861
   118  H   -0.036419
   119  H   -0.010652
   120  H   -0.000715
   121  H    0.009988
   122  H   -0.004096
   123  H    0.005787
   124  H   -0.003430
   125  H    0.004850
   126  H    0.024768
   127  H   -0.003348
   128  H   -0.011922
   129  H   -0.008982
   130  H    0.004777
   131  H   -0.002198
   132  H   -0.001108
   133  H   -0.016934
   134  H   -0.008048
   135  H   -0.000824
   136  H    0.010950
   137  H    0.010821
   138  H   -0.005435
   139  H    0.019668
   140  H    0.004474
 Sum of Mulliken charges =  -0.00000

 Dipole moment (field-independent basis, Debye):
    X=              5.1953    Y=              4.3265    Z=             -0.1140  Tot=              6.7618
 Quadrupole moment (field-independent basis, Debye-Ang):
   XX=           -383.4140   YY=           -420.0076   ZZ=           -418.1241
   XY=            -18.3400   XZ=             18.0426   YZ=             -6.2782

 Normal termination of Gaussian 16 at Wed May  4 03:02:56 2022.
