 Gaussian 16, Revision A.03,
 Gaussian 16:  ES64L-G16RevA.03 25-Dec-2016

 ---------------------------------
 #p PBE1PBE/Def2SVP td=(nstates=5)
 ---------------------------------

 ------------------------------------------------------
 step_1301_chromophore_27 TDDFT with PBE1PBE functional
 ------------------------------------------------------
 Symbolic Z-matrix:
 Charge =  0 Multiplicity = 1

                         Standard orientation:
 ---------------------------------------------------------------------
 Center     Atomic      Atomic             Coordinates (Angstroms)
 Number     Number       Type             X           Y           Z
 ---------------------------------------------------------------------
      1         12           0       -4.285104    0.851706   -0.294808
      2          6           0       -3.570656   -2.450066    0.704997
      3          6           0       -0.853222    1.562347    0.198538
      4          6           0       -4.927586    4.160717   -0.419165
      5          6           0       -7.615071   -0.009994   -0.200774
      6          7           0       -2.461482   -0.319342    0.491300
      7          6           0       -2.443042   -1.672590    0.652198
      8          6           0       -1.035880   -2.280261    0.611377
      9          6           0       -0.094338   -0.971370    0.600809
     10          6           0       -1.160420    0.190154    0.416379
     11          6           0        0.640200   -0.793602    2.040097
     12          6           0       -0.801985   -3.131879   -0.730274
     13          6           0       -0.151663   -4.528770   -0.635967
     14          6           0        1.074548   -4.866092   -1.554158
     15          8           0        0.976530   -4.993191   -2.832948
     16          8           0        2.291100   -5.036919   -0.926045
     17          7           0       -3.057651    2.615486   -0.180329
     18          6           0       -1.676727    2.691434    0.112788
     19          6           0       -1.363004    4.135269    0.135169
     20          6           0       -2.488495    4.880895   -0.050298
     21          6           0       -3.567326    3.923151   -0.218607
     22          6           0        0.065892    4.580083    0.401786
     23          6           0       -2.728529    6.445816   -0.014300
     24          8           0       -3.827366    6.899865   -0.316614
     25          6           0       -1.570679    7.396223    0.214740
     26          7           0       -5.975136    1.898499   -0.430344
     27          6           0       -6.015404    3.219488   -0.502242
     28          6           0       -7.444436    3.765469   -0.504618
     29          6           0       -8.248697    2.433201   -0.832047
     30          6           0       -7.213791    1.318326   -0.546242
     31          6           0       -7.976076    4.405670    0.770694
     32          6           0       -8.677145    2.365783   -2.312055
     33          6           0      -10.161009    2.630435   -2.528278
     34          7           0       -5.495821   -0.814973    0.242332
     35          6           0       -6.770673   -0.974200    0.178853
     36          6           0       -7.090360   -2.325200    0.600382
     37          6           0       -5.873910   -2.992962    0.737470
     38          6           0       -4.897943   -1.993046    0.491721
     39          6           0       -8.443342   -2.977389    0.812130
     40          6           0       -5.229104   -4.222810    1.127625
     41          8           0       -5.691859   -5.334568    1.430421
     42          6           0       -3.675527   -3.946485    1.073601
     43          6           0       -3.035155   -4.217407    2.424071
     44          8           0       -3.407558   -3.662353    3.481404
     45          8           0       -2.013884   -5.160307    2.263639
     46          6           0       -1.508528   -5.791393    3.462168
     47          6           0        3.555382   -5.074215   -1.733982
     48          6           0        4.010332   -3.689990   -2.079742
     49          6           0        5.066719   -2.977944   -1.560778
     50          6           0        5.796295   -3.330030   -0.267973
     51          6           0        5.276483   -1.569022   -1.966732
     52          6           0        5.581180   -1.480370   -3.448790
     53          6           0        7.007509   -1.022358   -3.814236
     54          6           0        7.147930    0.384715   -4.363958
     55          6           0        7.176083    0.415075   -5.887193
     56          6           0        8.419402    1.017782   -3.669353
     57          6           0        8.172042    1.813702   -2.400822
     58          6           0        9.469680    1.963248   -1.603585
     59          6           0        9.180967    1.576843   -0.131992
     60          6           0        9.334001    0.068406    0.141205
     61          6           0       10.022433    2.461058    0.903962
     62          6           0        9.259626    2.698238    2.234656
     63          6           0       10.008157    2.108375    3.436137
     64          6           0        9.381704    2.456854    4.812592
     65          6           0       10.503020    2.543892    5.901042
     66          6           0        8.205261    1.542393    5.275923
     67          1           0        0.210360    1.809809    0.196374
     68          1           0       -5.290814    5.190067   -0.448450
     69          1           0       -8.699197   -0.109501   -0.284729
     70          1           0       -0.883374   -2.955344    1.453496
     71          1           0        0.764419   -0.984141   -0.069380
     72          1           0        0.264868    0.103188    2.532136
     73          1           0        1.725488   -0.711351    1.989553
     74          1           0        0.296057   -1.647906    2.623247
     75          1           0       -0.348971   -2.628426   -1.584300
     76          1           0       -1.788040   -3.427400   -1.089777
     77          1           0       -0.781376   -5.393736   -0.844859
     78          1           0        0.139191   -4.729780    0.395413
     79          1           0        0.493142    5.346395   -0.245752
     80          1           0        0.724761    3.718071    0.500356
     81          1           0        0.174553    4.930361    1.427899
     82          1           0       -0.801993    7.146373    0.945527
     83          1           0       -1.767506    8.401782    0.587926
     84          1           0       -1.270919    7.575587   -0.818466
     85          1           0       -7.684310    4.515557   -1.257708
     86          1           0       -9.112760    2.296674   -0.180185
     87          1           0       -8.771946    3.799476    1.204379
     88          1           0       -8.434492    5.357226    0.502617
     89          1           0       -7.161746    4.494638    1.489462
     90          1           0       -8.499360    1.343824   -2.646855
     91          1           0       -8.199962    3.013558   -3.047807
     92          1           0      -10.527496    2.733936   -1.507358
     93          1           0      -10.813930    1.921933   -3.039388
     94          1           0      -10.392673    3.602551   -2.962932
     95          1           0       -8.339399   -4.043134    0.610632
     96          1           0       -9.210434   -2.548793    0.168322
     97          1           0       -8.750574   -2.838124    1.849041
     98          1           0       -3.099343   -4.476209    0.314127
     99          1           0       -2.246282   -6.344582    4.044106
    100          1           0       -0.951045   -5.183271    4.175163
    101          1           0       -0.816236   -6.504185    3.014019
    102          1           0        3.423603   -5.702421   -2.614525
    103          1           0        4.303234   -5.575763   -1.120750
    104          1           0        3.548114   -3.242640   -2.959140
    105          1           0        6.770875   -3.644065   -0.643973
    106          1           0        5.396967   -4.170446    0.300249
    107          1           0        5.923888   -2.503069    0.430572
    108          1           0        6.115175   -1.133916   -1.424370
    109          1           0        4.469041   -0.906105   -1.656666
    110          1           0        4.847407   -0.810705   -3.897036
    111          1           0        5.486348   -2.464661   -3.908978
    112          1           0        7.497499   -1.662520   -4.546992
    113          1           0        7.572555   -1.180866   -2.895452
    114          1           0        6.242956    0.966128   -4.187580
    115          1           0        6.679494    1.317776   -6.240745
    116          1           0        6.588688   -0.418056   -6.273888
    117          1           0        8.210293    0.410849   -6.231510
    118          1           0        8.696276    1.710516   -4.464104
    119          1           0        9.282381    0.358467   -3.760209
    120          1           0        7.445751    1.175709   -1.896946
    121          1           0        7.733659    2.724397   -2.809774
    122          1           0        9.736399    3.020641   -1.601096
    123          1           0       10.264323    1.291648   -1.928477
    124          1           0        8.130264    1.695855    0.133166
    125          1           0       10.102211   -0.060230    0.902519
    126          1           0        9.425841   -0.403615   -0.837491
    127          1           0        8.445789   -0.178966    0.721539
    128          1           0       10.341681    3.385193    0.422547
    129          1           0       10.959260    1.918415    1.031766
    130          1           0        8.228139    2.346106    2.267314
    131          1           0        9.340473    3.765363    2.442829
    132          1           0       11.067203    2.367660    3.415517
    133          1           0       10.011630    1.020678    3.362626
    134          1           0        8.910044    3.438262    4.742774
    135          1           0       10.208202    2.018406    6.808599
    136          1           0       10.627317    3.599192    6.143249
    137          1           0       11.462464    2.118147    5.605222
    138          1           0        7.829064    1.044484    4.382821
    139          1           0        7.419576    2.088687    5.797594
    140          1           0        8.572674    0.728368    5.901387
 ---------------------------------------------------------------------

 SCF Done:  E(RPBE1PBE) =  -3005.31111134     A.U. after   15 cycles

 Excitation energies and oscillator strengths:

 Excited State   1:      Singlet-A      1.9048 eV  650.90 nm  f=0.3573  <S**2>=0.000
     245 -> 248        0.18588
     246 -> 247        0.68752
 This state for optimization and/or second-order correction.
 Total Energy, E(TD-HF/TD-DFT) =  -3005.24111084
 Copying the excited state density for this state as the 1-particle RhoCI density.

 Excited State   2:      Singlet-A      2.2668 eV  546.97 nm  f=0.0571  <S**2>=0.000
     245 -> 247        0.62900
     246 -> 248       -0.31073

 Excited State   3:      Singlet-A      3.2110 eV  386.13 nm  f=0.0084  <S**2>=0.000
     241 -> 247        0.58388
     241 -> 249       -0.21402
     241 -> 250        0.10917
     242 -> 247        0.11972
     243 -> 247        0.25156

 Excited State   4:      Singlet-A      3.2228 eV  384.71 nm  f=0.2121  <S**2>=0.000
     239 -> 247        0.10758
     241 -> 247        0.18582
     242 -> 247        0.21737
     243 -> 247       -0.36339
     245 -> 247        0.19089
     246 -> 248        0.45462

 Excited State   5:      Singlet-A      3.2987 eV  375.85 nm  f=0.1679  <S**2>=0.000
     241 -> 247       -0.12438
     243 -> 247        0.52331
     245 -> 247        0.16255
     246 -> 248        0.35343
     246 -> 249        0.17363

 The electronic state is 1-A.
 Alpha  occ. eigenvalues --  -46.92524 -19.27069 -19.25276 -19.20888 -19.20144
 Alpha  occ. eigenvalues --  -19.19306 -19.18942 -14.41882 -14.41759 -14.39198
 Alpha  occ. eigenvalues --  -14.38670 -10.37425 -10.36726 -10.33999 -10.32601
 Alpha  occ. eigenvalues --  -10.29850 -10.29608 -10.29295 -10.28696 -10.28684
 Alpha  occ. eigenvalues --  -10.28341 -10.28067 -10.27658 -10.27173 -10.26987
 Alpha  occ. eigenvalues --  -10.26500 -10.26370 -10.26354 -10.26152 -10.25730
 Alpha  occ. eigenvalues --  -10.25397 -10.25395 -10.25318 -10.25288 -10.25212
 Alpha  occ. eigenvalues --  -10.25065 -10.25018 -10.24929 -10.24443 -10.24313
 Alpha  occ. eigenvalues --  -10.24288 -10.23859 -10.23784 -10.23668 -10.23655
 Alpha  occ. eigenvalues --  -10.23509 -10.23460 -10.23317 -10.23106 -10.23055
 Alpha  occ. eigenvalues --  -10.23047 -10.22906 -10.22875 -10.22775 -10.22729
 Alpha  occ. eigenvalues --  -10.22701 -10.22583 -10.22475 -10.22472 -10.22281
 Alpha  occ. eigenvalues --  -10.22259 -10.22233 -10.22135 -10.22117 -10.21990
 Alpha  occ. eigenvalues --  -10.21913  -3.14647  -1.87468  -1.87020  -1.86872
 Alpha  occ. eigenvalues --   -1.10574  -1.08491  -1.05501  -1.03541  -1.02408
 Alpha  occ. eigenvalues --   -1.00816  -0.98841  -0.98727  -0.97044  -0.95819
 Alpha  occ. eigenvalues --   -0.87266  -0.85592  -0.84345  -0.83251  -0.83167
 Alpha  occ. eigenvalues --   -0.82747  -0.82415  -0.81871  -0.81574  -0.81158
 Alpha  occ. eigenvalues --   -0.80492  -0.79256  -0.78741  -0.78443  -0.77625
 Alpha  occ. eigenvalues --   -0.77043  -0.76364  -0.75927  -0.75490  -0.75145
 Alpha  occ. eigenvalues --   -0.74702  -0.72669  -0.71937  -0.71755  -0.70492
 Alpha  occ. eigenvalues --   -0.70360  -0.69674  -0.69577  -0.69274  -0.68480
 Alpha  occ. eigenvalues --   -0.67635  -0.66858  -0.66079  -0.64571  -0.63762
 Alpha  occ. eigenvalues --   -0.62973  -0.62823  -0.61510  -0.61269  -0.60234
 Alpha  occ. eigenvalues --   -0.59988  -0.59815  -0.59512  -0.59308  -0.58080
 Alpha  occ. eigenvalues --   -0.57599  -0.57553  -0.57367  -0.56699  -0.55023
 Alpha  occ. eigenvalues --   -0.54340  -0.54160  -0.53617  -0.53361  -0.52860
 Alpha  occ. eigenvalues --   -0.52234  -0.51341  -0.50841  -0.50593  -0.50094
 Alpha  occ. eigenvalues --   -0.49847  -0.49448  -0.49257  -0.49016  -0.48484
 Alpha  occ. eigenvalues --   -0.48157  -0.48112  -0.48067  -0.47681  -0.47469
 Alpha  occ. eigenvalues --   -0.47157  -0.47004  -0.46780  -0.46584  -0.46401
 Alpha  occ. eigenvalues --   -0.46270  -0.46098  -0.45801  -0.45651  -0.45271
 Alpha  occ. eigenvalues --   -0.45128  -0.44937  -0.44747  -0.44518  -0.44271
 Alpha  occ. eigenvalues --   -0.44199  -0.44044  -0.43687  -0.43533  -0.43301
 Alpha  occ. eigenvalues --   -0.43057  -0.42860  -0.42539  -0.42484  -0.42324
 Alpha  occ. eigenvalues --   -0.42309  -0.42166  -0.41878  -0.41561  -0.41423
 Alpha  occ. eigenvalues --   -0.41270  -0.41113  -0.41050  -0.40903  -0.40804
 Alpha  occ. eigenvalues --   -0.40712  -0.40391  -0.40082  -0.39968  -0.39404
 Alpha  occ. eigenvalues --   -0.39183  -0.39114  -0.38868  -0.38697  -0.38412
 Alpha  occ. eigenvalues --   -0.38292  -0.38229  -0.38115  -0.37868  -0.37844
 Alpha  occ. eigenvalues --   -0.37525  -0.37314  -0.37038  -0.36994  -0.36779
 Alpha  occ. eigenvalues --   -0.36723  -0.36312  -0.36114  -0.36036  -0.35957
 Alpha  occ. eigenvalues --   -0.35784  -0.35669  -0.35545  -0.35066  -0.35053
 Alpha  occ. eigenvalues --   -0.35013  -0.34818  -0.34360  -0.33875  -0.33522
 Alpha  occ. eigenvalues --   -0.33010  -0.32726  -0.32623  -0.32425  -0.32412
 Alpha  occ. eigenvalues --   -0.32275  -0.32134  -0.31948  -0.31915  -0.31267
 Alpha  occ. eigenvalues --   -0.31205  -0.30227  -0.29540  -0.29522  -0.29456
 Alpha  occ. eigenvalues --   -0.29160  -0.28941  -0.27430  -0.27122  -0.26661
 Alpha  occ. eigenvalues --   -0.26027  -0.25896  -0.25580  -0.25378  -0.20979
 Alpha  occ. eigenvalues --   -0.18589
 Alpha virt. eigenvalues --   -0.10669  -0.05656  -0.04190  -0.02613  -0.01640
 Alpha virt. eigenvalues --   -0.01209  -0.01057  -0.00223   0.01088   0.03045
 Alpha virt. eigenvalues --    0.04050   0.04274   0.04606   0.05395   0.05778

 Mulliken charges:
               1
     1  Mg   0.978484
     2  C   -0.070149
     3  C   -0.073372
     4  C   -0.047029
     5  C   -0.112700
     6  N   -0.366076
     7  C    0.036834
     8  C   -0.078762
     9  C   -0.144162
    10  C    0.094926
    11  C   -0.009862
    12  C    0.014945
    13  C   -0.020554
    14  C    0.229745
    15  O   -0.337709
    16  O   -0.371205
    17  N   -0.496623
    18  C    0.171521
    19  C   -0.166908
    20  C   -0.058662
    21  C    0.151070
    22  C    0.048222
    23  C    0.104108
    24  O   -0.235997
    25  C   -0.034374
    26  N   -0.442552
    27  C    0.090556
    28  C   -0.132445
    29  C   -0.160970
    30  C    0.074665
    31  C    0.026654
    32  C   -0.005789
    33  C   -0.072253
    34  N   -0.406176
    35  C    0.210969
    36  C   -0.209055
    37  C   -0.033603
    38  C    0.154178
    39  C    0.072270
    40  C    0.180563
    41  O   -0.232208
    42  C   -0.075789
    43  C    0.296495
    44  O   -0.259539
    45  O   -0.376101
    46  C    0.120483
    47  C    0.263553
    48  C   -0.128439
    49  C   -0.215644
    50  C   -0.008349
    51  C    0.023964
    52  C   -0.049752
    53  C    0.003262
    54  C   -0.233939
    55  C    0.001019
    56  C   -0.057215
    57  C   -0.004633
    58  C    0.046649
    59  C   -0.299712
    60  C    0.007836
    61  C    0.013948
    62  C   -0.028438
    63  C   -0.052533
    64  C   -0.234655
    65  C   -0.017351
    66  C   -0.016348
    67  H    0.000841
    68  H    0.030366
    69  H    0.008580
    70  H    0.064617
    71  H    0.056719
    72  H    0.048487
    73  H    0.048520
    74  H    0.042000
    75  H    0.058162
    76  H    0.050515
    77  H    0.072877
    78  H    0.043278
    79  H    0.062442
    80  H    0.019804
    81  H    0.050594
    82  H    0.054686
    83  H    0.049977
    84  H    0.078620
    85  H    0.046815
    86  H    0.047749
    87  H    0.034697
    88  H    0.043967
    89  H    0.051884
    90  H    0.037378
    91  H    0.047426
    92  H    0.013133
    93  H    0.049446
    94  H    0.033883
    95  H    0.063353
    96  H    0.035695
    97  H    0.062265
    98  H    0.068136
    99  H    0.066838
   100  H    0.057830
   101  H    0.055129
   102  H    0.059849
   103  H    0.038979
   104  H    0.041757
   105  H    0.053062
   106  H    0.044610
   107  H    0.056745
   108  H    0.019210
   109  H    0.049609
   110  H    0.028390
   111  H    0.042730
   112  H    0.020522
   113  H    0.020013
   114  H    0.018187
   115  H    0.033259
   116  H    0.035192
   117  H    0.036442
   118  H    0.000121
   119  H    0.020251
   120  H    0.037200
   121  H    0.042460
   122  H    0.029830
   123  H    0.037746
   124  H    0.034737
   125  H    0.032557
   126  H    0.052436
   127  H    0.023969
   128  H    0.019925
   129  H    0.022955
   130  H    0.035567
   131  H    0.032618
   132  H    0.030956
   133  H    0.018319
   134  H    0.029932
   135  H    0.026591
   136  H    0.038611
   137  H    0.037254
   138  H    0.022687
   139  H    0.046746
   140  H    0.031975
 Sum of Mulliken charges =  -0.00000

 Dipole moment (field-independent basis, Debye):
    X=              5.0046    Y=              4.1398    Z=             -0.1573  Tot=              6.4968
 Quadrupole moment (field-independent basis, Debye-Ang):
   XX=           -376.2518   YY=           -418.0808   ZZ=           -415.3359
   XY=            -18.1994   XZ=             18.4485   YZ=             -6.6568

 Normal termination of Gaussian 16 at Wed May  4 03:25:46 2022.
