 Gaussian 16, Revision A.03,
 Gaussian 16:  ES64L-G16RevA.03 25-Dec-2016

 --------------------------------
 #p wB97XD/Def2SVP td=(nstates=5)
 --------------------------------

 -----------------------------------------------------
 step_1301_chromophore_27 TDDFT with wB97XD functional
 -----------------------------------------------------
 Symbolic Z-matrix:
 Charge =  0 Multiplicity = 1

                         Standard orientation:
 ---------------------------------------------------------------------
 Center     Atomic      Atomic             Coordinates (Angstroms)
 Number     Number       Type             X           Y           Z
 ---------------------------------------------------------------------
      1         12           0       -4.285104    0.851706   -0.294808
      2          6           0       -3.570656   -2.450066    0.704997
      3          6           0       -0.853222    1.562347    0.198538
      4          6           0       -4.927586    4.160717   -0.419165
      5          6           0       -7.615071   -0.009994   -0.200774
      6          7           0       -2.461482   -0.319342    0.491300
      7          6           0       -2.443042   -1.672590    0.652198
      8          6           0       -1.035880   -2.280261    0.611377
      9          6           0       -0.094338   -0.971370    0.600809
     10          6           0       -1.160420    0.190154    0.416379
     11          6           0        0.640200   -0.793602    2.040097
     12          6           0       -0.801985   -3.131879   -0.730274
     13          6           0       -0.151663   -4.528770   -0.635967
     14          6           0        1.074548   -4.866092   -1.554158
     15          8           0        0.976530   -4.993191   -2.832948
     16          8           0        2.291100   -5.036919   -0.926045
     17          7           0       -3.057651    2.615486   -0.180329
     18          6           0       -1.676727    2.691434    0.112788
     19          6           0       -1.363004    4.135269    0.135169
     20          6           0       -2.488495    4.880895   -0.050298
     21          6           0       -3.567326    3.923151   -0.218607
     22          6           0        0.065892    4.580083    0.401786
     23          6           0       -2.728529    6.445816   -0.014300
     24          8           0       -3.827366    6.899865   -0.316614
     25          6           0       -1.570679    7.396223    0.214740
     26          7           0       -5.975136    1.898499   -0.430344
     27          6           0       -6.015404    3.219488   -0.502242
     28          6           0       -7.444436    3.765469   -0.504618
     29          6           0       -8.248697    2.433201   -0.832047
     30          6           0       -7.213791    1.318326   -0.546242
     31          6           0       -7.976076    4.405670    0.770694
     32          6           0       -8.677145    2.365783   -2.312055
     33          6           0      -10.161009    2.630435   -2.528278
     34          7           0       -5.495821   -0.814973    0.242332
     35          6           0       -6.770673   -0.974200    0.178853
     36          6           0       -7.090360   -2.325200    0.600382
     37          6           0       -5.873910   -2.992962    0.737470
     38          6           0       -4.897943   -1.993046    0.491721
     39          6           0       -8.443342   -2.977389    0.812130
     40          6           0       -5.229104   -4.222810    1.127625
     41          8           0       -5.691859   -5.334568    1.430421
     42          6           0       -3.675527   -3.946485    1.073601
     43          6           0       -3.035155   -4.217407    2.424071
     44          8           0       -3.407558   -3.662353    3.481404
     45          8           0       -2.013884   -5.160307    2.263639
     46          6           0       -1.508528   -5.791393    3.462168
     47          6           0        3.555382   -5.074215   -1.733982
     48          6           0        4.010332   -3.689990   -2.079742
     49          6           0        5.066719   -2.977944   -1.560778
     50          6           0        5.796295   -3.330030   -0.267973
     51          6           0        5.276483   -1.569022   -1.966732
     52          6           0        5.581180   -1.480370   -3.448790
     53          6           0        7.007509   -1.022358   -3.814236
     54          6           0        7.147930    0.384715   -4.363958
     55          6           0        7.176083    0.415075   -5.887193
     56          6           0        8.419402    1.017782   -3.669353
     57          6           0        8.172042    1.813702   -2.400822
     58          6           0        9.469680    1.963248   -1.603585
     59          6           0        9.180967    1.576843   -0.131992
     60          6           0        9.334001    0.068406    0.141205
     61          6           0       10.022433    2.461058    0.903962
     62          6           0        9.259626    2.698238    2.234656
     63          6           0       10.008157    2.108375    3.436137
     64          6           0        9.381704    2.456854    4.812592
     65          6           0       10.503020    2.543892    5.901042
     66          6           0        8.205261    1.542393    5.275923
     67          1           0        0.210360    1.809809    0.196374
     68          1           0       -5.290814    5.190067   -0.448450
     69          1           0       -8.699197   -0.109501   -0.284729
     70          1           0       -0.883374   -2.955344    1.453496
     71          1           0        0.764419   -0.984141   -0.069380
     72          1           0        0.264868    0.103188    2.532136
     73          1           0        1.725488   -0.711351    1.989553
     74          1           0        0.296057   -1.647906    2.623247
     75          1           0       -0.348971   -2.628426   -1.584300
     76          1           0       -1.788040   -3.427400   -1.089777
     77          1           0       -0.781376   -5.393736   -0.844859
     78          1           0        0.139191   -4.729780    0.395413
     79          1           0        0.493142    5.346395   -0.245752
     80          1           0        0.724761    3.718071    0.500356
     81          1           0        0.174553    4.930361    1.427899
     82          1           0       -0.801993    7.146373    0.945527
     83          1           0       -1.767506    8.401782    0.587926
     84          1           0       -1.270919    7.575587   -0.818466
     85          1           0       -7.684310    4.515557   -1.257708
     86          1           0       -9.112760    2.296674   -0.180185
     87          1           0       -8.771946    3.799476    1.204379
     88          1           0       -8.434492    5.357226    0.502617
     89          1           0       -7.161746    4.494638    1.489462
     90          1           0       -8.499360    1.343824   -2.646855
     91          1           0       -8.199962    3.013558   -3.047807
     92          1           0      -10.527496    2.733936   -1.507358
     93          1           0      -10.813930    1.921933   -3.039388
     94          1           0      -10.392673    3.602551   -2.962932
     95          1           0       -8.339399   -4.043134    0.610632
     96          1           0       -9.210434   -2.548793    0.168322
     97          1           0       -8.750574   -2.838124    1.849041
     98          1           0       -3.099343   -4.476209    0.314127
     99          1           0       -2.246282   -6.344582    4.044106
    100          1           0       -0.951045   -5.183271    4.175163
    101          1           0       -0.816236   -6.504185    3.014019
    102          1           0        3.423603   -5.702421   -2.614525
    103          1           0        4.303234   -5.575763   -1.120750
    104          1           0        3.548114   -3.242640   -2.959140
    105          1           0        6.770875   -3.644065   -0.643973
    106          1           0        5.396967   -4.170446    0.300249
    107          1           0        5.923888   -2.503069    0.430572
    108          1           0        6.115175   -1.133916   -1.424370
    109          1           0        4.469041   -0.906105   -1.656666
    110          1           0        4.847407   -0.810705   -3.897036
    111          1           0        5.486348   -2.464661   -3.908978
    112          1           0        7.497499   -1.662520   -4.546992
    113          1           0        7.572555   -1.180866   -2.895452
    114          1           0        6.242956    0.966128   -4.187580
    115          1           0        6.679494    1.317776   -6.240745
    116          1           0        6.588688   -0.418056   -6.273888
    117          1           0        8.210293    0.410849   -6.231510
    118          1           0        8.696276    1.710516   -4.464104
    119          1           0        9.282381    0.358467   -3.760209
    120          1           0        7.445751    1.175709   -1.896946
    121          1           0        7.733659    2.724397   -2.809774
    122          1           0        9.736399    3.020641   -1.601096
    123          1           0       10.264323    1.291648   -1.928477
    124          1           0        8.130264    1.695855    0.133166
    125          1           0       10.102211   -0.060230    0.902519
    126          1           0        9.425841   -0.403615   -0.837491
    127          1           0        8.445789   -0.178966    0.721539
    128          1           0       10.341681    3.385193    0.422547
    129          1           0       10.959260    1.918415    1.031766
    130          1           0        8.228139    2.346106    2.267314
    131          1           0        9.340473    3.765363    2.442829
    132          1           0       11.067203    2.367660    3.415517
    133          1           0       10.011630    1.020678    3.362626
    134          1           0        8.910044    3.438262    4.742774
    135          1           0       10.208202    2.018406    6.808599
    136          1           0       10.627317    3.599192    6.143249
    137          1           0       11.462464    2.118147    5.605222
    138          1           0        7.829064    1.044484    4.382821
    139          1           0        7.419576    2.088687    5.797594
    140          1           0        8.572674    0.728368    5.901387
 ---------------------------------------------------------------------

 SCF Done:  E(RwB97XD) =  -3007.82075113     A.U. after   20 cycles

 Excitation energies and oscillator strengths:

 Excited State   1:      Singlet-A      1.7158 eV  722.61 nm  f=0.3619  <S**2>=0.000
     245 -> 248        0.19993
     246 -> 247        0.67901
     245 <- 248        0.11691
 This state for optimization and/or second-order correction.
 Total Energy, E(TD-HF/TD-DFT) =  -3007.75769744
 Copying the excited state density for this state as the 1-particle RhoCI density.

 Excited State   2:      Singlet-A      2.2074 eV  561.67 nm  f=0.0483  <S**2>=0.000
     245 -> 247        0.60713
     246 -> 248       -0.35070

 Excited State   3:      Singlet-A      3.4286 eV  361.62 nm  f=0.6270  <S**2>=0.000
     240 -> 247        0.11421
     242 -> 247        0.23823
     245 -> 247        0.30255
     246 -> 248        0.56537
     245 <- 247       -0.10957

 Excited State   4:      Singlet-A      3.6620 eV  338.57 nm  f=0.0988  <S**2>=0.000
     241 -> 247        0.24181
     241 -> 249       -0.22162
     241 -> 250        0.13920
     242 -> 247       -0.22126
     243 -> 247        0.39195
     244 -> 247       -0.31636
     245 -> 247        0.11850
     246 -> 248        0.16195

 Excited State   5:      Singlet-A      3.6813 eV  336.79 nm  f=0.0525  <S**2>=0.000
     241 -> 247        0.42957
     241 -> 249       -0.34238
     241 -> 250        0.21217
     242 -> 247        0.16605
     243 -> 247       -0.21559
     244 -> 247        0.18295
     246 -> 248       -0.11873

 The electronic state is 1-A.
 Alpha  occ. eigenvalues --  -46.95459 -19.31619 -19.29816 -19.25586 -19.25101
 Alpha  occ. eigenvalues --  -19.24028 -19.23581 -14.46939 -14.46838 -14.44191
 Alpha  occ. eigenvalues --  -14.43540 -10.44229 -10.43477 -10.40967 -10.39390
 Alpha  occ. eigenvalues --  -10.36284 -10.36141 -10.35796 -10.35098 -10.34734
 Alpha  occ. eigenvalues --  -10.34619 -10.34508 -10.34178 -10.33425 -10.33214
 Alpha  occ. eigenvalues --  -10.33020 -10.32732 -10.32638 -10.32250 -10.32064
 Alpha  occ. eigenvalues --  -10.31812 -10.31641 -10.31613 -10.31608 -10.31545
 Alpha  occ. eigenvalues --  -10.31489 -10.31335 -10.31140 -10.31084 -10.30986
 Alpha  occ. eigenvalues --  -10.30687 -10.30303 -10.30224 -10.30061 -10.29946
 Alpha  occ. eigenvalues --  -10.29875 -10.29689 -10.29688 -10.29382 -10.29370
 Alpha  occ. eigenvalues --  -10.29341 -10.29302 -10.29275 -10.29145 -10.29105
 Alpha  occ. eigenvalues --  -10.29063 -10.28859 -10.28845 -10.28737 -10.28698
 Alpha  occ. eigenvalues --  -10.28670 -10.28615 -10.28499 -10.28483 -10.28433
 Alpha  occ. eigenvalues --  -10.28340  -3.21453  -1.95021  -1.94570  -1.94424
 Alpha  occ. eigenvalues --   -1.17965  -1.15870  -1.13126  -1.10950  -1.09779
 Alpha  occ. eigenvalues --   -1.07986  -1.06191  -1.06078  -1.04465  -1.03341
 Alpha  occ. eigenvalues --   -0.94798  -0.93257  -0.92020  -0.90844  -0.90785
 Alpha  occ. eigenvalues --   -0.90370  -0.90051  -0.89542  -0.89172  -0.88915
 Alpha  occ. eigenvalues --   -0.88031  -0.86911  -0.86357  -0.86067  -0.85282
 Alpha  occ. eigenvalues --   -0.84688  -0.84198  -0.83583  -0.83137  -0.82770
 Alpha  occ. eigenvalues --   -0.82361  -0.80391  -0.79503  -0.79369  -0.78120
 Alpha  occ. eigenvalues --   -0.77978  -0.77386  -0.77274  -0.76848  -0.76149
 Alpha  occ. eigenvalues --   -0.75224  -0.74370  -0.73604  -0.72183  -0.71205
 Alpha  occ. eigenvalues --   -0.70621  -0.70376  -0.69129  -0.68926  -0.67714
 Alpha  occ. eigenvalues --   -0.67547  -0.67477  -0.66932  -0.66771  -0.65767
 Alpha  occ. eigenvalues --   -0.65220  -0.64963  -0.64831  -0.64341  -0.62556
 Alpha  occ. eigenvalues --   -0.61735  -0.61542  -0.61092  -0.60750  -0.60226
 Alpha  occ. eigenvalues --   -0.59757  -0.58827  -0.58291  -0.57937  -0.57476
 Alpha  occ. eigenvalues --   -0.57331  -0.56898  -0.56658  -0.56459  -0.55879
 Alpha  occ. eigenvalues --   -0.55613  -0.55531  -0.55388  -0.55029  -0.54791
 Alpha  occ. eigenvalues --   -0.54531  -0.54356  -0.54210  -0.54084  -0.53717
 Alpha  occ. eigenvalues --   -0.53567  -0.53452  -0.53156  -0.52946  -0.52665
 Alpha  occ. eigenvalues --   -0.52593  -0.52303  -0.52017  -0.51970  -0.51587
 Alpha  occ. eigenvalues --   -0.51463  -0.51382  -0.50989  -0.50832  -0.50594
 Alpha  occ. eigenvalues --   -0.50336  -0.50110  -0.49802  -0.49705  -0.49597
 Alpha  occ. eigenvalues --   -0.49574  -0.49458  -0.49126  -0.48837  -0.48644
 Alpha  occ. eigenvalues --   -0.48543  -0.48326  -0.48280  -0.48125  -0.48048
 Alpha  occ. eigenvalues --   -0.47952  -0.47655  -0.47274  -0.47110  -0.46589
 Alpha  occ. eigenvalues --   -0.46374  -0.46311  -0.46032  -0.45796  -0.45560
 Alpha  occ. eigenvalues --   -0.45411  -0.45309  -0.45249  -0.45078  -0.45004
 Alpha  occ. eigenvalues --   -0.44666  -0.44407  -0.44203  -0.44149  -0.43907
 Alpha  occ. eigenvalues --   -0.43841  -0.43360  -0.43203  -0.43056  -0.42993
 Alpha  occ. eigenvalues --   -0.42908  -0.42642  -0.42549  -0.42163  -0.42144
 Alpha  occ. eigenvalues --   -0.42048  -0.41823  -0.41411  -0.40907  -0.40524
 Alpha  occ. eigenvalues --   -0.40033  -0.39801  -0.39582  -0.39455  -0.39417
 Alpha  occ. eigenvalues --   -0.39189  -0.39156  -0.38957  -0.38947  -0.38263
 Alpha  occ. eigenvalues --   -0.38099  -0.37238  -0.36557  -0.36507  -0.36239
 Alpha  occ. eigenvalues --   -0.35921  -0.35750  -0.34561  -0.33937  -0.33767
 Alpha  occ. eigenvalues --   -0.33069  -0.32440  -0.32097  -0.32064  -0.26019
 Alpha  occ. eigenvalues --   -0.22728
 Alpha virt. eigenvalues --   -0.06382  -0.00317   0.02111   0.03883   0.04810
 Alpha virt. eigenvalues --    0.05052   0.05727   0.06632   0.07804   0.09684
 Alpha virt. eigenvalues --    0.10700   0.10833   0.11153   0.12130   0.12474

 Mulliken charges:
               1
     1  Mg   0.969872
     2  C   -0.070929
     3  C   -0.086286
     4  C   -0.065415
     5  C   -0.135157
     6  N   -0.333767
     7  C    0.003039
     8  C   -0.048187
     9  C   -0.123207
    10  C    0.085540
    11  C    0.001176
    12  C    0.024543
    13  C   -0.004997
    14  C    0.219240
    15  O   -0.335879
    16  O   -0.371811
    17  N   -0.469450
    18  C    0.164244
    19  C   -0.150541
    20  C   -0.053716
    21  C    0.145567
    22  C    0.055802
    23  C    0.102177
    24  O   -0.229947
    25  C   -0.027672
    26  N   -0.405953
    27  C    0.077134
    28  C   -0.110642
    29  C   -0.122672
    30  C    0.056122
    31  C    0.034945
    32  C    0.002059
    33  C   -0.055195
    34  N   -0.362240
    35  C    0.205778
    36  C   -0.208692
    37  C   -0.028605
    38  C    0.130434
    39  C    0.082912
    40  C    0.160684
    41  O   -0.222861
    42  C   -0.029288
    43  C    0.273006
    44  O   -0.253990
    45  O   -0.373771
    46  C    0.133685
    47  C    0.279458
    48  C   -0.144720
    49  C   -0.196307
    50  C    0.006958
    51  C    0.044549
    52  C   -0.035734
    53  C    0.024443
    54  C   -0.207850
    55  C    0.012454
    56  C   -0.038935
    57  C    0.019893
    58  C    0.062551
    59  C   -0.267810
    60  C    0.020029
    61  C    0.029093
    62  C   -0.009646
    63  C   -0.034493
    64  C   -0.208273
    65  C   -0.005235
    66  C   -0.003396
    67  H   -0.007072
    68  H    0.026565
    69  H    0.004929
    70  H    0.044527
    71  H    0.049724
    72  H    0.041524
    73  H    0.044043
    74  H    0.036197
    75  H    0.052682
    76  H    0.039572
    77  H    0.068048
    78  H    0.036327
    79  H    0.059178
    80  H    0.015901
    81  H    0.045915
    82  H    0.051260
    83  H    0.049140
    84  H    0.074790
    85  H    0.037465
    86  H    0.033309
    87  H    0.029049
    88  H    0.039345
    89  H    0.045454
    90  H    0.027551
    91  H    0.040249
    92  H    0.003976
    93  H    0.044747
    94  H    0.027600
    95  H    0.059145
    96  H    0.029455
    97  H    0.056957
    98  H    0.055665
    99  H    0.063239
   100  H    0.054200
   101  H    0.051628
   102  H    0.057102
   103  H    0.034447
   104  H    0.038574
   105  H    0.045431
   106  H    0.039513
   107  H    0.052298
   108  H    0.003874
   109  H    0.043783
   110  H    0.020370
   111  H    0.033089
   112  H    0.012363
   113  H    0.002986
   114  H    0.005861
   115  H    0.028060
   116  H    0.028951
   117  H    0.030157
   118  H   -0.011065
   119  H    0.010722
   120  H    0.017435
   121  H    0.036221
   122  H    0.021748
   123  H    0.028379
   124  H    0.018429
   125  H    0.024963
   126  H    0.044080
   127  H    0.018001
   128  H    0.012611
   129  H    0.012332
   130  H    0.025884
   131  H    0.023456
   132  H    0.021804
   133  H    0.005706
   134  H    0.018401
   135  H    0.020532
   136  H    0.033162
   137  H    0.031370
   138  H    0.014905
   139  H    0.042329
   140  H    0.025333
 Sum of Mulliken charges =  -0.00000

 Dipole moment (field-independent basis, Debye):
    X=              5.3131    Y=              4.4718    Z=             -0.1235  Tot=              6.9456
 Quadrupole moment (field-independent basis, Debye-Ang):
   XX=           -378.8550   YY=           -415.7301   ZZ=           -415.0819
   XY=            -18.6520   XZ=             18.5228   YZ=             -6.5545

 Normal termination of Gaussian 16 at Wed May  4 04:02:41 2022.
