 Gaussian 16, Revision A.03,
 Gaussian 16:  ES64L-G16RevA.03 25-Dec-2016

 --------------------
 #p ZINDO=(nstates=5)
 --------------------

 ------------------------------
 step_1301_chromophore_27 ZINDO
 ------------------------------
 Symbolic Z-matrix:
 Charge =  0 Multiplicity = 1

                         Standard orientation:
 ---------------------------------------------------------------------
 Center     Atomic      Atomic             Coordinates (Angstroms)
 Number     Number       Type             X           Y           Z
 ---------------------------------------------------------------------
      1         12           0       -4.285104    0.851706   -0.294808
      2          6           0       -3.570656   -2.450066    0.704997
      3          6           0       -0.853222    1.562347    0.198538
      4          6           0       -4.927586    4.160717   -0.419165
      5          6           0       -7.615071   -0.009994   -0.200774
      6          7           0       -2.461482   -0.319342    0.491300
      7          6           0       -2.443042   -1.672590    0.652198
      8          6           0       -1.035880   -2.280261    0.611377
      9          6           0       -0.094338   -0.971370    0.600809
     10          6           0       -1.160420    0.190154    0.416379
     11          6           0        0.640200   -0.793602    2.040097
     12          6           0       -0.801985   -3.131879   -0.730274
     13          6           0       -0.151663   -4.528770   -0.635967
     14          6           0        1.074548   -4.866092   -1.554158
     15          8           0        0.976530   -4.993191   -2.832948
     16          8           0        2.291100   -5.036919   -0.926045
     17          7           0       -3.057651    2.615486   -0.180329
     18          6           0       -1.676727    2.691434    0.112788
     19          6           0       -1.363004    4.135269    0.135169
     20          6           0       -2.488495    4.880895   -0.050298
     21          6           0       -3.567326    3.923151   -0.218607
     22          6           0        0.065892    4.580083    0.401786
     23          6           0       -2.728529    6.445816   -0.014300
     24          8           0       -3.827366    6.899865   -0.316614
     25          6           0       -1.570679    7.396223    0.214740
     26          7           0       -5.975136    1.898499   -0.430344
     27          6           0       -6.015404    3.219488   -0.502242
     28          6           0       -7.444436    3.765469   -0.504618
     29          6           0       -8.248697    2.433201   -0.832047
     30          6           0       -7.213791    1.318326   -0.546242
     31          6           0       -7.976076    4.405670    0.770694
     32          6           0       -8.677145    2.365783   -2.312055
     33          6           0      -10.161009    2.630435   -2.528278
     34          7           0       -5.495821   -0.814973    0.242332
     35          6           0       -6.770673   -0.974200    0.178853
     36          6           0       -7.090360   -2.325200    0.600382
     37          6           0       -5.873910   -2.992962    0.737470
     38          6           0       -4.897943   -1.993046    0.491721
     39          6           0       -8.443342   -2.977389    0.812130
     40          6           0       -5.229104   -4.222810    1.127625
     41          8           0       -5.691859   -5.334568    1.430421
     42          6           0       -3.675527   -3.946485    1.073601
     43          6           0       -3.035155   -4.217407    2.424071
     44          8           0       -3.407558   -3.662353    3.481404
     45          8           0       -2.013884   -5.160307    2.263639
     46          6           0       -1.508528   -5.791393    3.462168
     47          6           0        3.555382   -5.074215   -1.733982
     48          6           0        4.010332   -3.689990   -2.079742
     49          6           0        5.066719   -2.977944   -1.560778
     50          6           0        5.796295   -3.330030   -0.267973
     51          6           0        5.276483   -1.569022   -1.966732
     52          6           0        5.581180   -1.480370   -3.448790
     53          6           0        7.007509   -1.022358   -3.814236
     54          6           0        7.147930    0.384715   -4.363958
     55          6           0        7.176083    0.415075   -5.887193
     56          6           0        8.419402    1.017782   -3.669353
     57          6           0        8.172042    1.813702   -2.400822
     58          6           0        9.469680    1.963248   -1.603585
     59          6           0        9.180967    1.576843   -0.131992
     60          6           0        9.334001    0.068406    0.141205
     61          6           0       10.022433    2.461058    0.903962
     62          6           0        9.259626    2.698238    2.234656
     63          6           0       10.008157    2.108375    3.436137
     64          6           0        9.381704    2.456854    4.812592
     65          6           0       10.503020    2.543892    5.901042
     66          6           0        8.205261    1.542393    5.275923
     67          1           0        0.210360    1.809809    0.196374
     68          1           0       -5.290814    5.190067   -0.448450
     69          1           0       -8.699197   -0.109501   -0.284729
     70          1           0       -0.883374   -2.955344    1.453496
     71          1           0        0.764419   -0.984141   -0.069380
     72          1           0        0.264868    0.103188    2.532136
     73          1           0        1.725488   -0.711351    1.989553
     74          1           0        0.296057   -1.647906    2.623247
     75          1           0       -0.348971   -2.628426   -1.584300
     76          1           0       -1.788040   -3.427400   -1.089777
     77          1           0       -0.781376   -5.393736   -0.844859
     78          1           0        0.139191   -4.729780    0.395413
     79          1           0        0.493142    5.346395   -0.245752
     80          1           0        0.724761    3.718071    0.500356
     81          1           0        0.174553    4.930361    1.427899
     82          1           0       -0.801993    7.146373    0.945527
     83          1           0       -1.767506    8.401782    0.587926
     84          1           0       -1.270919    7.575587   -0.818466
     85          1           0       -7.684310    4.515557   -1.257708
     86          1           0       -9.112760    2.296674   -0.180185
     87          1           0       -8.771946    3.799476    1.204379
     88          1           0       -8.434492    5.357226    0.502617
     89          1           0       -7.161746    4.494638    1.489462
     90          1           0       -8.499360    1.343824   -2.646855
     91          1           0       -8.199962    3.013558   -3.047807
     92          1           0      -10.527496    2.733936   -1.507358
     93          1           0      -10.813930    1.921933   -3.039388
     94          1           0      -10.392673    3.602551   -2.962932
     95          1           0       -8.339399   -4.043134    0.610632
     96          1           0       -9.210434   -2.548793    0.168322
     97          1           0       -8.750574   -2.838124    1.849041
     98          1           0       -3.099343   -4.476209    0.314127
     99          1           0       -2.246282   -6.344582    4.044106
    100          1           0       -0.951045   -5.183271    4.175163
    101          1           0       -0.816236   -6.504185    3.014019
    102          1           0        3.423603   -5.702421   -2.614525
    103          1           0        4.303234   -5.575763   -1.120750
    104          1           0        3.548114   -3.242640   -2.959140
    105          1           0        6.770875   -3.644065   -0.643973
    106          1           0        5.396967   -4.170446    0.300249
    107          1           0        5.923888   -2.503069    0.430572
    108          1           0        6.115175   -1.133916   -1.424370
    109          1           0        4.469041   -0.906105   -1.656666
    110          1           0        4.847407   -0.810705   -3.897036
    111          1           0        5.486348   -2.464661   -3.908978
    112          1           0        7.497499   -1.662520   -4.546992
    113          1           0        7.572555   -1.180866   -2.895452
    114          1           0        6.242956    0.966128   -4.187580
    115          1           0        6.679494    1.317776   -6.240745
    116          1           0        6.588688   -0.418056   -6.273888
    117          1           0        8.210293    0.410849   -6.231510
    118          1           0        8.696276    1.710516   -4.464104
    119          1           0        9.282381    0.358467   -3.760209
    120          1           0        7.445751    1.175709   -1.896946
    121          1           0        7.733659    2.724397   -2.809774
    122          1           0        9.736399    3.020641   -1.601096
    123          1           0       10.264323    1.291648   -1.928477
    124          1           0        8.130264    1.695855    0.133166
    125          1           0       10.102211   -0.060230    0.902519
    126          1           0        9.425841   -0.403615   -0.837491
    127          1           0        8.445789   -0.178966    0.721539
    128          1           0       10.341681    3.385193    0.422547
    129          1           0       10.959260    1.918415    1.031766
    130          1           0        8.228139    2.346106    2.267314
    131          1           0        9.340473    3.765363    2.442829
    132          1           0       11.067203    2.367660    3.415517
    133          1           0       10.011630    1.020678    3.362626
    134          1           0        8.910044    3.438262    4.742774
    135          1           0       10.208202    2.018406    6.808599
    136          1           0       10.627317    3.599192    6.143249
    137          1           0       11.462464    2.118147    5.605222
    138          1           0        7.829064    1.044484    4.382821
    139          1           0        7.419576    2.088687    5.797594
    140          1           0        8.572674    0.728368    5.901387
 ---------------------------------------------------------------------

 SCF Done:  E(RZINDO/S) =  -474.040962261     A.U. after   20 cycles

 Excitation energies and oscillator strengths:

 Excited State   1:      Singlet-A      1.3025 eV  951.90 nm  f=0.5687  <S**2>=0.000
     175 ->178        -0.20046
     176 ->177         0.66172
 This state for optimization and/or second-order correction.
 Total Energy, E(CIS/TDA) =  -473.993096711
 Copying the excited state density for this state as the 1-particle RhoCI density.

 Excited State   2:      Singlet-A      1.9141 eV  647.75 nm  f=0.0006  <S**2>=0.000
     175 ->177         0.48846
     176 ->178         0.49147

 Excited State   3:      Singlet-A      2.9616 eV  418.64 nm  f=0.0671  <S**2>=0.000
     176 ->179         0.61859
     176 ->181         0.12989
     176 ->182         0.16068
     176 ->183         0.12007

 Excited State   4:      Singlet-A      2.9811 eV  415.90 nm  f=0.0361  <S**2>=0.000
     176 ->179        -0.11800
     176 ->180         0.13569
     176 ->182         0.66661

 Excited State   5:      Singlet-A      3.0299 eV  409.20 nm  f=1.2966  <S**2>=0.000
     171 ->177         0.10486
     175 ->177        -0.45269
     176 ->178         0.46849
     176 ->179         0.12139

 The electronic state is 1-A.
 Alpha  occ. eigenvalues --   -1.87344  -1.81298  -1.77321  -1.71023  -1.69029
 Alpha  occ. eigenvalues --   -1.68382  -1.66758  -1.61751  -1.58520  -1.58240
 Alpha  occ. eigenvalues --   -1.56087  -1.52088  -1.48190  -1.47419  -1.46487
 Alpha  occ. eigenvalues --   -1.43826  -1.41071  -1.39941  -1.39337  -1.38352
 Alpha  occ. eigenvalues --   -1.35111  -1.32786  -1.32726  -1.31594  -1.30000
 Alpha  occ. eigenvalues --   -1.27883  -1.25415  -1.22699  -1.21608  -1.19029
 Alpha  occ. eigenvalues --   -1.16507  -1.15657  -1.15319  -1.14704  -1.14091
 Alpha  occ. eigenvalues --   -1.12406  -1.10827  -1.10453  -1.05271  -1.03455
 Alpha  occ. eigenvalues --   -1.02256  -1.01038  -0.98704  -0.97304  -0.96501
 Alpha  occ. eigenvalues --   -0.95443  -0.95108  -0.94383  -0.93239  -0.93104
 Alpha  occ. eigenvalues --   -0.91036  -0.90774  -0.89064  -0.87810  -0.87114
 Alpha  occ. eigenvalues --   -0.86846  -0.84127  -0.83720  -0.82243  -0.81159
 Alpha  occ. eigenvalues --   -0.80220  -0.78616  -0.78273  -0.77950  -0.76865
 Alpha  occ. eigenvalues --   -0.75932  -0.75529  -0.75267  -0.74343  -0.73877
 Alpha  occ. eigenvalues --   -0.73674  -0.72252  -0.72167  -0.71713  -0.70962
 Alpha  occ. eigenvalues --   -0.70435  -0.70269  -0.69382  -0.68302  -0.68131
 Alpha  occ. eigenvalues --   -0.67736  -0.67190  -0.66924  -0.66687  -0.65312
 Alpha  occ. eigenvalues --   -0.65263  -0.65214  -0.64231  -0.63697  -0.63421
 Alpha  occ. eigenvalues --   -0.63362  -0.62790  -0.62528  -0.62161  -0.61891
 Alpha  occ. eigenvalues --   -0.61743  -0.61453  -0.60945  -0.60447  -0.60257
 Alpha  occ. eigenvalues --   -0.59758  -0.59635  -0.59335  -0.59213  -0.59121
 Alpha  occ. eigenvalues --   -0.57967  -0.57580  -0.57310  -0.56813  -0.56245
 Alpha  occ. eigenvalues --   -0.55989  -0.55551  -0.55278  -0.54840  -0.54450
 Alpha  occ. eigenvalues --   -0.53758  -0.53592  -0.53522  -0.53145  -0.53037
 Alpha  occ. eigenvalues --   -0.52814  -0.52617  -0.52548  -0.52026  -0.51678
 Alpha  occ. eigenvalues --   -0.51531  -0.51007  -0.50648  -0.50452  -0.50244
 Alpha  occ. eigenvalues --   -0.50003  -0.49893  -0.49447  -0.49220  -0.48703
 Alpha  occ. eigenvalues --   -0.48551  -0.48408  -0.48182  -0.48050  -0.47904
 Alpha  occ. eigenvalues --   -0.47631  -0.47083  -0.47018  -0.46781  -0.46556
 Alpha  occ. eigenvalues --   -0.46352  -0.46028  -0.45722  -0.45538  -0.45417
 Alpha  occ. eigenvalues --   -0.45241  -0.45001  -0.44955  -0.44330  -0.44248
 Alpha  occ. eigenvalues --   -0.43942  -0.43368  -0.42512  -0.42129  -0.41680
 Alpha  occ. eigenvalues --   -0.41666  -0.41383  -0.41143  -0.39302  -0.38802
 Alpha  occ. eigenvalues --   -0.38678  -0.36945  -0.36321  -0.35598  -0.35196
 Alpha  occ. eigenvalues --   -0.34372  -0.32608  -0.32322  -0.32152  -0.26868
 Alpha  occ. eigenvalues --   -0.21561
 Alpha virt. eigenvalues --   -0.07925  -0.02631  -0.00661   0.00791   0.00908
 Alpha virt. eigenvalues --    0.01054   0.01786   0.02538   0.03443   0.04395
 Alpha virt. eigenvalues --    0.05886   0.06310   0.07084   0.07224   0.08019

 Mulliken charges:
               1
     1  Mg   0.432586
     2  C   -0.044073
     3  C   -0.074912
     4  C   -0.066647
     5  C   -0.052918
     6  N   -0.293596
     7  C    0.117937
     8  C    0.004087
     9  C   -0.006740
    10  C    0.141416
    11  C   -0.063492
    12  C   -0.026526
    13  C    0.011238
    14  C    0.459705
    15  O   -0.544485
    16  O   -0.267599
    17  N   -0.354452
    18  C    0.117417
    19  C    0.026924
    20  C   -0.023090
    21  C    0.134720
    22  C   -0.053355
    23  C    0.336116
    24  O   -0.510256
    25  C   -0.033832
    26  N   -0.236797
    27  C    0.152655
    28  C   -0.002140
    29  C   -0.003627
    30  C    0.079530
    31  C   -0.048389
    32  C   -0.024576
    33  C   -0.067552
    34  N   -0.296530
    35  C    0.119329
    36  C    0.019955
    37  C   -0.057097
    38  C    0.094615
    39  C   -0.041249
    40  C    0.342557
    41  O   -0.524962
    42  C    0.050902
    43  C    0.483391
    44  O   -0.518104
    45  O   -0.269884
    46  C    0.077970
    47  C    0.117674
    48  C   -0.081079
    49  C   -0.003401
    50  C   -0.046404
    51  C   -0.012964
    52  C   -0.031960
    53  C   -0.034633
    54  C   -0.016031
    55  C   -0.054989
    56  C   -0.048683
    57  C   -0.030872
    58  C   -0.029495
    59  C   -0.032373
    60  C   -0.068485
    61  C   -0.042743
    62  C   -0.033609
    63  C   -0.030328
    64  C   -0.016168
    65  C   -0.060152
    66  C   -0.057164
    67  H    0.020006
    68  H    0.048381
    69  H    0.030547
    70  H    0.046255
    71  H    0.042775
    72  H    0.023406
    73  H    0.025882
    74  H    0.026126
    75  H    0.040445
    76  H    0.020182
    77  H    0.048641
    78  H    0.026204
    79  H    0.033758
    80  H    0.021613
    81  H    0.024539
    82  H    0.034452
    83  H    0.034744
    84  H    0.050273
    85  H    0.032989
    86  H    0.035022
    87  H    0.019779
    88  H    0.022498
    89  H    0.027318
    90  H    0.014891
    91  H    0.027993
    92  H    0.008855
    93  H    0.026370
    94  H    0.013847
    95  H    0.035117
    96  H    0.020292
    97  H    0.036153
    98  H    0.052940
    99  H    0.049457
   100  H    0.045272
   101  H    0.022339
   102  H    0.054782
   103  H    0.033129
   104  H    0.035229
   105  H    0.026021
   106  H    0.020111
   107  H    0.027681
   108  H    0.011163
   109  H    0.026259
   110  H    0.016976
   111  H    0.020628
   112  H    0.015651
   113  H    0.010938
   114  H    0.017546
   115  H    0.012782
   116  H    0.018597
   117  H    0.021934
   118  H   -0.005410
   119  H    0.027742
   120  H    0.024811
   121  H    0.031005
   122  H    0.020769
   123  H    0.032603
   124  H    0.015692
   125  H    0.025576
   126  H    0.035100
   127  H    0.013647
   128  H    0.016831
   129  H    0.017818
   130  H    0.031974
   131  H    0.016155
   132  H    0.019127
   133  H    0.010781
   134  H    0.014920
   135  H    0.015807
   136  H    0.016188
   137  H    0.022079
   138  H    0.013049
   139  H    0.024767
   140  H    0.017868
 Sum of Mulliken charges =  -0.00000

 Dipole moment (field-independent basis, Debye):
    X=              7.2353    Y=              5.1411    Z=             -0.2734  Tot=              8.8801
 N-N= 4.436898666071D+03 E-N= 0.000000000000D+00  KE=-9.547381149342D+03
 Leave Link  601 at Wed May  4 04:15:03 2022, MaxMem=  6710886400 cpu:               0.8 elap:               0.0
 (Enter /sw/apps/gaussian-16.0/g16/l9999.exe)
 1\1\GINC-BP1-COMPUTE101\SP\RZINDO CIS\STO-3G\C55H74Mg1N4O6\OF15641\04-
 May-2022\0\\#p ZINDO=(nstates=5)\\step_1301_chromophore_27 ZINDO\\0,1\
 Mg,0,-5.504,25.418,27.364\C,0,-3.509,27.235,29.629\C,0,-6.123,23.14,30
 .001\C,0,-6.735,23.173,25.168\C,0,-4.325,27.507,24.897\N,0,-4.771,25.1
 82,29.537\C,0,-4.113,26.158,30.224\C,0,-4.24,26.034,31.747\C,0,-4.967,
 24.605,31.918\C,0,-5.332,24.248,30.415\C,0,-3.916,23.502,32.485\C,0,-5
 .168,27.195,32.356\C,0,-4.698,27.958,33.613\C,0,-5.672,28.094,34.835\O

 Normal termination of Gaussian 16 at Wed May  4 04:15:03 2022.
