 Gaussian 16, Revision A.03,
 Gaussian 16:  ES64L-G16RevA.03 25-Dec-2016

 ------------------------------
 #p blyp/Def2SVP td=(nstates=5)
 ------------------------------

 --------------------------------------------------
 step_101_chromophore_24 TDDFT with blyp functional
 --------------------------------------------------
 Symbolic Z-matrix:
 Charge =  0 Multiplicity = 1

                         Standard orientation:
 ---------------------------------------------------------------------
 Center     Atomic      Atomic             Coordinates (Angstroms)
 Number     Number       Type             X           Y           Z
 ---------------------------------------------------------------------
      1         12           0        5.360225    0.854789    0.420032
      2          6           0        3.934530   -2.315170    0.531897
      3          6           0        2.267518    2.197713   -0.205729
      4          6           0        6.899113    3.849683   -0.448350
      5          6           0        8.589681   -0.582598    0.601094
      6          7           0        3.309196    0.030396    0.341487
      7          6           0        3.009128   -1.316956    0.382670
      8          6           0        1.573047   -1.495442    0.161754
      9          6           0        1.037301   -0.018793   -0.162379
     10          6           0        2.266684    0.802564   -0.053905
     11          6           0        0.359340    0.038374   -1.543360
     12          6           0        0.761987   -2.192629    1.351972
     13          6           0       -0.450657   -3.133094    0.991909
     14          6           0       -1.001740   -3.259313   -0.421965
     15          8           0       -0.581397   -3.917001   -1.367410
     16          8           0       -2.211349   -2.565997   -0.450692
     17          7           0        4.627649    2.749934   -0.091300
     18          6           0        3.336053    3.135652   -0.234504
     19          6           0        3.223456    4.521334   -0.352969
     20          6           0        4.556721    4.994987   -0.562977
     21          6           0        5.453619    3.859352   -0.367410
     22          6           0        1.892560    5.281831   -0.422636
     23          6           0        4.977501    6.404472   -0.894943
     24          8           0        6.131376    6.735141   -0.887170
     25          6           0        3.936542    7.425276   -1.450980
     26          7           0        7.340813    1.518949    0.101533
     27          6           0        7.762483    2.756725   -0.265495
     28          6           0        9.268919    2.933085   -0.441795
     29          6           0        9.760188    1.617649    0.026621
     30          6           0        8.451771    0.795398    0.213109
     31          6           0        9.771367    3.415582   -1.854004
     32          6           0       10.689290    1.617434    1.266660
     33          6           0       10.266244    2.369224    2.568569
     34          7           0        6.200705   -1.099526    0.491885
     35          6           0        7.527549   -1.486587    0.626504
     36          6           0        7.518382   -2.975520    0.777306
     37          6           0        6.153299   -3.321431    0.751432
     38          6           0        5.365046   -2.152925    0.574209
     39          6           0        8.754177   -3.958697    0.834728
     40          6           0        5.227671   -4.408780    0.805016
     41          8           0        5.380369   -5.594274    0.864152
     42          6           0        3.778708   -3.812267    0.611009
     43          6           0        3.101317   -4.551231   -0.436217
     44          8           0        3.351129   -4.398050   -1.619413
     45          8           0        2.262267   -5.466065    0.118810
     46          6           0        1.684542   -6.438570   -0.750344
     47          6           0       -2.859593   -2.510075   -1.766893
     48          6           0       -4.305924   -2.382843   -1.482982
     49          6           0       -5.033871   -3.229666   -0.812532
     50          6           0       -4.526449   -4.530836   -0.093083
     51          6           0       -6.552004   -3.024184   -0.802933
     52          6           0       -7.150192   -2.461743    0.536685
     53          6           0       -7.205578   -0.907494    0.434087
     54          6           0       -8.595547   -0.354213    0.650149
     55          6           0       -8.617629    0.576278    1.842861
     56          6           0       -9.197234    0.316070   -0.593148
     57          6           0      -10.616561   -0.225272   -0.807547
     58          6           0      -11.253312    0.519122   -1.975769
     59          6           0      -12.751503    0.771692   -1.793121
     60          6           0      -13.465615    0.798006   -3.214502
     61          6           0      -12.983817    2.116350   -1.046365
     62          6           0      -13.715716    1.943381    0.217141
     63          6           0      -12.798425    2.025754    1.508984
     64          6           0      -13.148830    3.210262    2.340594
     65          6           0      -11.921769    3.634057    3.133852
     66          6           0      -14.333115    2.959890    3.311491
     67          1           0        1.254404    2.594703   -0.294881
     68          1           0        7.352434    4.771668   -0.816797
     69          1           0        9.634838   -0.898394    0.608181
     70          1           0        1.373553   -2.179537   -0.663505
     71          1           0        0.320223    0.417957    0.533708
     72          1           0        0.691184   -0.696145   -2.276389
     73          1           0        0.523592    1.012037   -2.005548
     74          1           0       -0.688812   -0.216291   -1.385789
     75          1           0        0.326710   -1.378343    1.930431
     76          1           0        1.476034   -2.613667    2.060261
     77          1           0       -1.260408   -2.842067    1.660402
     78          1           0       -0.071202   -4.125447    1.234792
     79          1           0        1.694202    5.649560   -1.429213
     80          1           0        1.987287    6.146058    0.234679
     81          1           0        0.986442    4.827604   -0.020162
     82          1           0        3.407238    7.924674   -0.639501
     83          1           0        3.316965    6.998027   -2.239602
     84          1           0        4.485007    8.079337   -2.128493
     85          1           0        9.596701    3.728851    0.226806
     86          1           0       10.364588    1.100423   -0.718121
     87          1           0        9.742775    2.504290   -2.450821
     88          1           0       10.737996    3.911375   -1.766560
     89          1           0        9.040474    4.098423   -2.288738
     90          1           0       11.647780    2.090199    1.051032
     91          1           0       10.891051    0.595741    1.589197
     92          1           0       10.619452    3.357480    2.863937
     93          1           0       10.559860    1.859598    3.487009
     94          1           0        9.187402    2.435964    2.713502
     95          1           0        8.722183   -4.426255    1.818642
     96          1           0        9.688725   -3.423300    0.669648
     97          1           0        8.727374   -4.687608    0.025004
     98          1           0        3.225083   -3.978704    1.534660
     99          1           0        2.489388   -6.861684   -1.350756
    100          1           0        1.001129   -5.941813   -1.438472
    101          1           0        1.188851   -7.201066   -0.149373
    102          1           0       -2.803330   -3.470369   -2.282073
    103          1           0       -2.479814   -1.676939   -2.358038
    104          1           0       -4.852924   -1.573262   -1.966309
    105          1           0       -3.505710   -4.788819   -0.376186
    106          1           0       -5.204696   -5.347358   -0.341739
    107          1           0       -4.537486   -4.363585    0.984024
    108          1           0       -7.030329   -3.993359   -0.941510
    109          1           0       -6.849880   -2.444443   -1.676453
    110          1           0       -6.467665   -2.647672    1.365436
    111          1           0       -8.079086   -2.899755    0.903099
    112          1           0       -6.862539   -0.556047   -0.538648
    113          1           0       -6.437019   -0.517301    1.101136
    114          1           0       -9.208997   -1.200150    0.961112
    115          1           0       -7.897286    0.191852    2.564634
    116          1           0       -9.610511    0.501860    2.287330
    117          1           0       -8.476622    1.621548    1.567676
    118          1           0       -8.730071    0.184615   -1.569512
    119          1           0       -9.237094    1.403281   -0.518052
    120          1           0      -11.271934   -0.257303    0.061937
    121          1           0      -10.474620   -1.221584   -1.226815
    122          1           0      -10.974910    0.030768   -2.910471
    123          1           0      -10.720659    1.448425   -2.182134
    124          1           0      -13.215320   -0.039467   -1.233163
    125          1           0      -14.547455    0.690478   -3.143481
    126          1           0      -12.945672    0.161960   -3.931570
    127          1           0      -13.219843    1.787839   -3.599141
    128          1           0      -13.604093    2.785225   -1.643598
    129          1           0      -12.099387    2.672906   -0.736453
    130          1           0      -14.327857    1.043622    0.274352
    131          1           0      -14.530915    2.640289    0.412018
    132          1           0      -11.746920    1.943758    1.233582
    133          1           0      -13.052296    1.102656    2.028492
    134          1           0      -13.585280    3.987658    1.712603
    135          1           0      -11.391298    2.780037    3.556971
    136          1           0      -12.203038    4.316067    3.936450
    137          1           0      -11.281068    4.256801    2.510538
    138          1           0      -15.199316    3.400620    2.818719
    139          1           0      -14.258495    3.427284    4.293110
    140          1           0      -14.673386    1.933234    3.450300
 ---------------------------------------------------------------------

 SCF Done:  E(RB-LYP) =  -3007.38336867     A.U. after   20 cycles

 Excitation energies and oscillator strengths:

 Excited State   1:      Singlet-A      1.7696 eV  700.64 nm  f=0.2845  <S**2>=0.000
     245 -> 248        0.17857
     246 -> 247        0.69067
     246 <- 247       -0.15979
 This state for optimization and/or second-order correction.
 Total Energy, E(TD-HF/TD-DFT) =  -3007.31833796
 Copying the excited state density for this state as the 1-particle RhoCI density.

 Excited State   2:      Singlet-A      1.9165 eV  646.93 nm  f=0.0184  <S**2>=0.000
     243 -> 247       -0.40326
     244 -> 247        0.50782
     245 -> 247       -0.25893

 Excited State   3:      Singlet-A      1.9254 eV  643.95 nm  f=0.0022  <S**2>=0.000
     243 -> 247        0.52567
     244 -> 247        0.46411

 Excited State   4:      Singlet-A      2.0081 eV  617.41 nm  f=0.0780  <S**2>=0.000
     241 -> 247        0.10515
     243 -> 247       -0.23463
     244 -> 247        0.15755
     245 -> 247        0.59074
     246 -> 248       -0.22451

 Excited State   5:      Singlet-A      2.4168 eV  513.01 nm  f=0.0028  <S**2>=0.000
     240 -> 247        0.27470
     242 -> 247        0.63630

 The electronic state is 1-A.
 Alpha  occ. eigenvalues --  -46.27118 -18.82588 -18.81327 -18.78386 -18.75598
 Alpha  occ. eigenvalues --  -18.75438 -18.75279 -14.03726 -14.03019 -14.00695
 Alpha  occ. eigenvalues --  -14.00688 -10.05169 -10.02571  -9.99648  -9.98969
 Alpha  occ. eigenvalues --   -9.97837  -9.96578  -9.96201  -9.96161  -9.96127
 Alpha  occ. eigenvalues --   -9.96008  -9.95937  -9.95927  -9.94944  -9.94630
 Alpha  occ. eigenvalues --   -9.94273  -9.94236  -9.94174  -9.93904  -9.93849
 Alpha  occ. eigenvalues --   -9.93499  -9.93453  -9.93353  -9.93345  -9.93337
 Alpha  occ. eigenvalues --   -9.93097  -9.92914  -9.92773  -9.92772  -9.92636
 Alpha  occ. eigenvalues --   -9.92581  -9.92542  -9.92461  -9.92354  -9.92229
 Alpha  occ. eigenvalues --   -9.92187  -9.92073  -9.92019  -9.91845  -9.91695
 Alpha  occ. eigenvalues --   -9.91649  -9.91637  -9.91186  -9.91067  -9.91045
 Alpha  occ. eigenvalues --   -9.90943  -9.90870  -9.90785  -9.90643  -9.90622
 Alpha  occ. eigenvalues --   -9.90620  -9.90554  -9.90543  -9.90444  -9.90427
 Alpha  occ. eigenvalues --   -9.90320  -2.91678  -1.72118  -1.71543  -1.71396
 Alpha  occ. eigenvalues --   -0.98088  -0.97510  -0.92731  -0.92352  -0.90678
 Alpha  occ. eigenvalues --   -0.89364  -0.87561  -0.86148  -0.85054  -0.84597
 Alpha  occ. eigenvalues --   -0.75339  -0.74088  -0.73564  -0.72980  -0.72872
 Alpha  occ. eigenvalues --   -0.72174  -0.71380  -0.71321  -0.70939  -0.69718
 Alpha  occ. eigenvalues --   -0.69294  -0.68676  -0.68339  -0.67537  -0.67272
 Alpha  occ. eigenvalues --   -0.66660  -0.65542  -0.64986  -0.64905  -0.64128
 Alpha  occ. eigenvalues --   -0.63922  -0.62411  -0.62236  -0.61776  -0.60563
 Alpha  occ. eigenvalues --   -0.60262  -0.60219  -0.59870  -0.59242  -0.59175
 Alpha  occ. eigenvalues --   -0.58470  -0.57716  -0.56911  -0.56197  -0.55572
 Alpha  occ. eigenvalues --   -0.54091  -0.53559  -0.52911  -0.52277  -0.51620
 Alpha  occ. eigenvalues --   -0.51302  -0.50965  -0.50564  -0.50497  -0.50232
 Alpha  occ. eigenvalues --   -0.49997  -0.49556  -0.49123  -0.47992  -0.46512
 Alpha  occ. eigenvalues --   -0.45995  -0.45738  -0.45550  -0.45195  -0.44153
 Alpha  occ. eigenvalues --   -0.44081  -0.43876  -0.43325  -0.42891  -0.42536
 Alpha  occ. eigenvalues --   -0.42117  -0.42081  -0.41810  -0.41438  -0.41026
 Alpha  occ. eigenvalues --   -0.40863  -0.40557  -0.40383  -0.40112  -0.39995
 Alpha  occ. eigenvalues --   -0.39696  -0.39481  -0.39281  -0.39207  -0.39005
 Alpha  occ. eigenvalues --   -0.38944  -0.38577  -0.38404  -0.38285  -0.37846
 Alpha  occ. eigenvalues --   -0.37800  -0.37722  -0.37461  -0.37377  -0.37256
 Alpha  occ. eigenvalues --   -0.37064  -0.36916  -0.36760  -0.36714  -0.36595
 Alpha  occ. eigenvalues --   -0.36535  -0.36113  -0.35772  -0.35642  -0.35463
 Alpha  occ. eigenvalues --   -0.35361  -0.35068  -0.34937  -0.34753  -0.34561
 Alpha  occ. eigenvalues --   -0.34506  -0.34195  -0.34160  -0.34121  -0.33864
 Alpha  occ. eigenvalues --   -0.33730  -0.33637  -0.33475  -0.33279  -0.33063
 Alpha  occ. eigenvalues --   -0.32946  -0.32892  -0.32549  -0.32407  -0.32143
 Alpha  occ. eigenvalues --   -0.31899  -0.31833  -0.31713  -0.31437  -0.31307
 Alpha  occ. eigenvalues --   -0.31257  -0.31080  -0.30926  -0.30844  -0.30759
 Alpha  occ. eigenvalues --   -0.30561  -0.30395  -0.30257  -0.30206  -0.30158
 Alpha  occ. eigenvalues --   -0.29898  -0.29719  -0.29193  -0.29063  -0.28780
 Alpha  occ. eigenvalues --   -0.28569  -0.28357  -0.28132  -0.28073  -0.27854
 Alpha  occ. eigenvalues --   -0.27683  -0.27385  -0.27055  -0.26706  -0.26408
 Alpha  occ. eigenvalues --   -0.26307  -0.26119  -0.25923  -0.25373  -0.25101
 Alpha  occ. eigenvalues --   -0.24831  -0.24737  -0.24109  -0.23758  -0.23673
 Alpha  occ. eigenvalues --   -0.23490  -0.23227  -0.21916  -0.20852  -0.20635
 Alpha  occ. eigenvalues --   -0.20569  -0.20036  -0.18591  -0.18550  -0.17223
 Alpha  occ. eigenvalues --   -0.15644
 Alpha virt. eigenvalues --   -0.11584  -0.06778  -0.05680  -0.04402  -0.04284
 Alpha virt. eigenvalues --   -0.02574  -0.01805  -0.01652  -0.01091   0.00282
 Alpha virt. eigenvalues --    0.01358   0.01774   0.02148   0.02737   0.03019

 Mulliken charges:
               1
     1  Mg   0.693850
     2  C    0.108166
     3  C   -0.082999
     4  C   -0.063459
     5  C   -0.091276
     6  N   -0.223693
     7  C   -0.066721
     8  C   -0.012371
     9  C    0.017067
    10  C    0.028487
    11  C    0.098590
    12  C    0.096127
    13  C    0.156412
    14  C    0.085219
    15  O   -0.183325
    16  O   -0.291700
    17  N   -0.296071
    18  C    0.151203
    19  C   -0.134152
    20  C    0.030963
    21  C    0.099076
    22  C    0.180650
    23  C   -0.089418
    24  O   -0.142312
    25  C    0.107705
    26  N   -0.181507
    27  C    0.013815
    28  C    0.037839
    29  C    0.066157
    30  C   -0.003595
    31  C    0.130954
    32  C    0.095957
    33  C    0.025947
    34  N   -0.265854
    35  C    0.143899
    36  C   -0.187625
    37  C    0.120991
    38  C    0.005222
    39  C    0.161046
    40  C   -0.078514
    41  O   -0.099184
    42  C    0.062243
    43  C    0.097218
    44  O   -0.185964
    45  O   -0.256942
    46  C    0.227168
    47  C    0.332392
    48  C   -0.106662
    49  C   -0.139559
    50  C    0.143109
    51  C    0.130240
    52  C    0.075017
    53  C    0.108594
    54  C   -0.040190
    55  C    0.114246
    56  C    0.074304
    57  C    0.054459
    58  C    0.090224
    59  C   -0.043546
    60  C    0.100054
    61  C    0.174669
    62  C    0.025571
    63  C    0.077353
    64  C   -0.062001
    65  C    0.114079
    66  C    0.085579
    67  H   -0.069447
    68  H   -0.037245
    69  H   -0.046806
    70  H    0.017152
    71  H   -0.016860
    72  H   -0.000085
    73  H   -0.010505
    74  H   -0.010126
    75  H   -0.035588
    76  H   -0.017610
    77  H   -0.001687
    78  H    0.007674
    79  H    0.005310
    80  H   -0.015101
    81  H   -0.010735
    82  H    0.020822
    83  H   -0.006772
    84  H   -0.014208
    85  H   -0.018467
    86  H   -0.035177
    87  H   -0.010473
    88  H    0.003623
    89  H   -0.003281
    90  H   -0.015986
    91  H   -0.018855
    92  H   -0.011422
    93  H   -0.024877
    94  H   -0.013990
    95  H    0.017521
    96  H   -0.022115
    97  H    0.017445
    98  H   -0.014722
    99  H    0.005094
   100  H    0.016599
   101  H    0.008094
   102  H    0.013529
   103  H   -0.001348
   104  H   -0.048542
   105  H   -0.008296
   106  H   -0.005568
   107  H    0.004029
   108  H   -0.042751
   109  H   -0.026189
   110  H   -0.036366
   111  H   -0.026511
   112  H   -0.043517
   113  H   -0.045855
   114  H   -0.034428
   115  H   -0.021548
   116  H   -0.019980
   117  H   -0.011920
   118  H   -0.037167
   119  H   -0.034661
   120  H   -0.010119
   121  H   -0.027293
   122  H   -0.057494
   123  H   -0.050865
   124  H   -0.029344
   125  H   -0.006564
   126  H   -0.021138
   127  H   -0.027365
   128  H   -0.042054
   129  H   -0.030230
   130  H   -0.051870
   131  H   -0.056921
   132  H   -0.017649
   133  H   -0.036971
   134  H   -0.033208
   135  H   -0.002724
   136  H   -0.031757
   137  H   -0.022170
   138  H   -0.027705
   139  H   -0.015623
   140  H   -0.024263
 Sum of Mulliken charges =  -0.00000

 Dipole moment (field-independent basis, Debye):
    X=             -3.3184    Y=              2.4541    Z=              1.9969  Tot=              4.5850
 Quadrupole moment (field-independent basis, Debye-Ang):
   XX=           -373.6221   YY=           -434.0951   ZZ=           -406.6843
   XY=             13.9499   XZ=              9.2450   YZ=             -6.0303

 Normal termination of Gaussian 16 at Wed Apr 27 01:33:14 2022.
