 Gaussian 16, Revision A.03,
 Gaussian 16:  ES64L-G16RevA.03 25-Dec-2016

 -----------------------------------
 #p cam-b3lyp/Def2SVP td=(nstates=5)
 -----------------------------------

 -------------------------------------------------------
 step_101_chromophore_24 TDDFT with cam-b3lyp functional
 -------------------------------------------------------
 Symbolic Z-matrix:
 Charge =  0 Multiplicity = 1

                         Standard orientation:
 ---------------------------------------------------------------------
 Center     Atomic      Atomic             Coordinates (Angstroms)
 Number     Number       Type             X           Y           Z
 ---------------------------------------------------------------------
      1         12           0        5.360225    0.854789    0.420032
      2          6           0        3.934530   -2.315170    0.531897
      3          6           0        2.267518    2.197713   -0.205729
      4          6           0        6.899113    3.849683   -0.448350
      5          6           0        8.589681   -0.582598    0.601094
      6          7           0        3.309196    0.030396    0.341487
      7          6           0        3.009128   -1.316956    0.382670
      8          6           0        1.573047   -1.495442    0.161754
      9          6           0        1.037301   -0.018793   -0.162379
     10          6           0        2.266684    0.802564   -0.053905
     11          6           0        0.359340    0.038374   -1.543360
     12          6           0        0.761987   -2.192629    1.351972
     13          6           0       -0.450657   -3.133094    0.991909
     14          6           0       -1.001740   -3.259313   -0.421965
     15          8           0       -0.581397   -3.917001   -1.367410
     16          8           0       -2.211349   -2.565997   -0.450692
     17          7           0        4.627649    2.749934   -0.091300
     18          6           0        3.336053    3.135652   -0.234504
     19          6           0        3.223456    4.521334   -0.352969
     20          6           0        4.556721    4.994987   -0.562977
     21          6           0        5.453619    3.859352   -0.367410
     22          6           0        1.892560    5.281831   -0.422636
     23          6           0        4.977501    6.404472   -0.894943
     24          8           0        6.131376    6.735141   -0.887170
     25          6           0        3.936542    7.425276   -1.450980
     26          7           0        7.340813    1.518949    0.101533
     27          6           0        7.762483    2.756725   -0.265495
     28          6           0        9.268919    2.933085   -0.441795
     29          6           0        9.760188    1.617649    0.026621
     30          6           0        8.451771    0.795398    0.213109
     31          6           0        9.771367    3.415582   -1.854004
     32          6           0       10.689290    1.617434    1.266660
     33          6           0       10.266244    2.369224    2.568569
     34          7           0        6.200705   -1.099526    0.491885
     35          6           0        7.527549   -1.486587    0.626504
     36          6           0        7.518382   -2.975520    0.777306
     37          6           0        6.153299   -3.321431    0.751432
     38          6           0        5.365046   -2.152925    0.574209
     39          6           0        8.754177   -3.958697    0.834728
     40          6           0        5.227671   -4.408780    0.805016
     41          8           0        5.380369   -5.594274    0.864152
     42          6           0        3.778708   -3.812267    0.611009
     43          6           0        3.101317   -4.551231   -0.436217
     44          8           0        3.351129   -4.398050   -1.619413
     45          8           0        2.262267   -5.466065    0.118810
     46          6           0        1.684542   -6.438570   -0.750344
     47          6           0       -2.859593   -2.510075   -1.766893
     48          6           0       -4.305924   -2.382843   -1.482982
     49          6           0       -5.033871   -3.229666   -0.812532
     50          6           0       -4.526449   -4.530836   -0.093083
     51          6           0       -6.552004   -3.024184   -0.802933
     52          6           0       -7.150192   -2.461743    0.536685
     53          6           0       -7.205578   -0.907494    0.434087
     54          6           0       -8.595547   -0.354213    0.650149
     55          6           0       -8.617629    0.576278    1.842861
     56          6           0       -9.197234    0.316070   -0.593148
     57          6           0      -10.616561   -0.225272   -0.807547
     58          6           0      -11.253312    0.519122   -1.975769
     59          6           0      -12.751503    0.771692   -1.793121
     60          6           0      -13.465615    0.798006   -3.214502
     61          6           0      -12.983817    2.116350   -1.046365
     62          6           0      -13.715716    1.943381    0.217141
     63          6           0      -12.798425    2.025754    1.508984
     64          6           0      -13.148830    3.210262    2.340594
     65          6           0      -11.921769    3.634057    3.133852
     66          6           0      -14.333115    2.959890    3.311491
     67          1           0        1.254404    2.594703   -0.294881
     68          1           0        7.352434    4.771668   -0.816797
     69          1           0        9.634838   -0.898394    0.608181
     70          1           0        1.373553   -2.179537   -0.663505
     71          1           0        0.320223    0.417957    0.533708
     72          1           0        0.691184   -0.696145   -2.276389
     73          1           0        0.523592    1.012037   -2.005548
     74          1           0       -0.688812   -0.216291   -1.385789
     75          1           0        0.326710   -1.378343    1.930431
     76          1           0        1.476034   -2.613667    2.060261
     77          1           0       -1.260408   -2.842067    1.660402
     78          1           0       -0.071202   -4.125447    1.234792
     79          1           0        1.694202    5.649560   -1.429213
     80          1           0        1.987287    6.146058    0.234679
     81          1           0        0.986442    4.827604   -0.020162
     82          1           0        3.407238    7.924674   -0.639501
     83          1           0        3.316965    6.998027   -2.239602
     84          1           0        4.485007    8.079337   -2.128493
     85          1           0        9.596701    3.728851    0.226806
     86          1           0       10.364588    1.100423   -0.718121
     87          1           0        9.742775    2.504290   -2.450821
     88          1           0       10.737996    3.911375   -1.766560
     89          1           0        9.040474    4.098423   -2.288738
     90          1           0       11.647780    2.090199    1.051032
     91          1           0       10.891051    0.595741    1.589197
     92          1           0       10.619452    3.357480    2.863937
     93          1           0       10.559860    1.859598    3.487009
     94          1           0        9.187402    2.435964    2.713502
     95          1           0        8.722183   -4.426255    1.818642
     96          1           0        9.688725   -3.423300    0.669648
     97          1           0        8.727374   -4.687608    0.025004
     98          1           0        3.225083   -3.978704    1.534660
     99          1           0        2.489388   -6.861684   -1.350756
    100          1           0        1.001129   -5.941813   -1.438472
    101          1           0        1.188851   -7.201066   -0.149373
    102          1           0       -2.803330   -3.470369   -2.282073
    103          1           0       -2.479814   -1.676939   -2.358038
    104          1           0       -4.852924   -1.573262   -1.966309
    105          1           0       -3.505710   -4.788819   -0.376186
    106          1           0       -5.204696   -5.347358   -0.341739
    107          1           0       -4.537486   -4.363585    0.984024
    108          1           0       -7.030329   -3.993359   -0.941510
    109          1           0       -6.849880   -2.444443   -1.676453
    110          1           0       -6.467665   -2.647672    1.365436
    111          1           0       -8.079086   -2.899755    0.903099
    112          1           0       -6.862539   -0.556047   -0.538648
    113          1           0       -6.437019   -0.517301    1.101136
    114          1           0       -9.208997   -1.200150    0.961112
    115          1           0       -7.897286    0.191852    2.564634
    116          1           0       -9.610511    0.501860    2.287330
    117          1           0       -8.476622    1.621548    1.567676
    118          1           0       -8.730071    0.184615   -1.569512
    119          1           0       -9.237094    1.403281   -0.518052
    120          1           0      -11.271934   -0.257303    0.061937
    121          1           0      -10.474620   -1.221584   -1.226815
    122          1           0      -10.974910    0.030768   -2.910471
    123          1           0      -10.720659    1.448425   -2.182134
    124          1           0      -13.215320   -0.039467   -1.233163
    125          1           0      -14.547455    0.690478   -3.143481
    126          1           0      -12.945672    0.161960   -3.931570
    127          1           0      -13.219843    1.787839   -3.599141
    128          1           0      -13.604093    2.785225   -1.643598
    129          1           0      -12.099387    2.672906   -0.736453
    130          1           0      -14.327857    1.043622    0.274352
    131          1           0      -14.530915    2.640289    0.412018
    132          1           0      -11.746920    1.943758    1.233582
    133          1           0      -13.052296    1.102656    2.028492
    134          1           0      -13.585280    3.987658    1.712603
    135          1           0      -11.391298    2.780037    3.556971
    136          1           0      -12.203038    4.316067    3.936450
    137          1           0      -11.281068    4.256801    2.510538
    138          1           0      -15.199316    3.400620    2.818719
    139          1           0      -14.258495    3.427284    4.293110
    140          1           0      -14.673386    1.933234    3.450300
 ---------------------------------------------------------------------

 SCF Done:  E(RCAM-B3LYP) =  -3007.18794920     A.U. after   19 cycles

 Excitation energies and oscillator strengths:

 Excited State   1:      Singlet-A      1.6469 eV  752.81 nm  f=0.3823  <S**2>=0.000
     245 -> 248        0.16950
     246 -> 247        0.68804
     245 <- 248        0.10753
 This state for optimization and/or second-order correction.
 Total Energy, E(TD-HF/TD-DFT) =  -3007.12742514
 Copying the excited state density for this state as the 1-particle RhoCI density.

 Excited State   2:      Singlet-A      2.2070 eV  561.77 nm  f=0.1198  <S**2>=0.000
     245 -> 247        0.63965
     246 -> 248       -0.28691

 Excited State   3:      Singlet-A      3.2662 eV  379.59 nm  f=0.0015  <S**2>=0.000
     244 -> 247        0.69030

 Excited State   4:      Singlet-A      3.4397 eV  360.45 nm  f=0.1000  <S**2>=0.000
     243 -> 247        0.58096
     245 -> 247        0.10369
     246 -> 248        0.35651

 Excited State   5:      Singlet-A      3.5102 eV  353.21 nm  f=0.1780  <S**2>=0.000
     241 -> 247        0.43402
     241 -> 249       -0.20028
     241 -> 251        0.12653
     242 -> 247        0.26650
     242 -> 249       -0.13072
     243 -> 247        0.11591
     245 -> 247       -0.14121
     246 -> 248       -0.30624

 The electronic state is 1-A.
 Alpha  occ. eigenvalues --  -46.88658 -19.25418 -19.24253 -19.21380 -19.18821
 Alpha  occ. eigenvalues --  -19.18562 -19.18555 -14.42680 -14.41778 -14.39134
 Alpha  occ. eigenvalues --  -14.39055 -10.40536 -10.37989 -10.34797 -10.34318
 Alpha  occ. eigenvalues --  -10.31849 -10.31072 -10.30678 -10.30527 -10.30480
 Alpha  occ. eigenvalues --  -10.30298 -10.30281 -10.29902 -10.29082 -10.29069
 Alpha  occ. eigenvalues --  -10.28995 -10.28183 -10.28152 -10.27922 -10.27733
 Alpha  occ. eigenvalues --  -10.27719 -10.27655 -10.27394 -10.27171 -10.27162
 Alpha  occ. eigenvalues --  -10.27115 -10.26962 -10.26844 -10.26771 -10.26667
 Alpha  occ. eigenvalues --  -10.26627 -10.26603 -10.26364 -10.26238 -10.26186
 Alpha  occ. eigenvalues --  -10.25885 -10.25823 -10.25752 -10.25721 -10.25493
 Alpha  occ. eigenvalues --  -10.25276 -10.25264 -10.24974 -10.24900 -10.24813
 Alpha  occ. eigenvalues --  -10.24697 -10.24554 -10.24494 -10.24227 -10.24198
 Alpha  occ. eigenvalues --  -10.24191 -10.24174 -10.24143 -10.24089 -10.24028
 Alpha  occ. eigenvalues --  -10.23955  -3.17117  -1.92035  -1.91559  -1.91420
 Alpha  occ. eigenvalues --   -1.16504  -1.16063  -1.11200  -1.10904  -1.08491
 Alpha  occ. eigenvalues --   -1.07383  -1.05320  -1.03837  -1.02650  -1.02039
 Alpha  occ. eigenvalues --   -0.92510  -0.90953  -0.90382  -0.89660  -0.89601
 Alpha  occ. eigenvalues --   -0.88856  -0.88005  -0.87925  -0.87532  -0.86270
 Alpha  occ. eigenvalues --   -0.85601  -0.85199  -0.84609  -0.83753  -0.83394
 Alpha  occ. eigenvalues --   -0.82708  -0.81513  -0.80890  -0.80735  -0.80035
 Alpha  occ. eigenvalues --   -0.79798  -0.78096  -0.77840  -0.77255  -0.75903
 Alpha  occ. eigenvalues --   -0.75614  -0.75577  -0.75143  -0.74498  -0.74414
 Alpha  occ. eigenvalues --   -0.73540  -0.72765  -0.71806  -0.71029  -0.70263
 Alpha  occ. eigenvalues --   -0.68789  -0.68089  -0.67354  -0.66633  -0.65777
 Alpha  occ. eigenvalues --   -0.65505  -0.64881  -0.64645  -0.64603  -0.64150
 Alpha  occ. eigenvalues --   -0.63787  -0.63535  -0.63012  -0.61722  -0.60143
 Alpha  occ. eigenvalues --   -0.59607  -0.59205  -0.58967  -0.58603  -0.57750
 Alpha  occ. eigenvalues --   -0.57423  -0.57241  -0.56696  -0.55996  -0.55841
 Alpha  occ. eigenvalues --   -0.55149  -0.54926  -0.54865  -0.54768  -0.53890
 Alpha  occ. eigenvalues --   -0.53665  -0.53492  -0.53017  -0.52882  -0.52607
 Alpha  occ. eigenvalues --   -0.52541  -0.52264  -0.52137  -0.51757  -0.51619
 Alpha  occ. eigenvalues --   -0.51404  -0.51065  -0.50917  -0.50719  -0.50417
 Alpha  occ. eigenvalues --   -0.50124  -0.49996  -0.49761  -0.49662  -0.49550
 Alpha  occ. eigenvalues --   -0.49448  -0.49308  -0.49145  -0.48946  -0.48764
 Alpha  occ. eigenvalues --   -0.48673  -0.48610  -0.48444  -0.47802  -0.47665
 Alpha  occ. eigenvalues --   -0.47452  -0.47159  -0.46832  -0.46758  -0.46573
 Alpha  occ. eigenvalues --   -0.46232  -0.46119  -0.45981  -0.45827  -0.45681
 Alpha  occ. eigenvalues --   -0.45603  -0.45411  -0.45162  -0.45058  -0.44842
 Alpha  occ. eigenvalues --   -0.44708  -0.44612  -0.44402  -0.44029  -0.43643
 Alpha  occ. eigenvalues --   -0.43502  -0.43431  -0.43154  -0.43057  -0.42862
 Alpha  occ. eigenvalues --   -0.42636  -0.42498  -0.42451  -0.42337  -0.42284
 Alpha  occ. eigenvalues --   -0.42010  -0.41795  -0.41736  -0.41431  -0.41300
 Alpha  occ. eigenvalues --   -0.41206  -0.40879  -0.40849  -0.40258  -0.40083
 Alpha  occ. eigenvalues --   -0.39579  -0.39467  -0.39106  -0.39037  -0.38777
 Alpha  occ. eigenvalues --   -0.38612  -0.38222  -0.37862  -0.37752  -0.37503
 Alpha  occ. eigenvalues --   -0.37366  -0.36869  -0.36862  -0.36222  -0.35763
 Alpha  occ. eigenvalues --   -0.35609  -0.35410  -0.35275  -0.35264  -0.34310
 Alpha  occ. eigenvalues --   -0.34048  -0.33455  -0.32840  -0.30909  -0.30685
 Alpha  occ. eigenvalues --   -0.30656  -0.30621  -0.29903  -0.29352  -0.24006
 Alpha  occ. eigenvalues --   -0.20869
 Alpha virt. eigenvalues --   -0.08797  -0.01520   0.00826   0.02562   0.02784
 Alpha virt. eigenvalues --    0.03374   0.05697   0.05938   0.06084   0.06759
 Alpha virt. eigenvalues --    0.08026   0.08283   0.08819   0.09189   0.09227

 Mulliken charges:
               1
     1  Mg   0.825483
     2  C    0.072659
     3  C   -0.095262
     4  C   -0.070364
     5  C   -0.093044
     6  N   -0.298876
     7  C   -0.017194
     8  C   -0.066397
     9  C   -0.040156
    10  C    0.052166
    11  C    0.045222
    12  C    0.049527
    13  C    0.088593
    14  C    0.159022
    15  O   -0.224244
    16  O   -0.353379
    17  N   -0.383080
    18  C    0.159561
    19  C   -0.142711
    20  C   -0.039655
    21  C    0.118461
    22  C    0.122985
    23  C   -0.010641
    24  O   -0.183418
    25  C    0.028183
    26  N   -0.252043
    27  C    0.026707
    28  C   -0.022254
    29  C    0.003799
    30  C    0.014435
    31  C    0.079723
    32  C    0.043329
    33  C   -0.036487
    34  N   -0.355198
    35  C    0.144533
    36  C   -0.178760
    37  C    0.035728
    38  C    0.049543
    39  C    0.119019
    40  C    0.022259
    41  O   -0.137780
    42  C   -0.011817
    43  C    0.183139
    44  O   -0.220764
    45  O   -0.319505
    46  C    0.182627
    47  C    0.296722
    48  C   -0.133592
    49  C   -0.157144
    50  C    0.091327
    51  C    0.069117
    52  C    0.018586
    53  C    0.056030
    54  C   -0.101755
    55  C    0.062223
    56  C    0.025325
    57  C    0.003007
    58  C    0.039923
    59  C   -0.106284
    60  C    0.044677
    61  C    0.113794
    62  C   -0.023909
    63  C    0.024835
    64  C   -0.124103
    65  C    0.054017
    66  C    0.026772
    67  H   -0.035567
    68  H    0.001992
    69  H   -0.013243
    70  H    0.046779
    71  H    0.017390
    72  H    0.025515
    73  H    0.015430
    74  H    0.010674
    75  H   -0.003674
    76  H    0.012578
    77  H    0.033061
    78  H    0.037679
    79  H    0.030517
    80  H    0.010386
    81  H    0.017990
    82  H    0.047985
    83  H    0.022147
    84  H    0.019976
    85  H    0.017480
    86  H    0.002191
    87  H    0.012597
    88  H    0.027165
    89  H    0.020906
    90  H    0.012618
    91  H    0.009385
    92  H    0.013010
    93  H    0.001201
    94  H    0.008723
    95  H    0.042520
    96  H    0.002383
    97  H    0.043439
    98  H    0.028601
    99  H    0.030017
   100  H    0.041200
   101  H    0.031830
   102  H    0.045035
   103  H    0.024056
   104  H   -0.014621
   105  H    0.013127
   106  H    0.018011
   107  H    0.026607
   108  H   -0.011545
   109  H    0.002542
   110  H   -0.007748
   111  H    0.002570
   112  H   -0.017175
   113  H   -0.013888
   114  H   -0.002556
   115  H    0.003501
   116  H    0.001177
   117  H    0.010368
   118  H   -0.008587
   119  H   -0.008393
   120  H    0.012563
   121  H    0.000769
   122  H   -0.026217
   123  H   -0.021578
   124  H    0.002142
   125  H    0.017881
   126  H    0.004002
   127  H   -0.004336
   128  H   -0.010161
   129  H   -0.002368
   130  H   -0.021550
   131  H   -0.026791
   132  H    0.004526
   133  H   -0.007999
   134  H   -0.000744
   135  H    0.019146
   136  H   -0.006208
   137  H    0.002587
   138  H   -0.004383
   139  H    0.009652
   140  H    0.000460
 Sum of Mulliken charges =  -0.00000

 Dipole moment (field-independent basis, Debye):
    X=             -3.3600    Y=              2.7551    Z=              2.0392  Tot=              4.7998
 Quadrupole moment (field-independent basis, Debye-Ang):
   XX=           -370.3377   YY=           -430.2173   ZZ=           -406.2089
   XY=             13.6588   XZ=              9.7957   YZ=             -7.5225

 Normal termination of Gaussian 16 at Wed Apr 27 00:35:49 2022.
