 Gaussian 16, Revision A.03,
 Gaussian 16:  ES64L-G16RevA.03 25-Dec-2016

 ---------------------------------
 #p PBE1PBE/Def2SVP td=(nstates=5)
 ---------------------------------

 -----------------------------------------------------
 step_101_chromophore_24 TDDFT with PBE1PBE functional
 -----------------------------------------------------
 Symbolic Z-matrix:
 Charge =  0 Multiplicity = 1

                         Standard orientation:
 ---------------------------------------------------------------------
 Center     Atomic      Atomic             Coordinates (Angstroms)
 Number     Number       Type             X           Y           Z
 ---------------------------------------------------------------------
      1         12           0        5.360225    0.854789    0.420032
      2          6           0        3.934530   -2.315170    0.531897
      3          6           0        2.267518    2.197713   -0.205729
      4          6           0        6.899113    3.849683   -0.448350
      5          6           0        8.589681   -0.582598    0.601094
      6          7           0        3.309196    0.030396    0.341487
      7          6           0        3.009128   -1.316956    0.382670
      8          6           0        1.573047   -1.495442    0.161754
      9          6           0        1.037301   -0.018793   -0.162379
     10          6           0        2.266684    0.802564   -0.053905
     11          6           0        0.359340    0.038374   -1.543360
     12          6           0        0.761987   -2.192629    1.351972
     13          6           0       -0.450657   -3.133094    0.991909
     14          6           0       -1.001740   -3.259313   -0.421965
     15          8           0       -0.581397   -3.917001   -1.367410
     16          8           0       -2.211349   -2.565997   -0.450692
     17          7           0        4.627649    2.749934   -0.091300
     18          6           0        3.336053    3.135652   -0.234504
     19          6           0        3.223456    4.521334   -0.352969
     20          6           0        4.556721    4.994987   -0.562977
     21          6           0        5.453619    3.859352   -0.367410
     22          6           0        1.892560    5.281831   -0.422636
     23          6           0        4.977501    6.404472   -0.894943
     24          8           0        6.131376    6.735141   -0.887170
     25          6           0        3.936542    7.425276   -1.450980
     26          7           0        7.340813    1.518949    0.101533
     27          6           0        7.762483    2.756725   -0.265495
     28          6           0        9.268919    2.933085   -0.441795
     29          6           0        9.760188    1.617649    0.026621
     30          6           0        8.451771    0.795398    0.213109
     31          6           0        9.771367    3.415582   -1.854004
     32          6           0       10.689290    1.617434    1.266660
     33          6           0       10.266244    2.369224    2.568569
     34          7           0        6.200705   -1.099526    0.491885
     35          6           0        7.527549   -1.486587    0.626504
     36          6           0        7.518382   -2.975520    0.777306
     37          6           0        6.153299   -3.321431    0.751432
     38          6           0        5.365046   -2.152925    0.574209
     39          6           0        8.754177   -3.958697    0.834728
     40          6           0        5.227671   -4.408780    0.805016
     41          8           0        5.380369   -5.594274    0.864152
     42          6           0        3.778708   -3.812267    0.611009
     43          6           0        3.101317   -4.551231   -0.436217
     44          8           0        3.351129   -4.398050   -1.619413
     45          8           0        2.262267   -5.466065    0.118810
     46          6           0        1.684542   -6.438570   -0.750344
     47          6           0       -2.859593   -2.510075   -1.766893
     48          6           0       -4.305924   -2.382843   -1.482982
     49          6           0       -5.033871   -3.229666   -0.812532
     50          6           0       -4.526449   -4.530836   -0.093083
     51          6           0       -6.552004   -3.024184   -0.802933
     52          6           0       -7.150192   -2.461743    0.536685
     53          6           0       -7.205578   -0.907494    0.434087
     54          6           0       -8.595547   -0.354213    0.650149
     55          6           0       -8.617629    0.576278    1.842861
     56          6           0       -9.197234    0.316070   -0.593148
     57          6           0      -10.616561   -0.225272   -0.807547
     58          6           0      -11.253312    0.519122   -1.975769
     59          6           0      -12.751503    0.771692   -1.793121
     60          6           0      -13.465615    0.798006   -3.214502
     61          6           0      -12.983817    2.116350   -1.046365
     62          6           0      -13.715716    1.943381    0.217141
     63          6           0      -12.798425    2.025754    1.508984
     64          6           0      -13.148830    3.210262    2.340594
     65          6           0      -11.921769    3.634057    3.133852
     66          6           0      -14.333115    2.959890    3.311491
     67          1           0        1.254404    2.594703   -0.294881
     68          1           0        7.352434    4.771668   -0.816797
     69          1           0        9.634838   -0.898394    0.608181
     70          1           0        1.373553   -2.179537   -0.663505
     71          1           0        0.320223    0.417957    0.533708
     72          1           0        0.691184   -0.696145   -2.276389
     73          1           0        0.523592    1.012037   -2.005548
     74          1           0       -0.688812   -0.216291   -1.385789
     75          1           0        0.326710   -1.378343    1.930431
     76          1           0        1.476034   -2.613667    2.060261
     77          1           0       -1.260408   -2.842067    1.660402
     78          1           0       -0.071202   -4.125447    1.234792
     79          1           0        1.694202    5.649560   -1.429213
     80          1           0        1.987287    6.146058    0.234679
     81          1           0        0.986442    4.827604   -0.020162
     82          1           0        3.407238    7.924674   -0.639501
     83          1           0        3.316965    6.998027   -2.239602
     84          1           0        4.485007    8.079337   -2.128493
     85          1           0        9.596701    3.728851    0.226806
     86          1           0       10.364588    1.100423   -0.718121
     87          1           0        9.742775    2.504290   -2.450821
     88          1           0       10.737996    3.911375   -1.766560
     89          1           0        9.040474    4.098423   -2.288738
     90          1           0       11.647780    2.090199    1.051032
     91          1           0       10.891051    0.595741    1.589197
     92          1           0       10.619452    3.357480    2.863937
     93          1           0       10.559860    1.859598    3.487009
     94          1           0        9.187402    2.435964    2.713502
     95          1           0        8.722183   -4.426255    1.818642
     96          1           0        9.688725   -3.423300    0.669648
     97          1           0        8.727374   -4.687608    0.025004
     98          1           0        3.225083   -3.978704    1.534660
     99          1           0        2.489388   -6.861684   -1.350756
    100          1           0        1.001129   -5.941813   -1.438472
    101          1           0        1.188851   -7.201066   -0.149373
    102          1           0       -2.803330   -3.470369   -2.282073
    103          1           0       -2.479814   -1.676939   -2.358038
    104          1           0       -4.852924   -1.573262   -1.966309
    105          1           0       -3.505710   -4.788819   -0.376186
    106          1           0       -5.204696   -5.347358   -0.341739
    107          1           0       -4.537486   -4.363585    0.984024
    108          1           0       -7.030329   -3.993359   -0.941510
    109          1           0       -6.849880   -2.444443   -1.676453
    110          1           0       -6.467665   -2.647672    1.365436
    111          1           0       -8.079086   -2.899755    0.903099
    112          1           0       -6.862539   -0.556047   -0.538648
    113          1           0       -6.437019   -0.517301    1.101136
    114          1           0       -9.208997   -1.200150    0.961112
    115          1           0       -7.897286    0.191852    2.564634
    116          1           0       -9.610511    0.501860    2.287330
    117          1           0       -8.476622    1.621548    1.567676
    118          1           0       -8.730071    0.184615   -1.569512
    119          1           0       -9.237094    1.403281   -0.518052
    120          1           0      -11.271934   -0.257303    0.061937
    121          1           0      -10.474620   -1.221584   -1.226815
    122          1           0      -10.974910    0.030768   -2.910471
    123          1           0      -10.720659    1.448425   -2.182134
    124          1           0      -13.215320   -0.039467   -1.233163
    125          1           0      -14.547455    0.690478   -3.143481
    126          1           0      -12.945672    0.161960   -3.931570
    127          1           0      -13.219843    1.787839   -3.599141
    128          1           0      -13.604093    2.785225   -1.643598
    129          1           0      -12.099387    2.672906   -0.736453
    130          1           0      -14.327857    1.043622    0.274352
    131          1           0      -14.530915    2.640289    0.412018
    132          1           0      -11.746920    1.943758    1.233582
    133          1           0      -13.052296    1.102656    2.028492
    134          1           0      -13.585280    3.987658    1.712603
    135          1           0      -11.391298    2.780037    3.556971
    136          1           0      -12.203038    4.316067    3.936450
    137          1           0      -11.281068    4.256801    2.510538
    138          1           0      -15.199316    3.400620    2.818719
    139          1           0      -14.258495    3.427284    4.293110
    140          1           0      -14.673386    1.933234    3.450300
 ---------------------------------------------------------------------

 SCF Done:  E(RPBE1PBE) =  -3005.37557815     A.U. after   15 cycles

 Excitation energies and oscillator strengths:

 Excited State   1:      Singlet-A      1.8103 eV  684.88 nm  f=0.3637  <S**2>=0.000
     245 -> 248        0.16225
     246 -> 247        0.69632
     246 <- 247       -0.11823
 This state for optimization and/or second-order correction.
 Total Energy, E(TD-HF/TD-DFT) =  -3005.30905092
 Copying the excited state density for this state as the 1-particle RhoCI density.

 Excited State   2:      Singlet-A      2.2149 eV  559.77 nm  f=0.1182  <S**2>=0.000
     245 -> 247        0.65098
     246 -> 248       -0.25995

 Excited State   3:      Singlet-A      2.9382 eV  421.97 nm  f=0.0007  <S**2>=0.000
     241 -> 247       -0.12207
     243 -> 247       -0.22515
     244 -> 247        0.64720

 Excited State   4:      Singlet-A      2.9766 eV  416.52 nm  f=0.0017  <S**2>=0.000
     241 -> 247        0.24967
     243 -> 247        0.57972
     244 -> 247        0.26686

 Excited State   5:      Singlet-A      3.0569 eV  405.58 nm  f=0.0001  <S**2>=0.000
     242 -> 247        0.67700
     242 -> 249        0.11660

 The electronic state is 1-A.
 Alpha  occ. eigenvalues --  -46.92053 -19.26114 -19.24879 -19.21621 -19.19031
 Alpha  occ. eigenvalues --  -19.18742 -19.18704 -14.42109 -14.41351 -14.38775
 Alpha  occ. eigenvalues --  -14.38769 -10.37558 -10.34942 -10.31952 -10.31388
 Alpha  occ. eigenvalues --  -10.29246 -10.28796 -10.28323 -10.28302 -10.28194
 Alpha  occ. eigenvalues --  -10.28080 -10.27976 -10.27108 -10.26790 -10.26700
 Alpha  occ. eigenvalues --  -10.26623 -10.25811 -10.25738 -10.25686 -10.25545
 Alpha  occ. eigenvalues --  -10.25477 -10.25472 -10.25188 -10.24972 -10.24750
 Alpha  occ. eigenvalues --  -10.24712 -10.24535 -10.24427 -10.24393 -10.24375
 Alpha  occ. eigenvalues --  -10.24334 -10.24023 -10.24011 -10.23700 -10.23642
 Alpha  occ. eigenvalues --  -10.23484 -10.23473 -10.23201 -10.23120 -10.23094
 Alpha  occ. eigenvalues --  -10.22921 -10.22685 -10.22618 -10.22514 -10.22435
 Alpha  occ. eigenvalues --  -10.22273 -10.22085 -10.21914 -10.21771 -10.21750
 Alpha  occ. eigenvalues --  -10.21662 -10.21619 -10.21572 -10.21568 -10.21547
 Alpha  occ. eigenvalues --  -10.21498  -3.14094  -1.86952  -1.86454  -1.86319
 Alpha  occ. eigenvalues --   -1.11278  -1.10821  -1.05963  -1.05606  -1.03337
 Alpha  occ. eigenvalues --   -1.02168  -0.99935  -0.98438  -0.97298  -0.96754
 Alpha  occ. eigenvalues --   -0.86839  -0.85085  -0.84517  -0.83960  -0.83747
 Alpha  occ. eigenvalues --   -0.83065  -0.82349  -0.82063  -0.81856  -0.80573
 Alpha  occ. eigenvalues --   -0.79843  -0.79484  -0.78807  -0.78038  -0.77635
 Alpha  occ. eigenvalues --   -0.76939  -0.75770  -0.75103  -0.75039  -0.74207
 Alpha  occ. eigenvalues --   -0.73985  -0.72349  -0.72134  -0.71533  -0.70161
 Alpha  occ. eigenvalues --   -0.69854  -0.69662  -0.69507  -0.68664  -0.68572
 Alpha  occ. eigenvalues --   -0.67865  -0.67150  -0.66187  -0.65342  -0.64635
 Alpha  occ. eigenvalues --   -0.63219  -0.62328  -0.61839  -0.60873  -0.60276
 Alpha  occ. eigenvalues --   -0.59645  -0.59433  -0.59157  -0.58780  -0.58688
 Alpha  occ. eigenvalues --   -0.58310  -0.57692  -0.57208  -0.56265  -0.54673
 Alpha  occ. eigenvalues --   -0.54077  -0.53784  -0.53420  -0.53202  -0.52153
 Alpha  occ. eigenvalues --   -0.51978  -0.51680  -0.51251  -0.50502  -0.50412
 Alpha  occ. eigenvalues --   -0.49646  -0.49437  -0.49370  -0.49209  -0.48407
 Alpha  occ. eigenvalues --   -0.48150  -0.47954  -0.47540  -0.47394  -0.47107
 Alpha  occ. eigenvalues --   -0.47053  -0.46791  -0.46699  -0.46251  -0.46206
 Alpha  occ. eigenvalues --   -0.45951  -0.45688  -0.45409  -0.45263  -0.44898
 Alpha  occ. eigenvalues --   -0.44681  -0.44527  -0.44347  -0.44284  -0.44131
 Alpha  occ. eigenvalues --   -0.44070  -0.43862  -0.43747  -0.43572  -0.43373
 Alpha  occ. eigenvalues --   -0.43225  -0.43200  -0.43058  -0.42455  -0.42302
 Alpha  occ. eigenvalues --   -0.42075  -0.41856  -0.41471  -0.41335  -0.41275
 Alpha  occ. eigenvalues --   -0.40908  -0.40782  -0.40743  -0.40416  -0.40366
 Alpha  occ. eigenvalues --   -0.40352  -0.40169  -0.39843  -0.39734  -0.39539
 Alpha  occ. eigenvalues --   -0.39407  -0.39389  -0.39086  -0.38803  -0.38403
 Alpha  occ. eigenvalues --   -0.38296  -0.38205  -0.37970  -0.37907  -0.37644
 Alpha  occ. eigenvalues --   -0.37467  -0.37316  -0.37231  -0.37155  -0.37105
 Alpha  occ. eigenvalues --   -0.36732  -0.36532  -0.36521  -0.36199  -0.36130
 Alpha  occ. eigenvalues --   -0.36111  -0.35766  -0.35601  -0.35157  -0.34926
 Alpha  occ. eigenvalues --   -0.34356  -0.34337  -0.34016  -0.33809  -0.33597
 Alpha  occ. eigenvalues --   -0.33368  -0.33193  -0.32706  -0.32636  -0.32514
 Alpha  occ. eigenvalues --   -0.32173  -0.31890  -0.31640  -0.31294  -0.30657
 Alpha  occ. eigenvalues --   -0.30503  -0.30221  -0.30190  -0.30124  -0.29503
 Alpha  occ. eigenvalues --   -0.29012  -0.28759  -0.27941  -0.26486  -0.25924
 Alpha  occ. eigenvalues --   -0.25663  -0.25518  -0.25311  -0.24973  -0.20922
 Alpha  occ. eigenvalues --   -0.18532
 Alpha virt. eigenvalues --   -0.11207  -0.05053  -0.03372  -0.01691  -0.01207
 Alpha virt. eigenvalues --   -0.00224   0.01240   0.01390   0.01690   0.03247
 Alpha virt. eigenvalues --    0.04342   0.04509   0.05026   0.05674   0.05937

 Mulliken charges:
               1
     1  Mg   0.970322
     2  C    0.056909
     3  C   -0.082082
     4  C   -0.057574
     5  C   -0.081211
     6  N   -0.407063
     7  C    0.048821
     8  C   -0.131287
     9  C   -0.124796
    10  C    0.097866
    11  C   -0.013038
    12  C    0.003037
    13  C    0.014344
    14  C    0.219038
    15  O   -0.259268
    16  O   -0.379533
    17  N   -0.498006
    18  C    0.178069
    19  C   -0.163554
    20  C   -0.099223
    21  C    0.153313
    22  C    0.063731
    23  C    0.045904
    24  O   -0.219826
    25  C   -0.046457
    26  N   -0.363333
    27  C    0.053909
    28  C   -0.091794
    29  C   -0.074272
    30  C    0.055851
    31  C    0.019868
    32  C   -0.019827
    33  C   -0.104993
    34  N   -0.479582
    35  C    0.159036
    36  C   -0.183671
    37  C   -0.023974
    38  C    0.115453
    39  C    0.066454
    40  C    0.115095
    41  O   -0.186209
    42  C   -0.118057
    43  C    0.276609
    44  O   -0.257575
    45  O   -0.354718
    46  C    0.126567
    47  C    0.247728
    48  C   -0.147631
    49  C   -0.190344
    50  C    0.027936
    51  C   -0.001226
    52  C   -0.044213
    53  C    0.008401
    54  C   -0.193945
    55  C    0.002167
    56  C   -0.023727
    57  C   -0.065742
    58  C   -0.005743
    59  C   -0.198458
    60  C   -0.017431
    61  C    0.059259
    62  C   -0.078680
    63  C   -0.033514
    64  C   -0.222368
    65  C   -0.011660
    66  C   -0.026666
    67  H   -0.002874
    68  H    0.032251
    69  H    0.016132
    70  H    0.087694
    71  H    0.052022
    72  H    0.052312
    73  H    0.043221
    74  H    0.043465
    75  H    0.029248
    76  H    0.044307
    77  H    0.064449
    78  H    0.070900
    79  H    0.058164
    80  H    0.039948
    81  H    0.044076
    82  H    0.073777
    83  H    0.048233
    84  H    0.047363
    85  H    0.056168
    86  H    0.040215
    87  H    0.041105
    88  H    0.054602
    89  H    0.049083
    90  H    0.045824
    91  H    0.041779
    92  H    0.039484
    93  H    0.029469
    94  H    0.038447
    95  H    0.069102
    96  H    0.029568
    97  H    0.069478
    98  H    0.068382
    99  H    0.052401
   100  H    0.065497
   101  H    0.053841
   102  H    0.072588
   103  H    0.050110
   104  H    0.015013
   105  H    0.042558
   106  H    0.044875
   107  H    0.053780
   108  H    0.022674
   109  H    0.034696
   110  H    0.026374
   111  H    0.032207
   112  H    0.015770
   113  H    0.018035
   114  H    0.035669
   115  H    0.032006
   116  H    0.030223
   117  H    0.037136
   118  H    0.023152
   119  H    0.023232
   120  H    0.045313
   121  H    0.036893
   122  H    0.005522
   123  H    0.010315
   124  H    0.039043
   125  H    0.045761
   126  H    0.032012
   127  H    0.024213
   128  H    0.022701
   129  H    0.029894
   130  H    0.010505
   131  H    0.006173
   132  H    0.041076
   133  H    0.024760
   134  H    0.036865
   135  H    0.046845
   136  H    0.022183
   137  H    0.031579
   138  H    0.022490
   139  H    0.036211
   140  H    0.027000
 Sum of Mulliken charges =  -0.00000

 Dipole moment (field-independent basis, Debye):
    X=             -3.4375    Y=              2.8340    Z=              2.0266  Tot=              4.8944
 Quadrupole moment (field-independent basis, Debye-Ang):
   XX=           -364.8306   YY=           -427.6042   ZZ=           -403.6745
   XY=             14.5010   XZ=              9.6725   YZ=             -7.6644

 Normal termination of Gaussian 16 at Wed Apr 27 00:53:15 2022.
