 Gaussian 16, Revision A.03,
 Gaussian 16:  ES64L-G16RevA.03 25-Dec-2016

 --------------------------------
 #p wB97XD/Def2SVP td=(nstates=5)
 --------------------------------

 ----------------------------------------------------
 step_101_chromophore_24 TDDFT with wB97XD functional
 ----------------------------------------------------
 Symbolic Z-matrix:
 Charge =  0 Multiplicity = 1

                         Standard orientation:
 ---------------------------------------------------------------------
 Center     Atomic      Atomic             Coordinates (Angstroms)
 Number     Number       Type             X           Y           Z
 ---------------------------------------------------------------------
      1         12           0        5.360225    0.854789    0.420032
      2          6           0        3.934530   -2.315170    0.531897
      3          6           0        2.267518    2.197713   -0.205729
      4          6           0        6.899113    3.849683   -0.448350
      5          6           0        8.589681   -0.582598    0.601094
      6          7           0        3.309196    0.030396    0.341487
      7          6           0        3.009128   -1.316956    0.382670
      8          6           0        1.573047   -1.495442    0.161754
      9          6           0        1.037301   -0.018793   -0.162379
     10          6           0        2.266684    0.802564   -0.053905
     11          6           0        0.359340    0.038374   -1.543360
     12          6           0        0.761987   -2.192629    1.351972
     13          6           0       -0.450657   -3.133094    0.991909
     14          6           0       -1.001740   -3.259313   -0.421965
     15          8           0       -0.581397   -3.917001   -1.367410
     16          8           0       -2.211349   -2.565997   -0.450692
     17          7           0        4.627649    2.749934   -0.091300
     18          6           0        3.336053    3.135652   -0.234504
     19          6           0        3.223456    4.521334   -0.352969
     20          6           0        4.556721    4.994987   -0.562977
     21          6           0        5.453619    3.859352   -0.367410
     22          6           0        1.892560    5.281831   -0.422636
     23          6           0        4.977501    6.404472   -0.894943
     24          8           0        6.131376    6.735141   -0.887170
     25          6           0        3.936542    7.425276   -1.450980
     26          7           0        7.340813    1.518949    0.101533
     27          6           0        7.762483    2.756725   -0.265495
     28          6           0        9.268919    2.933085   -0.441795
     29          6           0        9.760188    1.617649    0.026621
     30          6           0        8.451771    0.795398    0.213109
     31          6           0        9.771367    3.415582   -1.854004
     32          6           0       10.689290    1.617434    1.266660
     33          6           0       10.266244    2.369224    2.568569
     34          7           0        6.200705   -1.099526    0.491885
     35          6           0        7.527549   -1.486587    0.626504
     36          6           0        7.518382   -2.975520    0.777306
     37          6           0        6.153299   -3.321431    0.751432
     38          6           0        5.365046   -2.152925    0.574209
     39          6           0        8.754177   -3.958697    0.834728
     40          6           0        5.227671   -4.408780    0.805016
     41          8           0        5.380369   -5.594274    0.864152
     42          6           0        3.778708   -3.812267    0.611009
     43          6           0        3.101317   -4.551231   -0.436217
     44          8           0        3.351129   -4.398050   -1.619413
     45          8           0        2.262267   -5.466065    0.118810
     46          6           0        1.684542   -6.438570   -0.750344
     47          6           0       -2.859593   -2.510075   -1.766893
     48          6           0       -4.305924   -2.382843   -1.482982
     49          6           0       -5.033871   -3.229666   -0.812532
     50          6           0       -4.526449   -4.530836   -0.093083
     51          6           0       -6.552004   -3.024184   -0.802933
     52          6           0       -7.150192   -2.461743    0.536685
     53          6           0       -7.205578   -0.907494    0.434087
     54          6           0       -8.595547   -0.354213    0.650149
     55          6           0       -8.617629    0.576278    1.842861
     56          6           0       -9.197234    0.316070   -0.593148
     57          6           0      -10.616561   -0.225272   -0.807547
     58          6           0      -11.253312    0.519122   -1.975769
     59          6           0      -12.751503    0.771692   -1.793121
     60          6           0      -13.465615    0.798006   -3.214502
     61          6           0      -12.983817    2.116350   -1.046365
     62          6           0      -13.715716    1.943381    0.217141
     63          6           0      -12.798425    2.025754    1.508984
     64          6           0      -13.148830    3.210262    2.340594
     65          6           0      -11.921769    3.634057    3.133852
     66          6           0      -14.333115    2.959890    3.311491
     67          1           0        1.254404    2.594703   -0.294881
     68          1           0        7.352434    4.771668   -0.816797
     69          1           0        9.634838   -0.898394    0.608181
     70          1           0        1.373553   -2.179537   -0.663505
     71          1           0        0.320223    0.417957    0.533708
     72          1           0        0.691184   -0.696145   -2.276389
     73          1           0        0.523592    1.012037   -2.005548
     74          1           0       -0.688812   -0.216291   -1.385789
     75          1           0        0.326710   -1.378343    1.930431
     76          1           0        1.476034   -2.613667    2.060261
     77          1           0       -1.260408   -2.842067    1.660402
     78          1           0       -0.071202   -4.125447    1.234792
     79          1           0        1.694202    5.649560   -1.429213
     80          1           0        1.987287    6.146058    0.234679
     81          1           0        0.986442    4.827604   -0.020162
     82          1           0        3.407238    7.924674   -0.639501
     83          1           0        3.316965    6.998027   -2.239602
     84          1           0        4.485007    8.079337   -2.128493
     85          1           0        9.596701    3.728851    0.226806
     86          1           0       10.364588    1.100423   -0.718121
     87          1           0        9.742775    2.504290   -2.450821
     88          1           0       10.737996    3.911375   -1.766560
     89          1           0        9.040474    4.098423   -2.288738
     90          1           0       11.647780    2.090199    1.051032
     91          1           0       10.891051    0.595741    1.589197
     92          1           0       10.619452    3.357480    2.863937
     93          1           0       10.559860    1.859598    3.487009
     94          1           0        9.187402    2.435964    2.713502
     95          1           0        8.722183   -4.426255    1.818642
     96          1           0        9.688725   -3.423300    0.669648
     97          1           0        8.727374   -4.687608    0.025004
     98          1           0        3.225083   -3.978704    1.534660
     99          1           0        2.489388   -6.861684   -1.350756
    100          1           0        1.001129   -5.941813   -1.438472
    101          1           0        1.188851   -7.201066   -0.149373
    102          1           0       -2.803330   -3.470369   -2.282073
    103          1           0       -2.479814   -1.676939   -2.358038
    104          1           0       -4.852924   -1.573262   -1.966309
    105          1           0       -3.505710   -4.788819   -0.376186
    106          1           0       -5.204696   -5.347358   -0.341739
    107          1           0       -4.537486   -4.363585    0.984024
    108          1           0       -7.030329   -3.993359   -0.941510
    109          1           0       -6.849880   -2.444443   -1.676453
    110          1           0       -6.467665   -2.647672    1.365436
    111          1           0       -8.079086   -2.899755    0.903099
    112          1           0       -6.862539   -0.556047   -0.538648
    113          1           0       -6.437019   -0.517301    1.101136
    114          1           0       -9.208997   -1.200150    0.961112
    115          1           0       -7.897286    0.191852    2.564634
    116          1           0       -9.610511    0.501860    2.287330
    117          1           0       -8.476622    1.621548    1.567676
    118          1           0       -8.730071    0.184615   -1.569512
    119          1           0       -9.237094    1.403281   -0.518052
    120          1           0      -11.271934   -0.257303    0.061937
    121          1           0      -10.474620   -1.221584   -1.226815
    122          1           0      -10.974910    0.030768   -2.910471
    123          1           0      -10.720659    1.448425   -2.182134
    124          1           0      -13.215320   -0.039467   -1.233163
    125          1           0      -14.547455    0.690478   -3.143481
    126          1           0      -12.945672    0.161960   -3.931570
    127          1           0      -13.219843    1.787839   -3.599141
    128          1           0      -13.604093    2.785225   -1.643598
    129          1           0      -12.099387    2.672906   -0.736453
    130          1           0      -14.327857    1.043622    0.274352
    131          1           0      -14.530915    2.640289    0.412018
    132          1           0      -11.746920    1.943758    1.233582
    133          1           0      -13.052296    1.102656    2.028492
    134          1           0      -13.585280    3.987658    1.712603
    135          1           0      -11.391298    2.780037    3.556971
    136          1           0      -12.203038    4.316067    3.936450
    137          1           0      -11.281068    4.256801    2.510538
    138          1           0      -15.199316    3.400620    2.818719
    139          1           0      -14.258495    3.427284    4.293110
    140          1           0      -14.673386    1.933234    3.450300
 ---------------------------------------------------------------------

 SCF Done:  E(RwB97XD) =  -3007.88832592     A.U. after   19 cycles

 Excitation energies and oscillator strengths:

 Excited State   1:      Singlet-A      1.5843 eV  782.59 nm  f=0.3816  <S**2>=0.000
     245 -> 248        0.17536
     246 -> 247        0.68577
     245 <- 248        0.11727
 This state for optimization and/or second-order correction.
 Total Energy, E(TD-HF/TD-DFT) =  -3007.83010477
 Copying the excited state density for this state as the 1-particle RhoCI density.

 Excited State   2:      Singlet-A      2.1471 eV  577.45 nm  f=0.1165  <S**2>=0.000
     245 -> 247        0.63801
     246 -> 248       -0.28912

 Excited State   3:      Singlet-A      3.2834 eV  377.61 nm  f=0.0018  <S**2>=0.000
     244 -> 247        0.68483

 Excited State   4:      Singlet-A      3.4548 eV  358.87 nm  f=0.1536  <S**2>=0.000
     243 -> 247        0.54563
     245 -> 247        0.12427
     246 -> 248        0.40584

 Excited State   5:      Singlet-A      3.5370 eV  350.53 nm  f=0.1573  <S**2>=0.000
     240 -> 247        0.38657
     240 -> 249       -0.20776
     240 -> 250       -0.12244
     241 -> 247        0.30542
     241 -> 249       -0.15297
     243 -> 247        0.20978
     245 -> 247       -0.13296
     246 -> 248       -0.26753

 The electronic state is 1-A.
 Alpha  occ. eigenvalues --  -46.95002 -19.30631 -19.29470 -19.26284 -19.23818
 Alpha  occ. eigenvalues --  -19.23618 -19.23500 -14.47276 -14.46372 -14.43724
 Alpha  occ. eigenvalues --  -14.43669 -10.44353 -10.41830 -10.38746 -10.38329
 Alpha  occ. eigenvalues --  -10.35726 -10.35078 -10.34698 -10.34545 -10.34476
 Alpha  occ. eigenvalues --  -10.34346 -10.34342 -10.33637 -10.33185 -10.33092
 Alpha  occ. eigenvalues --  -10.33088 -10.32153 -10.32093 -10.31988 -10.31848
 Alpha  occ. eigenvalues --  -10.31778 -10.31760 -10.31421 -10.31228 -10.31185
 Alpha  occ. eigenvalues --  -10.31070 -10.30902 -10.30841 -10.30823 -10.30713
 Alpha  occ. eigenvalues --  -10.30652 -10.30559 -10.30437 -10.30090 -10.30046
 Alpha  occ. eigenvalues --  -10.29835 -10.29743 -10.29689 -10.29581 -10.29428
 Alpha  occ. eigenvalues --  -10.29209 -10.29089 -10.29038 -10.28793 -10.28786
 Alpha  occ. eigenvalues --  -10.28632 -10.28465 -10.28337 -10.28131 -10.28114
 Alpha  occ. eigenvalues --  -10.28018 -10.28006 -10.27997 -10.27966 -10.27958
 Alpha  occ. eigenvalues --  -10.27851  -3.20906  -1.94511  -1.94013  -1.93879
 Alpha  occ. eigenvalues --   -1.18642  -1.18244  -1.13400  -1.13158  -1.10667
 Alpha  occ. eigenvalues --   -1.09573  -1.07324  -1.05830  -1.04689  -1.04084
 Alpha  occ. eigenvalues --   -0.94494  -0.92733  -0.92168  -0.91514  -0.91387
 Alpha  occ. eigenvalues --   -0.90697  -0.89940  -0.89707  -0.89455  -0.88206
 Alpha  occ. eigenvalues --   -0.87470  -0.87166  -0.86446  -0.85681  -0.85259
 Alpha  occ. eigenvalues --   -0.84571  -0.83421  -0.82744  -0.82678  -0.81933
 Alpha  occ. eigenvalues --   -0.81653  -0.80026  -0.79758  -0.79142  -0.77809
 Alpha  occ. eigenvalues --   -0.77507  -0.77361  -0.77089  -0.76319  -0.76240
 Alpha  occ. eigenvalues --   -0.75458  -0.74736  -0.73743  -0.72944  -0.72189
 Alpha  occ. eigenvalues --   -0.70788  -0.69956  -0.69353  -0.68494  -0.67749
 Alpha  occ. eigenvalues --   -0.67315  -0.66850  -0.66630  -0.66429  -0.66137
 Alpha  occ. eigenvalues --   -0.65760  -0.65346  -0.64833  -0.63705  -0.62109
 Alpha  occ. eigenvalues --   -0.61554  -0.61179  -0.60903  -0.60590  -0.59719
 Alpha  occ. eigenvalues --   -0.59377  -0.59170  -0.58655  -0.57928  -0.57822
 Alpha  occ. eigenvalues --   -0.57068  -0.56843  -0.56772  -0.56700  -0.55825
 Alpha  occ. eigenvalues --   -0.55554  -0.55364  -0.54921  -0.54785  -0.54550
 Alpha  occ. eigenvalues --   -0.54431  -0.54174  -0.54054  -0.53632  -0.53539
 Alpha  occ. eigenvalues --   -0.53294  -0.52995  -0.52841  -0.52591  -0.52329
 Alpha  occ. eigenvalues --   -0.52055  -0.51861  -0.51686  -0.51567  -0.51450
 Alpha  occ. eigenvalues --   -0.51357  -0.51236  -0.51041  -0.50857  -0.50640
 Alpha  occ. eigenvalues --   -0.50604  -0.50502  -0.50340  -0.49732  -0.49558
 Alpha  occ. eigenvalues --   -0.49336  -0.49063  -0.48793  -0.48608  -0.48497
 Alpha  occ. eigenvalues --   -0.48159  -0.48009  -0.47914  -0.47668  -0.47626
 Alpha  occ. eigenvalues --   -0.47505  -0.47325  -0.47074  -0.46924  -0.46781
 Alpha  occ. eigenvalues --   -0.46615  -0.46521  -0.46331  -0.45922  -0.45534
 Alpha  occ. eigenvalues --   -0.45438  -0.45355  -0.45110  -0.44986  -0.44766
 Alpha  occ. eigenvalues --   -0.44552  -0.44369  -0.44366  -0.44275  -0.44170
 Alpha  occ. eigenvalues --   -0.43896  -0.43640  -0.43611  -0.43293  -0.43229
 Alpha  occ. eigenvalues --   -0.43163  -0.42841  -0.42708  -0.42171  -0.41955
 Alpha  occ. eigenvalues --   -0.41424  -0.41339  -0.40969  -0.40873  -0.40645
 Alpha  occ. eigenvalues --   -0.40463  -0.40135  -0.39733  -0.39650  -0.39409
 Alpha  occ. eigenvalues --   -0.39215  -0.38846  -0.38697  -0.38309  -0.37695
 Alpha  occ. eigenvalues --   -0.37529  -0.37244  -0.37184  -0.37101  -0.36313
 Alpha  occ. eigenvalues --   -0.35874  -0.35541  -0.34970  -0.33087  -0.32671
 Alpha  occ. eigenvalues --   -0.32646  -0.32625  -0.32074  -0.31529  -0.25921
 Alpha  occ. eigenvalues --   -0.22663
 Alpha virt. eigenvalues --   -0.07170   0.00401   0.02891   0.04840   0.05612
 Alpha virt. eigenvalues --    0.05736   0.07976   0.08108   0.08391   0.09632
 Alpha virt. eigenvalues --    0.10811   0.11287   0.11655   0.12400   0.12655

 Mulliken charges:
               1
     1  Mg   0.961205
     2  C    0.050365
     3  C   -0.103778
     4  C   -0.073333
     5  C   -0.097247
     6  N   -0.372838
     7  C    0.024428
     8  C   -0.104312
     9  C   -0.096365
    10  C    0.082956
    11  C    0.001021
    12  C    0.011001
    13  C    0.033775
    14  C    0.201717
    15  O   -0.253178
    16  O   -0.377248
    17  N   -0.465330
    18  C    0.174133
    19  C   -0.158705
    20  C   -0.087179
    21  C    0.141674
    22  C    0.077112
    23  C    0.038813
    24  O   -0.215358
    25  C   -0.034295
    26  N   -0.326879
    27  C    0.042951
    28  C   -0.071205
    29  C   -0.047973
    30  C    0.038955
    31  C    0.032568
    32  C   -0.004191
    33  C   -0.090870
    34  N   -0.441413
    35  C    0.154158
    36  C   -0.186985
    37  C   -0.015880
    38  C    0.093188
    39  C    0.080263
    40  C    0.100466
    41  O   -0.176098
    42  C   -0.074033
    43  C    0.247275
    44  O   -0.249898
    45  O   -0.350488
    46  C    0.141100
    47  C    0.262993
    48  C   -0.153579
    49  C   -0.184717
    50  C    0.044361
    51  C    0.023284
    52  C   -0.028809
    53  C    0.021539
    54  C   -0.159159
    55  C    0.016517
    56  C   -0.007786
    57  C   -0.045061
    58  C    0.008021
    59  C   -0.167253
    60  C   -0.001981
    61  C    0.072403
    62  C   -0.062445
    63  C   -0.011606
    64  C   -0.188194
    65  C    0.003712
    66  C   -0.019261
    67  H   -0.011451
    68  H    0.027424
    69  H    0.010371
    70  H    0.068229
    71  H    0.043177
    72  H    0.047629
    73  H    0.037127
    74  H    0.031830
    75  H    0.021672
    76  H    0.036166
    77  H    0.060075
    78  H    0.063613
    79  H    0.052270
    80  H    0.032373
    81  H    0.040987
    82  H    0.070449
    83  H    0.042631
    84  H    0.045286
    85  H    0.044930
    86  H    0.029972
    87  H    0.033946
    88  H    0.049879
    89  H    0.042648
    90  H    0.038466
    91  H    0.033105
    92  H    0.034455
    93  H    0.024037
    94  H    0.029237
    95  H    0.064728
    96  H    0.024095
    97  H    0.065582
    98  H    0.057756
    99  H    0.048341
   100  H    0.060184
   101  H    0.051129
   102  H    0.066239
   103  H    0.046698
   104  H    0.011522
   105  H    0.034370
   106  H    0.039654
   107  H    0.048161
   108  H    0.014626
   109  H    0.024810
   110  H    0.016874
   111  H    0.026058
   112  H    0.001492
   113  H    0.010668
   114  H    0.019719
   115  H    0.025671
   116  H    0.022316
   117  H    0.030869
   118  H    0.014090
   119  H    0.011239
   120  H    0.031999
   121  H    0.026764
   122  H   -0.002552
   123  H   -0.000983
   124  H    0.026465
   125  H    0.041166
   126  H    0.025802
   127  H    0.015396
   128  H    0.015091
   129  H    0.018670
   130  H    0.001861
   131  H   -0.004162
   132  H    0.020434
   133  H    0.014914
   134  H    0.024889
   135  H    0.040172
   136  H    0.015659
   137  H    0.025400
   138  H    0.016223
   139  H    0.031019
   140  H    0.021331
 Sum of Mulliken charges =  -0.00000

 Dipole moment (field-independent basis, Debye):
    X=             -3.4168    Y=              2.7786    Z=              2.0814  Tot=              4.8711
 Quadrupole moment (field-independent basis, Debye-Ang):
   XX=           -364.9661   YY=           -425.9403   ZZ=           -403.1982
   XY=             13.5208   XZ=              9.9374   YZ=             -7.9669

 Normal termination of Gaussian 16 at Wed Apr 27 01:21:06 2022.
