 Gaussian 16, Revision A.03,
 Gaussian 16:  ES64L-G16RevA.03 25-Dec-2016

 --------------------
 #p ZINDO=(nstates=5)
 --------------------

 -----------------------------
 step_101_chromophore_24 ZINDO
 -----------------------------
 Symbolic Z-matrix:
 Charge =  0 Multiplicity = 1

                         Standard orientation:
 ---------------------------------------------------------------------
 Center     Atomic      Atomic             Coordinates (Angstroms)
 Number     Number       Type             X           Y           Z
 ---------------------------------------------------------------------
      1         12           0        5.360225    0.854789    0.420032
      2          6           0        3.934530   -2.315170    0.531897
      3          6           0        2.267518    2.197713   -0.205729
      4          6           0        6.899113    3.849683   -0.448350
      5          6           0        8.589681   -0.582598    0.601094
      6          7           0        3.309196    0.030396    0.341487
      7          6           0        3.009128   -1.316956    0.382670
      8          6           0        1.573047   -1.495442    0.161754
      9          6           0        1.037301   -0.018793   -0.162379
     10          6           0        2.266684    0.802564   -0.053905
     11          6           0        0.359340    0.038374   -1.543360
     12          6           0        0.761987   -2.192629    1.351972
     13          6           0       -0.450657   -3.133094    0.991909
     14          6           0       -1.001740   -3.259313   -0.421965
     15          8           0       -0.581397   -3.917001   -1.367410
     16          8           0       -2.211349   -2.565997   -0.450692
     17          7           0        4.627649    2.749934   -0.091300
     18          6           0        3.336053    3.135652   -0.234504
     19          6           0        3.223456    4.521334   -0.352969
     20          6           0        4.556721    4.994987   -0.562977
     21          6           0        5.453619    3.859352   -0.367410
     22          6           0        1.892560    5.281831   -0.422636
     23          6           0        4.977501    6.404472   -0.894943
     24          8           0        6.131376    6.735141   -0.887170
     25          6           0        3.936542    7.425276   -1.450980
     26          7           0        7.340813    1.518949    0.101533
     27          6           0        7.762483    2.756725   -0.265495
     28          6           0        9.268919    2.933085   -0.441795
     29          6           0        9.760188    1.617649    0.026621
     30          6           0        8.451771    0.795398    0.213109
     31          6           0        9.771367    3.415582   -1.854004
     32          6           0       10.689290    1.617434    1.266660
     33          6           0       10.266244    2.369224    2.568569
     34          7           0        6.200705   -1.099526    0.491885
     35          6           0        7.527549   -1.486587    0.626504
     36          6           0        7.518382   -2.975520    0.777306
     37          6           0        6.153299   -3.321431    0.751432
     38          6           0        5.365046   -2.152925    0.574209
     39          6           0        8.754177   -3.958697    0.834728
     40          6           0        5.227671   -4.408780    0.805016
     41          8           0        5.380369   -5.594274    0.864152
     42          6           0        3.778708   -3.812267    0.611009
     43          6           0        3.101317   -4.551231   -0.436217
     44          8           0        3.351129   -4.398050   -1.619413
     45          8           0        2.262267   -5.466065    0.118810
     46          6           0        1.684542   -6.438570   -0.750344
     47          6           0       -2.859593   -2.510075   -1.766893
     48          6           0       -4.305924   -2.382843   -1.482982
     49          6           0       -5.033871   -3.229666   -0.812532
     50          6           0       -4.526449   -4.530836   -0.093083
     51          6           0       -6.552004   -3.024184   -0.802933
     52          6           0       -7.150192   -2.461743    0.536685
     53          6           0       -7.205578   -0.907494    0.434087
     54          6           0       -8.595547   -0.354213    0.650149
     55          6           0       -8.617629    0.576278    1.842861
     56          6           0       -9.197234    0.316070   -0.593148
     57          6           0      -10.616561   -0.225272   -0.807547
     58          6           0      -11.253312    0.519122   -1.975769
     59          6           0      -12.751503    0.771692   -1.793121
     60          6           0      -13.465615    0.798006   -3.214502
     61          6           0      -12.983817    2.116350   -1.046365
     62          6           0      -13.715716    1.943381    0.217141
     63          6           0      -12.798425    2.025754    1.508984
     64          6           0      -13.148830    3.210262    2.340594
     65          6           0      -11.921769    3.634057    3.133852
     66          6           0      -14.333115    2.959890    3.311491
     67          1           0        1.254404    2.594703   -0.294881
     68          1           0        7.352434    4.771668   -0.816797
     69          1           0        9.634838   -0.898394    0.608181
     70          1           0        1.373553   -2.179537   -0.663505
     71          1           0        0.320223    0.417957    0.533708
     72          1           0        0.691184   -0.696145   -2.276389
     73          1           0        0.523592    1.012037   -2.005548
     74          1           0       -0.688812   -0.216291   -1.385789
     75          1           0        0.326710   -1.378343    1.930431
     76          1           0        1.476034   -2.613667    2.060261
     77          1           0       -1.260408   -2.842067    1.660402
     78          1           0       -0.071202   -4.125447    1.234792
     79          1           0        1.694202    5.649560   -1.429213
     80          1           0        1.987287    6.146058    0.234679
     81          1           0        0.986442    4.827604   -0.020162
     82          1           0        3.407238    7.924674   -0.639501
     83          1           0        3.316965    6.998027   -2.239602
     84          1           0        4.485007    8.079337   -2.128493
     85          1           0        9.596701    3.728851    0.226806
     86          1           0       10.364588    1.100423   -0.718121
     87          1           0        9.742775    2.504290   -2.450821
     88          1           0       10.737996    3.911375   -1.766560
     89          1           0        9.040474    4.098423   -2.288738
     90          1           0       11.647780    2.090199    1.051032
     91          1           0       10.891051    0.595741    1.589197
     92          1           0       10.619452    3.357480    2.863937
     93          1           0       10.559860    1.859598    3.487009
     94          1           0        9.187402    2.435964    2.713502
     95          1           0        8.722183   -4.426255    1.818642
     96          1           0        9.688725   -3.423300    0.669648
     97          1           0        8.727374   -4.687608    0.025004
     98          1           0        3.225083   -3.978704    1.534660
     99          1           0        2.489388   -6.861684   -1.350756
    100          1           0        1.001129   -5.941813   -1.438472
    101          1           0        1.188851   -7.201066   -0.149373
    102          1           0       -2.803330   -3.470369   -2.282073
    103          1           0       -2.479814   -1.676939   -2.358038
    104          1           0       -4.852924   -1.573262   -1.966309
    105          1           0       -3.505710   -4.788819   -0.376186
    106          1           0       -5.204696   -5.347358   -0.341739
    107          1           0       -4.537486   -4.363585    0.984024
    108          1           0       -7.030329   -3.993359   -0.941510
    109          1           0       -6.849880   -2.444443   -1.676453
    110          1           0       -6.467665   -2.647672    1.365436
    111          1           0       -8.079086   -2.899755    0.903099
    112          1           0       -6.862539   -0.556047   -0.538648
    113          1           0       -6.437019   -0.517301    1.101136
    114          1           0       -9.208997   -1.200150    0.961112
    115          1           0       -7.897286    0.191852    2.564634
    116          1           0       -9.610511    0.501860    2.287330
    117          1           0       -8.476622    1.621548    1.567676
    118          1           0       -8.730071    0.184615   -1.569512
    119          1           0       -9.237094    1.403281   -0.518052
    120          1           0      -11.271934   -0.257303    0.061937
    121          1           0      -10.474620   -1.221584   -1.226815
    122          1           0      -10.974910    0.030768   -2.910471
    123          1           0      -10.720659    1.448425   -2.182134
    124          1           0      -13.215320   -0.039467   -1.233163
    125          1           0      -14.547455    0.690478   -3.143481
    126          1           0      -12.945672    0.161960   -3.931570
    127          1           0      -13.219843    1.787839   -3.599141
    128          1           0      -13.604093    2.785225   -1.643598
    129          1           0      -12.099387    2.672906   -0.736453
    130          1           0      -14.327857    1.043622    0.274352
    131          1           0      -14.530915    2.640289    0.412018
    132          1           0      -11.746920    1.943758    1.233582
    133          1           0      -13.052296    1.102656    2.028492
    134          1           0      -13.585280    3.987658    1.712603
    135          1           0      -11.391298    2.780037    3.556971
    136          1           0      -12.203038    4.316067    3.936450
    137          1           0      -11.281068    4.256801    2.510538
    138          1           0      -15.199316    3.400620    2.818719
    139          1           0      -14.258495    3.427284    4.293110
    140          1           0      -14.673386    1.933234    3.450300
 ---------------------------------------------------------------------

 SCF Done:  E(RZINDO/S) =  -474.580125417     A.U. after   20 cycles

 Excitation energies and oscillator strengths:

 Excited State   1:      Singlet-A      1.2159 eV 1019.70 nm  f=0.6203  <S**2>=0.000
     175 ->178        -0.18697
     176 ->177         0.66314
 This state for optimization and/or second-order correction.
 Total Energy, E(CIS/TDA) =  -474.535442325
 Copying the excited state density for this state as the 1-particle RhoCI density.

 Excited State   2:      Singlet-A      1.9340 eV  641.08 nm  f=0.0423  <S**2>=0.000
     175 ->177         0.54427
     176 ->178         0.42725

 Excited State   3:      Singlet-A      2.9623 eV  418.54 nm  f=0.0284  <S**2>=0.000
     168 ->177         0.33355
     168 ->179        -0.42586
     168 ->181         0.18164
     168 ->185        -0.18530
     168 ->198         0.13130

 Excited State   4:      Singlet-A      2.9978 eV  413.58 nm  f=0.0615  <S**2>=0.000
     168 ->177         0.11123
     168 ->181         0.12204
     169 ->177         0.15680
     169 ->178        -0.10179
     169 ->179         0.15643
     169 ->181         0.22042
     169 ->185         0.13448
     170 ->177         0.19893
     170 ->178        -0.12926
     170 ->179         0.20129
     170 ->181         0.29183
     170 ->185         0.17173
     170 ->187        -0.11243
     176 ->178        -0.12913
     176 ->179         0.11879

 Excited State   5:      Singlet-A      3.0372 eV  408.21 nm  f=1.1322  <S**2>=0.000
     175 ->177        -0.37954
     176 ->178         0.50161

 The electronic state is 1-A.
 Alpha  occ. eigenvalues --   -1.83909  -1.82196  -1.80018  -1.74324  -1.73727
 Alpha  occ. eigenvalues --   -1.71153  -1.67856  -1.62823  -1.60226  -1.59385
 Alpha  occ. eigenvalues --   -1.56278  -1.52559  -1.49455  -1.47371  -1.46531
 Alpha  occ. eigenvalues --   -1.44367  -1.43415  -1.40031  -1.39724  -1.38163
 Alpha  occ. eigenvalues --   -1.36111  -1.33145  -1.31611  -1.30773  -1.29229
 Alpha  occ. eigenvalues --   -1.28686  -1.24628  -1.22230  -1.20319  -1.19242
 Alpha  occ. eigenvalues --   -1.17707  -1.16458  -1.15556  -1.14149  -1.12755
 Alpha  occ. eigenvalues --   -1.11798  -1.11117  -1.10061  -1.05112  -1.03886
 Alpha  occ. eigenvalues --   -1.03235  -1.01527  -0.99450  -0.98908  -0.97369
 Alpha  occ. eigenvalues --   -0.96441  -0.95297  -0.94496  -0.93147  -0.92548
 Alpha  occ. eigenvalues --   -0.90806  -0.90269  -0.88874  -0.88083  -0.87595
 Alpha  occ. eigenvalues --   -0.85659  -0.84958  -0.83470  -0.82042  -0.80610
 Alpha  occ. eigenvalues --   -0.78869  -0.78835  -0.78646  -0.76873  -0.76525
 Alpha  occ. eigenvalues --   -0.75617  -0.75122  -0.74704  -0.74347  -0.73596
 Alpha  occ. eigenvalues --   -0.73338  -0.72426  -0.72188  -0.71407  -0.70851
 Alpha  occ. eigenvalues --   -0.70331  -0.69082  -0.68506  -0.67922  -0.67290
 Alpha  occ. eigenvalues --   -0.66861  -0.66773  -0.66480  -0.66062  -0.65416
 Alpha  occ. eigenvalues --   -0.64972  -0.64510  -0.64414  -0.64016  -0.63493
 Alpha  occ. eigenvalues --   -0.63324  -0.63062  -0.62536  -0.62330  -0.61936
 Alpha  occ. eigenvalues --   -0.61507  -0.60712  -0.60463  -0.60215  -0.59965
 Alpha  occ. eigenvalues --   -0.59554  -0.59123  -0.58779  -0.58508  -0.58169
 Alpha  occ. eigenvalues --   -0.57470  -0.57336  -0.57198  -0.56678  -0.56581
 Alpha  occ. eigenvalues --   -0.55876  -0.55279  -0.55087  -0.54761  -0.54169
 Alpha  occ. eigenvalues --   -0.53931  -0.53583  -0.53329  -0.53318  -0.52887
 Alpha  occ. eigenvalues --   -0.52489  -0.52297  -0.51702  -0.51517  -0.51233
 Alpha  occ. eigenvalues --   -0.51144  -0.51051  -0.50797  -0.50107  -0.49960
 Alpha  occ. eigenvalues --   -0.49886  -0.49458  -0.49242  -0.48989  -0.48719
 Alpha  occ. eigenvalues --   -0.48374  -0.48262  -0.48162  -0.48053  -0.47904
 Alpha  occ. eigenvalues --   -0.47590  -0.47418  -0.47154  -0.46435  -0.46344
 Alpha  occ. eigenvalues --   -0.46128  -0.46023  -0.45857  -0.45510  -0.44954
 Alpha  occ. eigenvalues --   -0.44796  -0.44519  -0.44220  -0.43950  -0.43300
 Alpha  occ. eigenvalues --   -0.43205  -0.42915  -0.42703  -0.42599  -0.42274
 Alpha  occ. eigenvalues --   -0.41635  -0.41445  -0.41039  -0.39733  -0.38591
 Alpha  occ. eigenvalues --   -0.37629  -0.36869  -0.35010  -0.34821  -0.34435
 Alpha  occ. eigenvalues --   -0.33326  -0.33061  -0.32299  -0.32141  -0.26659
 Alpha  occ. eigenvalues --   -0.21558
 Alpha virt. eigenvalues --   -0.08569  -0.01874  -0.00225   0.01250   0.01740
 Alpha virt. eigenvalues --    0.02126   0.03007   0.03305   0.05186   0.05440
 Alpha virt. eigenvalues --    0.06499   0.06921   0.07668   0.07992   0.08301

 Mulliken charges:
               1
     1  Mg   0.424014
     2  C   -0.051180
     3  C   -0.094666
     4  C   -0.057298
     5  C   -0.068478
     6  N   -0.298938
     7  C    0.147527
     8  C    0.003516
     9  C    0.004547
    10  C    0.136877
    11  C   -0.052993
    12  C   -0.029183
    13  C    0.005872
    14  C    0.469674
    15  O   -0.504387
    16  O   -0.276387
    17  N   -0.333770
    18  C    0.122976
    19  C   -0.009843
    20  C   -0.042492
    21  C    0.108886
    22  C   -0.046439
    23  C    0.322202
    24  O   -0.512256
    25  C   -0.042372
    26  N   -0.233102
    27  C    0.115132
    28  C    0.006664
    29  C    0.014176
    30  C    0.134613
    31  C   -0.053550
    32  C   -0.020525
    33  C   -0.068152
    34  N   -0.327069
    35  C    0.103882
    36  C    0.031717
    37  C   -0.045827
    38  C    0.124906
    39  C   -0.036676
    40  C    0.341822
    41  O   -0.507715
    42  C    0.055138
    43  C    0.502376
    44  O   -0.523265
    45  O   -0.266748
    46  C    0.075449
    47  C    0.105165
    48  C   -0.074567
    49  C   -0.007770
    50  C   -0.045265
    51  C   -0.021700
    52  C   -0.036532
    53  C   -0.035594
    54  C   -0.005666
    55  C   -0.056074
    56  C   -0.032456
    57  C   -0.040183
    58  C   -0.037914
    59  C   -0.007983
    60  C   -0.069396
    61  C   -0.024553
    62  C   -0.045527
    63  C   -0.034356
    64  C    0.000939
    65  C   -0.054034
    66  C   -0.063585
    67  H    0.017785
    68  H    0.051337
    69  H    0.034745
    70  H    0.047531
    71  H    0.034967
    72  H    0.027051
    73  H    0.023440
    74  H    0.015917
    75  H    0.013954
    76  H    0.028989
    77  H    0.037959
    78  H    0.041354
    79  H    0.030660
    80  H    0.017516
    81  H    0.025582
    82  H    0.048599
    83  H    0.029865
    84  H    0.031442
    85  H    0.028177
    86  H    0.023396
    87  H    0.022845
    88  H    0.029959
    89  H    0.027555
    90  H    0.017958
    91  H    0.021229
    92  H    0.026437
    93  H    0.008781
    94  H    0.014274
    95  H    0.040127
    96  H    0.020636
    97  H    0.041092
    98  H    0.038919
    99  H    0.044449
   100  H    0.049869
   101  H    0.032859
   102  H    0.059013
   103  H    0.044434
   104  H    0.023140
   105  H    0.028884
   106  H    0.026084
   107  H    0.027607
   108  H    0.010240
   109  H    0.024168
   110  H    0.012573
   111  H    0.028596
   112  H    0.013832
   113  H    0.014734
   114  H    0.020010
   115  H    0.018794
   116  H    0.008900
   117  H    0.024142
   118  H    0.020973
   119  H    0.016292
   120  H    0.030871
   121  H    0.014351
   122  H    0.011547
   123  H    0.011432
   124  H    0.024664
   125  H    0.027366
   126  H    0.022626
   127  H    0.011349
   128  H    0.014430
   129  H    0.025175
   130  H    0.009756
   131  H    0.010510
   132  H    0.021884
   133  H    0.012501
   134  H    0.026192
   135  H    0.026036
   136  H    0.009097
   137  H    0.012507
   138  H    0.006106
   139  H    0.021337
   140  H    0.018988
 Sum of Mulliken charges =  -0.00000

 Dipole moment (field-independent basis, Debye):
    X=             -4.3672    Y=              2.4639    Z=              3.2440  Tot=              5.9721
 N-N= 4.334360478949D+03 E-N= 0.000000000000D+00  KE=-9.343531293760D+03
 Leave Link  601 at Wed Apr 27 01:33:21 2022, MaxMem=  6710886400 cpu:               1.1 elap:               0.1
 (Enter /sw/apps/gaussian-16.0/g16/l9999.exe)
 1\1\GINC-BP1-COMPUTE140\SP\RZINDO CIS\STO-3G\C55H74Mg1N4O6\OF15641\27-
 Apr-2022\0\\#p ZINDO=(nstates=5)\\step_101_chromophore_24 ZINDO\\0,1\M
 g,0,-0.282,43.664,24.385\C,0,1.462,43.215,27.36\C,0,-3.216,43.004,26.0
 33\C,0,-1.873,43.35,21.309\C,0,2.776,43.882,22.616\N,0,-0.815,43.314,2
 6.503\C,0,0.104,43.14,27.519\C,0,-0.604,42.788,28.751\C,0,-2.135,42.63
 8,28.297\C,0,-2.076,42.955,26.85\C,0,-2.676,41.232,28.614\C,0,-0.426,4
 3.802,29.976\C,0,-0.397,43.221,31.441\C,0,-0.718,41.766,31.755\O,0,-0.

 Normal termination of Gaussian 16 at Wed Apr 27 01:33:21 2022.
