 Gaussian 16, Revision A.03,
 Gaussian 16:  ES64L-G16RevA.03 25-Dec-2016

 ------------------------------
 #p blyp/Def2SVP td=(nstates=5)
 ------------------------------

 -------------------------------------------------
 step_201_chromophore_5 TDDFT with blyp functional
 -------------------------------------------------
 Symbolic Z-matrix:
 Charge =  0 Multiplicity = 1

                         Standard orientation:
 ---------------------------------------------------------------------
 Center     Atomic      Atomic             Coordinates (Angstroms)
 Number     Number       Type             X           Y           Z
 ---------------------------------------------------------------------
      1         12           0       -5.392925   -0.446499   -0.495698
      2          6           0       -3.882512    2.715979   -0.121058
      3          6           0       -3.028392   -1.216215   -2.862536
      4          6           0       -6.418533   -3.649245   -0.302405
      5          6           0       -7.005006    0.262221    2.679123
      6          7           0       -3.649908    0.616141   -1.291914
      7          6           0       -3.281090    1.895744   -1.075990
      8          6           0       -2.047097    2.269978   -1.845412
      9          6           0       -1.904447    1.084969   -2.864604
     10          6           0       -2.920419    0.090155   -2.303850
     11          6           0       -1.902991    1.417519   -4.423266
     12          6           0       -0.745466    2.563549   -1.015720
     13          6           0        0.085010    3.830301   -1.468972
     14          6           0        1.557608    3.664627   -1.584210
     15          8           0        2.218661    4.059219   -2.539359
     16          8           0        2.148093    2.961697   -0.523502
     17          7           0       -4.849211   -2.177889   -1.480492
     18          6           0       -3.902799   -2.226224   -2.498971
     19          6           0       -3.848014   -3.568188   -2.972780
     20          6           0       -4.823511   -4.298036   -2.338971
     21          6           0       -5.437846   -3.456702   -1.293297
     22          6           0       -2.780912   -4.022439   -3.928267
     23          6           0       -5.025005   -5.808128   -2.535116
     24          8           0       -4.587361   -6.414179   -3.459842
     25          6           0       -5.908928   -6.573836   -1.753512
     26          7           0       -6.543045   -1.490026    0.949814
     27          6           0       -6.932791   -2.816304    0.706025
     28          6           0       -7.842748   -3.362342    1.823604
     29          6           0       -7.634059   -2.229348    2.915602
     30          6           0       -7.164874   -1.049516    2.120747
     31          6           0       -9.326201   -3.742778    1.430302
     32          6           0       -6.673818   -2.679852    4.006615
     33          6           0       -7.158623   -2.877861    5.438207
     34          7           0       -5.594906    1.196635    0.913985
     35          6           0       -6.292702    1.364620    2.084775
     36          6           0       -6.191769    2.716508    2.523909
     37          6           0       -5.218960    3.328446    1.769507
     38          6           0       -4.903752    2.344852    0.766445
     39          6           0       -6.831839    3.290034    3.747607
     40          6           0       -4.400751    4.513669    1.496489
     41          8           0       -4.263973    5.579489    2.080217
     42          6           0       -3.475603    4.131640    0.304893
     43          6           0       -3.626141    5.100414   -0.788289
     44          8           0       -2.668052    5.646308   -1.327484
     45          8           0       -4.979738    5.351332   -1.031154
     46          6           0       -5.151744    6.746144   -1.686359
     47          6           0        3.424902    2.346181   -0.745219
     48          6           0        3.525419    1.050217   -0.026512
     49          6           0        4.561137    0.361253    0.579850
     50          6           0        6.000416    0.767436    0.510689
     51          6           0        4.347568   -1.091490    1.098306
     52          6           0        5.112642   -2.144773    0.349711
     53          6           0        5.989768   -3.020611    1.288234
     54          6           0        7.507981   -2.982044    1.122731
     55          6           0        8.135294   -4.386209    0.970292
     56          6           0        8.177156   -2.281994    2.363957
     57          6           0        9.628990   -1.837450    2.050606
     58          6           0        9.699759   -0.256627    2.180986
     59          6           0       10.591875    0.392652    1.080404
     60          6           0        9.804619    1.524027    0.265693
     61          6           0       11.933378    0.841266    1.733558
     62          6           0       13.089193   -0.146587    1.462068
     63          6           0       13.776917    0.335025    0.155365
     64          6           0       14.346525   -0.758649   -0.779054
     65          6           0       15.822392   -1.073008   -0.307722
     66          6           0       14.491500   -0.232072   -2.233171
     67          1           0       -2.270180   -1.460237   -3.609646
     68          1           0       -7.019251   -4.558306   -0.375052
     69          1           0       -7.382241    0.355275    3.699306
     70          1           0       -2.209113    3.180552   -2.422032
     71          1           0       -0.945225    0.605940   -2.668254
     72          1           0       -2.279823    0.537649   -4.944016
     73          1           0       -0.844079    1.445924   -4.679101
     74          1           0       -2.440082    2.351451   -4.590056
     75          1           0       -0.091328    1.717260   -1.225015
     76          1           0       -0.943400    2.665311    0.051582
     77          1           0       -0.065696    4.556221   -0.670039
     78          1           0       -0.343515    4.231021   -2.387993
     79          1           0       -3.164003   -4.375514   -4.886211
     80          1           0       -2.334008   -4.963958   -3.609612
     81          1           0       -1.952569   -3.367188   -4.196824
     82          1           0       -6.939269   -6.239765   -1.871506
     83          1           0       -5.534103   -6.533412   -0.731078
     84          1           0       -5.897031   -7.580080   -2.171627
     85          1           0       -7.369842   -4.270331    2.198345
     86          1           0       -8.589390   -1.968245    3.372637
     87          1           0       -9.482551   -4.821798    1.406777
     88          1           0       -9.617276   -3.373341    0.446735
     89          1           0       -9.941892   -3.349355    2.238743
     90          1           0       -5.797560   -2.033343    4.014548
     91          1           0       -6.242579   -3.661497    3.810769
     92          1           0       -7.958814   -2.150411    5.575565
     93          1           0       -6.384846   -2.582663    6.147724
     94          1           0       -7.618051   -3.859410    5.550216
     95          1           0       -6.067132    3.600569    4.458990
     96          1           0       -7.517648    2.551550    4.161717
     97          1           0       -7.338808    4.168037    3.348157
     98          1           0       -2.457305    4.219001    0.681342
     99          1           0       -4.580833    7.506960   -1.153550
    100          1           0       -6.199551    7.045904   -1.654341
    101          1           0       -4.865002    6.718049   -2.737191
    102          1           0        3.962635    3.152296   -0.246575
    103          1           0        3.811743    2.188022   -1.752169
    104          1           0        2.566697    0.616843    0.257748
    105          1           0        6.144696    1.573407   -0.208661
    106          1           0        6.751441    0.054465    0.170642
    107          1           0        6.356055    1.160699    1.462523
    108          1           0        3.289283   -1.351875    1.087513
    109          1           0        4.589153   -1.291731    2.142474
    110          1           0        5.733769   -1.697924   -0.426195
    111          1           0        4.441923   -2.787595   -0.219613
    112          1           0        5.635606   -4.010082    0.997281
    113          1           0        5.767480   -2.882344    2.345985
    114          1           0        7.786499   -2.600779    0.140992
    115          1           0        7.420838   -5.202095    1.080586
    116          1           0        8.929539   -4.650002    1.669710
    117          1           0        8.462053   -4.613596   -0.044816
    118          1           0        8.118181   -2.999098    3.182926
    119          1           0        7.486286   -1.520450    2.724744
    120          1           0        9.924632   -2.101778    1.035118
    121          1           0       10.276324   -2.390182    2.731214
    122          1           0        9.921748   -0.070663    3.231506
    123          1           0        8.730459    0.241000    2.152084
    124          1           0       10.811716   -0.320489    0.285837
    125          1           0        9.563917    2.447285    0.792802
    126          1           0        8.836329    1.105979   -0.009689
    127          1           0       10.240436    1.768323   -0.703380
    128          1           0       11.848287    1.073646    2.794570
    129          1           0       12.152685    1.804956    1.272933
    130          1           0       12.693074   -1.113816    1.155179
    131          1           0       13.793988   -0.398727    2.253615
    132          1           0       14.590333    0.929682    0.568740
    133          1           0       13.188085    1.042219   -0.428414
    134          1           0       13.843222   -1.699463   -0.554859
    135          1           0       16.290179   -0.238678    0.215468
    136          1           0       16.368199   -1.323067   -1.216826
    137          1           0       15.796954   -1.960906    0.322939
    138          1           0       13.479136   -0.413667   -2.592926
    139          1           0       15.167466   -0.770187   -2.898489
    140          1           0       14.622253    0.850199   -2.261145
 ---------------------------------------------------------------------

 SCF Done:  E(RB-LYP) =  -3007.34225236     A.U. after   21 cycles

 Excitation energies and oscillator strengths:

 Excited State   1:      Singlet-A      1.7682 eV  701.19 nm  f=0.0030  <S**2>=0.000
     244 -> 247        0.70152
 This state for optimization and/or second-order correction.
 Total Energy, E(TD-HF/TD-DFT) =  -3007.27727197
 Copying the excited state density for this state as the 1-particle RhoCI density.

 Excited State   2:      Singlet-A      1.8190 eV  681.61 nm  f=0.2835  <S**2>=0.000
     245 -> 248        0.20476
     246 -> 247        0.68277
     246 <- 247       -0.14465

 Excited State   3:      Singlet-A      1.9831 eV  625.21 nm  f=0.0269  <S**2>=0.000
     243 -> 247        0.52704
     245 -> 247       -0.43612
     246 -> 248        0.15749

 Excited State   4:      Singlet-A      2.0743 eV  597.70 nm  f=0.0358  <S**2>=0.000
     243 -> 247        0.46489
     245 -> 247        0.45951
     246 -> 248       -0.24773

 Excited State   5:      Singlet-A      2.1394 eV  579.53 nm  f=0.0012  <S**2>=0.000
     242 -> 247        0.70453

 The electronic state is 1-A.
 Alpha  occ. eigenvalues --  -46.27587 -18.82584 -18.81268 -18.77583 -18.76267
 Alpha  occ. eigenvalues --  -18.75941 -18.75046 -14.03946 -14.03564 -14.01220
 Alpha  occ. eigenvalues --  -14.00979 -10.04333 -10.03698  -9.99996  -9.98778
 Alpha  occ. eigenvalues --   -9.98399  -9.97709  -9.97126  -9.96933  -9.96815
 Alpha  occ. eigenvalues --   -9.96797  -9.96687  -9.95644  -9.95382  -9.94609
 Alpha  occ. eigenvalues --   -9.94597  -9.94046  -9.94037  -9.93854  -9.93805
 Alpha  occ. eigenvalues --   -9.93796  -9.93603  -9.93417  -9.93407  -9.93370
 Alpha  occ. eigenvalues --   -9.93348  -9.93272  -9.93235  -9.93207  -9.93191
 Alpha  occ. eigenvalues --   -9.93005  -9.92677  -9.92446  -9.92392  -9.92255
 Alpha  occ. eigenvalues --   -9.92230  -9.91948  -9.91913  -9.91870  -9.91808
 Alpha  occ. eigenvalues --   -9.91608  -9.91492  -9.91457  -9.91183  -9.91170
 Alpha  occ. eigenvalues --   -9.91169  -9.91116  -9.91105  -9.91079  -9.91070
 Alpha  occ. eigenvalues --   -9.91011  -9.90821  -9.90768  -9.90544  -9.90343
 Alpha  occ. eigenvalues --   -9.90038  -2.92170  -1.72580  -1.72044  -1.71895
 Alpha  occ. eigenvalues --   -0.96954  -0.96684  -0.93680  -0.91492  -0.89552
 Alpha  occ. eigenvalues --   -0.89330  -0.87338  -0.86283  -0.84928  -0.84168
 Alpha  occ. eigenvalues --   -0.75720  -0.73326  -0.72647  -0.72618  -0.72417
 Alpha  occ. eigenvalues --   -0.71943  -0.71606  -0.71072  -0.70454  -0.70311
 Alpha  occ. eigenvalues --   -0.69801  -0.69231  -0.68194  -0.67601  -0.67482
 Alpha  occ. eigenvalues --   -0.66615  -0.66271  -0.65588  -0.64758  -0.64649
 Alpha  occ. eigenvalues --   -0.63873  -0.62676  -0.62512  -0.61974  -0.61314
 Alpha  occ. eigenvalues --   -0.60316  -0.60191  -0.59580  -0.59217  -0.58441
 Alpha  occ. eigenvalues --   -0.58152  -0.57824  -0.57279  -0.56011  -0.54507
 Alpha  occ. eigenvalues --   -0.54342  -0.53832  -0.52823  -0.52399  -0.51713
 Alpha  occ. eigenvalues --   -0.51471  -0.51103  -0.50896  -0.50482  -0.50137
 Alpha  occ. eigenvalues --   -0.49650  -0.49403  -0.49027  -0.48835  -0.46770
 Alpha  occ. eigenvalues --   -0.46754  -0.46049  -0.45885  -0.45568  -0.44653
 Alpha  occ. eigenvalues --   -0.43684  -0.43502  -0.43076  -0.42592  -0.42319
 Alpha  occ. eigenvalues --   -0.41863  -0.41618  -0.41286  -0.41111  -0.40978
 Alpha  occ. eigenvalues --   -0.40956  -0.40884  -0.40402  -0.40337  -0.40203
 Alpha  occ. eigenvalues --   -0.39927  -0.39766  -0.39487  -0.39200  -0.39081
 Alpha  occ. eigenvalues --   -0.38903  -0.38853  -0.38666  -0.38379  -0.38148
 Alpha  occ. eigenvalues --   -0.38059  -0.37839  -0.37471  -0.37192  -0.37012
 Alpha  occ. eigenvalues --   -0.36902  -0.36706  -0.36599  -0.36479  -0.36420
 Alpha  occ. eigenvalues --   -0.36342  -0.36271  -0.35919  -0.35802  -0.35578
 Alpha  occ. eigenvalues --   -0.35461  -0.35213  -0.35092  -0.34921  -0.34763
 Alpha  occ. eigenvalues --   -0.34630  -0.34536  -0.34296  -0.34135  -0.34118
 Alpha  occ. eigenvalues --   -0.34010  -0.33771  -0.33726  -0.33302  -0.33210
 Alpha  occ. eigenvalues --   -0.33039  -0.32855  -0.32748  -0.32396  -0.32162
 Alpha  occ. eigenvalues --   -0.31862  -0.31607  -0.31398  -0.31335  -0.31209
 Alpha  occ. eigenvalues --   -0.31124  -0.31012  -0.30925  -0.30676  -0.30614
 Alpha  occ. eigenvalues --   -0.30557  -0.30500  -0.30340  -0.30280  -0.30101
 Alpha  occ. eigenvalues --   -0.29708  -0.29601  -0.29351  -0.29150  -0.29077
 Alpha  occ. eigenvalues --   -0.28996  -0.28861  -0.28469  -0.27966  -0.27756
 Alpha  occ. eigenvalues --   -0.27714  -0.27162  -0.26943  -0.26859  -0.26641
 Alpha  occ. eigenvalues --   -0.26613  -0.26123  -0.25853  -0.25566  -0.25395
 Alpha  occ. eigenvalues --   -0.25259  -0.24282  -0.24261  -0.24089  -0.23812
 Alpha  occ. eigenvalues --   -0.22728  -0.22228  -0.22087  -0.21192  -0.21079
 Alpha  occ. eigenvalues --   -0.20546  -0.19596  -0.19049  -0.18187  -0.17704
 Alpha  occ. eigenvalues --   -0.16086
 Alpha virt. eigenvalues --   -0.11739  -0.07432  -0.06101  -0.04569  -0.03811
 Alpha virt. eigenvalues --   -0.03400  -0.02851  -0.02311  -0.02070   0.00048
 Alpha virt. eigenvalues --    0.00597   0.01593   0.02388   0.02672   0.02844

 Mulliken charges:
               1
     1  Mg   0.698365
     2  C    0.008931
     3  C   -0.089330
     4  C   -0.064173
     5  C   -0.078094
     6  N   -0.190874
     7  C   -0.077759
     8  C    0.010408
     9  C   -0.016696
    10  C    0.022909
    11  C    0.148184
    12  C    0.106444
    13  C    0.157741
    14  C    0.052645
    15  O   -0.185837
    16  O   -0.298505
    17  N   -0.351687
    18  C    0.176798
    19  C   -0.116818
    20  C    0.059582
    21  C    0.136141
    22  C    0.193033
    23  C   -0.126812
    24  O   -0.145074
    25  C    0.169024
    26  N   -0.262768
    27  C    0.038976
    28  C   -0.011136
    29  C    0.027619
    30  C    0.032544
    31  C    0.131078
    32  C    0.084355
    33  C    0.077230
    34  N   -0.207321
    35  C    0.115731
    36  C   -0.222466
    37  C    0.089526
    38  C    0.037003
    39  C    0.183596
    40  C   -0.028857
    41  O   -0.127345
    42  C    0.083315
    43  C    0.116864
    44  O   -0.179150
    45  O   -0.306992
    46  C    0.217125
    47  C    0.332777
    48  C   -0.099989
    49  C   -0.130501
    50  C    0.079646
    51  C    0.160772
    52  C    0.059891
    53  C    0.118746
    54  C   -0.077660
    55  C    0.090221
    56  C    0.086141
    57  C    0.091102
    58  C    0.106225
    59  C   -0.068133
    60  C    0.079030
    61  C    0.148076
    62  C    0.081380
    63  C    0.056071
    64  C   -0.099580
    65  C    0.089198
    66  C    0.109269
    67  H   -0.059110
    68  H   -0.065667
    69  H   -0.052756
    70  H   -0.015075
    71  H   -0.025628
    72  H   -0.011135
    73  H   -0.003098
    74  H    0.012448
    75  H   -0.017131
    76  H   -0.008421
    77  H    0.013768
    78  H    0.003890
    79  H   -0.008035
    80  H   -0.009544
    81  H   -0.020321
    82  H    0.017397
    83  H   -0.002037
    84  H   -0.012760
    85  H   -0.019969
    86  H   -0.040616
    87  H   -0.006619
    88  H    0.000524
    89  H   -0.007439
    90  H   -0.019957
    91  H   -0.026083
    92  H   -0.025951
    93  H    0.000959
    94  H   -0.002004
    95  H    0.016323
    96  H   -0.017626
    97  H    0.008558
    98  H   -0.002313
    99  H    0.033248
   100  H    0.016951
   101  H    0.020830
   102  H   -0.003008
   103  H    0.019997
   104  H   -0.027427
   105  H   -0.021650
   106  H    0.027754
   107  H    0.008976
   108  H   -0.047411
   109  H   -0.037212
   110  H   -0.029912
   111  H   -0.036197
   112  H   -0.046650
   113  H   -0.030783
   114  H   -0.039542
   115  H   -0.036456
   116  H   -0.016582
   117  H   -0.028659
   118  H   -0.039860
   119  H   -0.031624
   120  H   -0.018104
   121  H   -0.022089
   122  H   -0.034688
   123  H   -0.043867
   124  H   -0.030552
   125  H   -0.010894
   126  H   -0.032252
   127  H   -0.016731
   128  H   -0.043312
   129  H   -0.044007
   130  H   -0.038466
   131  H   -0.027911
   132  H   -0.032716
   133  H   -0.028608
   134  H   -0.029917
   135  H   -0.013097
   136  H   -0.027616
   137  H   -0.022652
   138  H   -0.022390
   139  H   -0.005023
   140  H   -0.004617
 Sum of Mulliken charges =  -0.00000

 Dipole moment (field-independent basis, Debye):
    X=             -3.4678    Y=             -3.1897    Z=              1.6167  Tot=              4.9813
 Quadrupole moment (field-independent basis, Debye-Ang):
   XX=           -364.9587   YY=           -437.0762   ZZ=           -405.9290
   XY=             -1.9021   XZ=             -4.4042   YZ=            -23.6903

 Normal termination of Gaussian 16 at Wed May  4 18:05:16 2022.
