 Gaussian 16, Revision A.03,
 Gaussian 16:  ES64L-G16RevA.03 25-Dec-2016

 -----------------------------------
 #p cam-b3lyp/Def2SVP td=(nstates=5)
 -----------------------------------

 ------------------------------------------------------
 step_201_chromophore_5 TDDFT with cam-b3lyp functional
 ------------------------------------------------------
 Symbolic Z-matrix:
 Charge =  0 Multiplicity = 1

                         Standard orientation:
 ---------------------------------------------------------------------
 Center     Atomic      Atomic             Coordinates (Angstroms)
 Number     Number       Type             X           Y           Z
 ---------------------------------------------------------------------
      1         12           0       -5.392925   -0.446499   -0.495698
      2          6           0       -3.882512    2.715979   -0.121058
      3          6           0       -3.028392   -1.216215   -2.862536
      4          6           0       -6.418533   -3.649245   -0.302405
      5          6           0       -7.005006    0.262221    2.679123
      6          7           0       -3.649908    0.616141   -1.291914
      7          6           0       -3.281090    1.895744   -1.075990
      8          6           0       -2.047097    2.269978   -1.845412
      9          6           0       -1.904447    1.084969   -2.864604
     10          6           0       -2.920419    0.090155   -2.303850
     11          6           0       -1.902991    1.417519   -4.423266
     12          6           0       -0.745466    2.563549   -1.015720
     13          6           0        0.085010    3.830301   -1.468972
     14          6           0        1.557608    3.664627   -1.584210
     15          8           0        2.218661    4.059219   -2.539359
     16          8           0        2.148093    2.961697   -0.523502
     17          7           0       -4.849211   -2.177889   -1.480492
     18          6           0       -3.902799   -2.226224   -2.498971
     19          6           0       -3.848014   -3.568188   -2.972780
     20          6           0       -4.823511   -4.298036   -2.338971
     21          6           0       -5.437846   -3.456702   -1.293297
     22          6           0       -2.780912   -4.022439   -3.928267
     23          6           0       -5.025005   -5.808128   -2.535116
     24          8           0       -4.587361   -6.414179   -3.459842
     25          6           0       -5.908928   -6.573836   -1.753512
     26          7           0       -6.543045   -1.490026    0.949814
     27          6           0       -6.932791   -2.816304    0.706025
     28          6           0       -7.842748   -3.362342    1.823604
     29          6           0       -7.634059   -2.229348    2.915602
     30          6           0       -7.164874   -1.049516    2.120747
     31          6           0       -9.326201   -3.742778    1.430302
     32          6           0       -6.673818   -2.679852    4.006615
     33          6           0       -7.158623   -2.877861    5.438207
     34          7           0       -5.594906    1.196635    0.913985
     35          6           0       -6.292702    1.364620    2.084775
     36          6           0       -6.191769    2.716508    2.523909
     37          6           0       -5.218960    3.328446    1.769507
     38          6           0       -4.903752    2.344852    0.766445
     39          6           0       -6.831839    3.290034    3.747607
     40          6           0       -4.400751    4.513669    1.496489
     41          8           0       -4.263973    5.579489    2.080217
     42          6           0       -3.475603    4.131640    0.304893
     43          6           0       -3.626141    5.100414   -0.788289
     44          8           0       -2.668052    5.646308   -1.327484
     45          8           0       -4.979738    5.351332   -1.031154
     46          6           0       -5.151744    6.746144   -1.686359
     47          6           0        3.424902    2.346181   -0.745219
     48          6           0        3.525419    1.050217   -0.026512
     49          6           0        4.561137    0.361253    0.579850
     50          6           0        6.000416    0.767436    0.510689
     51          6           0        4.347568   -1.091490    1.098306
     52          6           0        5.112642   -2.144773    0.349711
     53          6           0        5.989768   -3.020611    1.288234
     54          6           0        7.507981   -2.982044    1.122731
     55          6           0        8.135294   -4.386209    0.970292
     56          6           0        8.177156   -2.281994    2.363957
     57          6           0        9.628990   -1.837450    2.050606
     58          6           0        9.699759   -0.256627    2.180986
     59          6           0       10.591875    0.392652    1.080404
     60          6           0        9.804619    1.524027    0.265693
     61          6           0       11.933378    0.841266    1.733558
     62          6           0       13.089193   -0.146587    1.462068
     63          6           0       13.776917    0.335025    0.155365
     64          6           0       14.346525   -0.758649   -0.779054
     65          6           0       15.822392   -1.073008   -0.307722
     66          6           0       14.491500   -0.232072   -2.233171
     67          1           0       -2.270180   -1.460237   -3.609646
     68          1           0       -7.019251   -4.558306   -0.375052
     69          1           0       -7.382241    0.355275    3.699306
     70          1           0       -2.209113    3.180552   -2.422032
     71          1           0       -0.945225    0.605940   -2.668254
     72          1           0       -2.279823    0.537649   -4.944016
     73          1           0       -0.844079    1.445924   -4.679101
     74          1           0       -2.440082    2.351451   -4.590056
     75          1           0       -0.091328    1.717260   -1.225015
     76          1           0       -0.943400    2.665311    0.051582
     77          1           0       -0.065696    4.556221   -0.670039
     78          1           0       -0.343515    4.231021   -2.387993
     79          1           0       -3.164003   -4.375514   -4.886211
     80          1           0       -2.334008   -4.963958   -3.609612
     81          1           0       -1.952569   -3.367188   -4.196824
     82          1           0       -6.939269   -6.239765   -1.871506
     83          1           0       -5.534103   -6.533412   -0.731078
     84          1           0       -5.897031   -7.580080   -2.171627
     85          1           0       -7.369842   -4.270331    2.198345
     86          1           0       -8.589390   -1.968245    3.372637
     87          1           0       -9.482551   -4.821798    1.406777
     88          1           0       -9.617276   -3.373341    0.446735
     89          1           0       -9.941892   -3.349355    2.238743
     90          1           0       -5.797560   -2.033343    4.014548
     91          1           0       -6.242579   -3.661497    3.810769
     92          1           0       -7.958814   -2.150411    5.575565
     93          1           0       -6.384846   -2.582663    6.147724
     94          1           0       -7.618051   -3.859410    5.550216
     95          1           0       -6.067132    3.600569    4.458990
     96          1           0       -7.517648    2.551550    4.161717
     97          1           0       -7.338808    4.168037    3.348157
     98          1           0       -2.457305    4.219001    0.681342
     99          1           0       -4.580833    7.506960   -1.153550
    100          1           0       -6.199551    7.045904   -1.654341
    101          1           0       -4.865002    6.718049   -2.737191
    102          1           0        3.962635    3.152296   -0.246575
    103          1           0        3.811743    2.188022   -1.752169
    104          1           0        2.566697    0.616843    0.257748
    105          1           0        6.144696    1.573407   -0.208661
    106          1           0        6.751441    0.054465    0.170642
    107          1           0        6.356055    1.160699    1.462523
    108          1           0        3.289283   -1.351875    1.087513
    109          1           0        4.589153   -1.291731    2.142474
    110          1           0        5.733769   -1.697924   -0.426195
    111          1           0        4.441923   -2.787595   -0.219613
    112          1           0        5.635606   -4.010082    0.997281
    113          1           0        5.767480   -2.882344    2.345985
    114          1           0        7.786499   -2.600779    0.140992
    115          1           0        7.420838   -5.202095    1.080586
    116          1           0        8.929539   -4.650002    1.669710
    117          1           0        8.462053   -4.613596   -0.044816
    118          1           0        8.118181   -2.999098    3.182926
    119          1           0        7.486286   -1.520450    2.724744
    120          1           0        9.924632   -2.101778    1.035118
    121          1           0       10.276324   -2.390182    2.731214
    122          1           0        9.921748   -0.070663    3.231506
    123          1           0        8.730459    0.241000    2.152084
    124          1           0       10.811716   -0.320489    0.285837
    125          1           0        9.563917    2.447285    0.792802
    126          1           0        8.836329    1.105979   -0.009689
    127          1           0       10.240436    1.768323   -0.703380
    128          1           0       11.848287    1.073646    2.794570
    129          1           0       12.152685    1.804956    1.272933
    130          1           0       12.693074   -1.113816    1.155179
    131          1           0       13.793988   -0.398727    2.253615
    132          1           0       14.590333    0.929682    0.568740
    133          1           0       13.188085    1.042219   -0.428414
    134          1           0       13.843222   -1.699463   -0.554859
    135          1           0       16.290179   -0.238678    0.215468
    136          1           0       16.368199   -1.323067   -1.216826
    137          1           0       15.796954   -1.960906    0.322939
    138          1           0       13.479136   -0.413667   -2.592926
    139          1           0       15.167466   -0.770187   -2.898489
    140          1           0       14.622253    0.850199   -2.261145
 ---------------------------------------------------------------------

 SCF Done:  E(RCAM-B3LYP) =  -3007.13503589     A.U. after   17 cycles

 Excitation energies and oscillator strengths:

 Excited State   1:      Singlet-A      1.7158 eV  722.62 nm  f=0.3615  <S**2>=0.000
     245 -> 248        0.18734
     246 -> 247        0.68427
     245 <- 248        0.10999
 This state for optimization and/or second-order correction.
 Total Energy, E(TD-HF/TD-DFT) =  -3007.07198324
 Copying the excited state density for this state as the 1-particle RhoCI density.

 Excited State   2:      Singlet-A      2.2536 eV  550.15 nm  f=0.0655  <S**2>=0.000
     245 -> 247        0.61497
     246 -> 248       -0.33887

 Excited State   3:      Singlet-A      3.3971 eV  364.97 nm  f=0.0751  <S**2>=0.000
     242 -> 247       -0.32171
     243 -> 247        0.56347
     246 -> 248       -0.22496

 Excited State   4:      Singlet-A      3.4535 eV  359.01 nm  f=0.4852  <S**2>=0.000
     242 -> 247        0.17307
     243 -> 247        0.34531
     245 -> 247        0.26937
     246 -> 248        0.51830

 Excited State   5:      Singlet-A      3.6319 eV  341.37 nm  f=0.0130  <S**2>=0.000
     240 -> 247        0.55769
     240 -> 249       -0.33559
     240 -> 251       -0.14652

 The electronic state is 1-A.
 Alpha  occ. eigenvalues --  -46.89214 -19.25515 -19.24091 -19.20726 -19.19293
 Alpha  occ. eigenvalues --  -19.19084 -19.18355 -14.42957 -14.42479 -14.39838
 Alpha  occ. eigenvalues --  -14.39331 -10.39791 -10.39042 -10.35288 -10.33891
 Alpha  occ. eigenvalues --  -10.32499 -10.31882 -10.31658 -10.31652 -10.31607
 Alpha  occ. eigenvalues --  -10.31063 -10.31022 -10.29970 -10.29599 -10.28729
 Alpha  occ. eigenvalues --  -10.28639 -10.28210 -10.28132 -10.28118 -10.28073
 Alpha  occ. eigenvalues --  -10.27888 -10.27867 -10.27662 -10.27551 -10.27517
 Alpha  occ. eigenvalues --  -10.27508 -10.27375 -10.27367 -10.27291 -10.27047
 Alpha  occ. eigenvalues --  -10.27010 -10.26932 -10.26174 -10.26037 -10.25925
 Alpha  occ. eigenvalues --  -10.25914 -10.25823 -10.25777 -10.25596 -10.25525
 Alpha  occ. eigenvalues --  -10.25267 -10.25174 -10.25165 -10.25159 -10.25129
 Alpha  occ. eigenvalues --  -10.24855 -10.24766 -10.24759 -10.24747 -10.24728
 Alpha  occ. eigenvalues --  -10.24596 -10.24476 -10.24428 -10.24202 -10.23946
 Alpha  occ. eigenvalues --  -10.23639  -3.17693  -1.92579  -1.92139  -1.91998
 Alpha  occ. eigenvalues --   -1.15369  -1.15211  -1.12306  -1.09848  -1.07410
 Alpha  occ. eigenvalues --   -1.07207  -1.05147  -1.03773  -1.02644  -1.01812
 Alpha  occ. eigenvalues --   -0.92819  -0.90183  -0.89416  -0.89357  -0.89183
 Alpha  occ. eigenvalues --   -0.88649  -0.88288  -0.87660  -0.86916  -0.86849
 Alpha  occ. eigenvalues --   -0.86574  -0.85632  -0.84548  -0.83808  -0.83686
 Alpha  occ. eigenvalues --   -0.82854  -0.82321  -0.81609  -0.80518  -0.80425
 Alpha  occ. eigenvalues --   -0.79652  -0.78299  -0.77998  -0.77722  -0.76755
 Alpha  occ. eigenvalues --   -0.75680  -0.75558  -0.74884  -0.74488  -0.73585
 Alpha  occ. eigenvalues --   -0.73207  -0.72864  -0.72252  -0.70912  -0.69078
 Alpha  occ. eigenvalues --   -0.68967  -0.68393  -0.67367  -0.66790  -0.65845
 Alpha  occ. eigenvalues --   -0.65623  -0.65265  -0.65090  -0.64385  -0.64196
 Alpha  occ. eigenvalues --   -0.63510  -0.63240  -0.62764  -0.62716  -0.60410
 Alpha  occ. eigenvalues --   -0.60346  -0.59689  -0.59515  -0.58897  -0.58036
 Alpha  occ. eigenvalues --   -0.57110  -0.56969  -0.56375  -0.55731  -0.55495
 Alpha  occ. eigenvalues --   -0.55233  -0.54709  -0.54205  -0.53907  -0.53890
 Alpha  occ. eigenvalues --   -0.53723  -0.53683  -0.53128  -0.53111  -0.52806
 Alpha  occ. eigenvalues --   -0.52771  -0.52631  -0.52077  -0.51744  -0.51706
 Alpha  occ. eigenvalues --   -0.51551  -0.51353  -0.51325  -0.50780  -0.50503
 Alpha  occ. eigenvalues --   -0.50394  -0.50180  -0.50018  -0.49650  -0.49493
 Alpha  occ. eigenvalues --   -0.49407  -0.49205  -0.48927  -0.48736  -0.48523
 Alpha  occ. eigenvalues --   -0.48452  -0.48369  -0.48325  -0.48113  -0.47658
 Alpha  occ. eigenvalues --   -0.47469  -0.47231  -0.47171  -0.46954  -0.46815
 Alpha  occ. eigenvalues --   -0.46491  -0.46347  -0.46063  -0.45969  -0.45825
 Alpha  occ. eigenvalues --   -0.45723  -0.45615  -0.45576  -0.45167  -0.44915
 Alpha  occ. eigenvalues --   -0.44794  -0.44775  -0.44517  -0.43915  -0.43806
 Alpha  occ. eigenvalues --   -0.43550  -0.43433  -0.42985  -0.42821  -0.42774
 Alpha  occ. eigenvalues --   -0.42592  -0.42503  -0.42363  -0.42249  -0.42126
 Alpha  occ. eigenvalues --   -0.41952  -0.41903  -0.41566  -0.41459  -0.41326
 Alpha  occ. eigenvalues --   -0.41042  -0.40819  -0.40549  -0.40386  -0.40092
 Alpha  occ. eigenvalues --   -0.40052  -0.39969  -0.39493  -0.39073  -0.38709
 Alpha  occ. eigenvalues --   -0.38582  -0.38044  -0.38027  -0.37809  -0.37785
 Alpha  occ. eigenvalues --   -0.37354  -0.37344  -0.36753  -0.36570  -0.36028
 Alpha  occ. eigenvalues --   -0.35941  -0.35472  -0.35263  -0.34773  -0.34763
 Alpha  occ. eigenvalues --   -0.33464  -0.33303  -0.32532  -0.31625  -0.31055
 Alpha  occ. eigenvalues --   -0.30686  -0.30469  -0.29948  -0.29141  -0.24620
 Alpha  occ. eigenvalues --   -0.21341
 Alpha virt. eigenvalues --   -0.08778  -0.02510   0.00480   0.01470   0.02516
 Alpha virt. eigenvalues --    0.04141   0.04602   0.04857   0.05541   0.06938
 Alpha virt. eigenvalues --    0.07869   0.08157   0.08772   0.08828   0.09161

 Mulliken charges:
               1
     1  Mg   0.827863
     2  C   -0.025143
     3  C   -0.101987
     4  C   -0.086871
     5  C   -0.081833
     6  N   -0.262410
     7  C   -0.032434
     8  C   -0.037226
     9  C   -0.072648
    10  C    0.045209
    11  C    0.092091
    12  C    0.056375
    13  C    0.083093
    14  C    0.140436
    15  O   -0.226553
    16  O   -0.362174
    17  N   -0.439150
    18  C    0.189499
    19  C   -0.123670
    20  C   -0.006646
    21  C    0.164926
    22  C    0.130773
    23  C   -0.042937
    24  O   -0.183364
    25  C    0.073417
    26  N   -0.330941
    27  C    0.062576
    28  C   -0.065428
    29  C   -0.034528
    30  C    0.052409
    31  C    0.075266
    32  C    0.026712
    33  C    0.017754
    34  N   -0.292044
    35  C    0.112836
    36  C   -0.219033
    37  C    0.013460
    38  C    0.075623
    39  C    0.132624
    40  C    0.076194
    41  O   -0.166679
    42  C    0.002340
    43  C    0.209177
    44  O   -0.219476
    45  O   -0.370009
    46  C    0.178075
    47  C    0.295248
    48  C   -0.119936
    49  C   -0.149705
    50  C    0.022933
    51  C    0.103748
    52  C    0.001563
    53  C    0.061171
    54  C   -0.133997
    55  C    0.031518
    56  C    0.035563
    57  C    0.039501
    58  C    0.054320
    59  C   -0.125274
    60  C    0.031797
    61  C    0.086201
    62  C    0.033022
    63  C    0.004582
    64  C   -0.161002
    65  C    0.034696
    66  C    0.046035
    67  H   -0.023699
    68  H   -0.031607
    69  H   -0.019306
    70  H    0.017513
    71  H    0.009482
    72  H    0.013192
    73  H    0.021841
    74  H    0.036138
    75  H    0.011091
    76  H    0.022227
    77  H    0.045322
    78  H    0.037134
    79  H    0.023257
    80  H    0.020388
    81  H    0.008143
    82  H    0.044195
    83  H    0.026975
    84  H    0.025180
    85  H    0.015964
    86  H   -0.004993
    87  H    0.016928
    88  H    0.025228
    89  H    0.016982
    90  H    0.011761
    91  H    0.001595
    92  H   -0.004656
    93  H    0.025837
    94  H    0.019884
    95  H    0.040983
    96  H    0.005805
    97  H    0.033800
    98  H    0.037837
    99  H    0.055625
   100  H    0.041455
   101  H    0.043934
   102  H    0.027456
   103  H    0.049114
   104  H    0.003627
   105  H    0.002825
   106  H    0.043069
   107  H    0.032236
   108  H   -0.014946
   109  H   -0.007242
   110  H   -0.001317
   111  H   -0.004748
   112  H   -0.014424
   113  H   -0.003113
   114  H   -0.008728
   115  H   -0.010334
   116  H    0.007488
   117  H   -0.003180
   118  H   -0.010216
   119  H   -0.006003
   120  H    0.006551
   121  H    0.005653
   122  H   -0.004764
   123  H   -0.017219
   124  H   -0.000612
   125  H    0.012145
   126  H   -0.013707
   127  H    0.007297
   128  H   -0.012191
   129  H   -0.013503
   130  H   -0.014186
   131  H    0.001645
   132  H   -0.004258
   133  H   -0.002640
   134  H    0.001150
   135  H    0.009624
   136  H   -0.003615
   137  H    0.001081
   138  H    0.002187
   139  H    0.019347
   140  H    0.019489
 Sum of Mulliken charges =  -0.00000

 Dipole moment (field-independent basis, Debye):
    X=             -3.5912    Y=             -3.8311    Z=              1.3053  Tot=              5.4109
 Quadrupole moment (field-independent basis, Debye-Ang):
   XX=           -363.8042   YY=           -433.8224   ZZ=           -404.9056
   XY=              0.6868   XZ=             -3.5462   YZ=            -23.7915

 Normal termination of Gaussian 16 at Wed May  4 16:56:09 2022.
