 Gaussian 16, Revision A.03,
 Gaussian 16:  ES64L-G16RevA.03 25-Dec-2016

 ---------------------------------
 #p PBE1PBE/Def2SVP td=(nstates=5)
 ---------------------------------

 ----------------------------------------------------
 step_201_chromophore_5 TDDFT with PBE1PBE functional
 ----------------------------------------------------
 Symbolic Z-matrix:
 Charge =  0 Multiplicity = 1

                         Standard orientation:
 ---------------------------------------------------------------------
 Center     Atomic      Atomic             Coordinates (Angstroms)
 Number     Number       Type             X           Y           Z
 ---------------------------------------------------------------------
      1         12           0       -5.392925   -0.446499   -0.495698
      2          6           0       -3.882512    2.715979   -0.121058
      3          6           0       -3.028392   -1.216215   -2.862536
      4          6           0       -6.418533   -3.649245   -0.302405
      5          6           0       -7.005006    0.262221    2.679123
      6          7           0       -3.649908    0.616141   -1.291914
      7          6           0       -3.281090    1.895744   -1.075990
      8          6           0       -2.047097    2.269978   -1.845412
      9          6           0       -1.904447    1.084969   -2.864604
     10          6           0       -2.920419    0.090155   -2.303850
     11          6           0       -1.902991    1.417519   -4.423266
     12          6           0       -0.745466    2.563549   -1.015720
     13          6           0        0.085010    3.830301   -1.468972
     14          6           0        1.557608    3.664627   -1.584210
     15          8           0        2.218661    4.059219   -2.539359
     16          8           0        2.148093    2.961697   -0.523502
     17          7           0       -4.849211   -2.177889   -1.480492
     18          6           0       -3.902799   -2.226224   -2.498971
     19          6           0       -3.848014   -3.568188   -2.972780
     20          6           0       -4.823511   -4.298036   -2.338971
     21          6           0       -5.437846   -3.456702   -1.293297
     22          6           0       -2.780912   -4.022439   -3.928267
     23          6           0       -5.025005   -5.808128   -2.535116
     24          8           0       -4.587361   -6.414179   -3.459842
     25          6           0       -5.908928   -6.573836   -1.753512
     26          7           0       -6.543045   -1.490026    0.949814
     27          6           0       -6.932791   -2.816304    0.706025
     28          6           0       -7.842748   -3.362342    1.823604
     29          6           0       -7.634059   -2.229348    2.915602
     30          6           0       -7.164874   -1.049516    2.120747
     31          6           0       -9.326201   -3.742778    1.430302
     32          6           0       -6.673818   -2.679852    4.006615
     33          6           0       -7.158623   -2.877861    5.438207
     34          7           0       -5.594906    1.196635    0.913985
     35          6           0       -6.292702    1.364620    2.084775
     36          6           0       -6.191769    2.716508    2.523909
     37          6           0       -5.218960    3.328446    1.769507
     38          6           0       -4.903752    2.344852    0.766445
     39          6           0       -6.831839    3.290034    3.747607
     40          6           0       -4.400751    4.513669    1.496489
     41          8           0       -4.263973    5.579489    2.080217
     42          6           0       -3.475603    4.131640    0.304893
     43          6           0       -3.626141    5.100414   -0.788289
     44          8           0       -2.668052    5.646308   -1.327484
     45          8           0       -4.979738    5.351332   -1.031154
     46          6           0       -5.151744    6.746144   -1.686359
     47          6           0        3.424902    2.346181   -0.745219
     48          6           0        3.525419    1.050217   -0.026512
     49          6           0        4.561137    0.361253    0.579850
     50          6           0        6.000416    0.767436    0.510689
     51          6           0        4.347568   -1.091490    1.098306
     52          6           0        5.112642   -2.144773    0.349711
     53          6           0        5.989768   -3.020611    1.288234
     54          6           0        7.507981   -2.982044    1.122731
     55          6           0        8.135294   -4.386209    0.970292
     56          6           0        8.177156   -2.281994    2.363957
     57          6           0        9.628990   -1.837450    2.050606
     58          6           0        9.699759   -0.256627    2.180986
     59          6           0       10.591875    0.392652    1.080404
     60          6           0        9.804619    1.524027    0.265693
     61          6           0       11.933378    0.841266    1.733558
     62          6           0       13.089193   -0.146587    1.462068
     63          6           0       13.776917    0.335025    0.155365
     64          6           0       14.346525   -0.758649   -0.779054
     65          6           0       15.822392   -1.073008   -0.307722
     66          6           0       14.491500   -0.232072   -2.233171
     67          1           0       -2.270180   -1.460237   -3.609646
     68          1           0       -7.019251   -4.558306   -0.375052
     69          1           0       -7.382241    0.355275    3.699306
     70          1           0       -2.209113    3.180552   -2.422032
     71          1           0       -0.945225    0.605940   -2.668254
     72          1           0       -2.279823    0.537649   -4.944016
     73          1           0       -0.844079    1.445924   -4.679101
     74          1           0       -2.440082    2.351451   -4.590056
     75          1           0       -0.091328    1.717260   -1.225015
     76          1           0       -0.943400    2.665311    0.051582
     77          1           0       -0.065696    4.556221   -0.670039
     78          1           0       -0.343515    4.231021   -2.387993
     79          1           0       -3.164003   -4.375514   -4.886211
     80          1           0       -2.334008   -4.963958   -3.609612
     81          1           0       -1.952569   -3.367188   -4.196824
     82          1           0       -6.939269   -6.239765   -1.871506
     83          1           0       -5.534103   -6.533412   -0.731078
     84          1           0       -5.897031   -7.580080   -2.171627
     85          1           0       -7.369842   -4.270331    2.198345
     86          1           0       -8.589390   -1.968245    3.372637
     87          1           0       -9.482551   -4.821798    1.406777
     88          1           0       -9.617276   -3.373341    0.446735
     89          1           0       -9.941892   -3.349355    2.238743
     90          1           0       -5.797560   -2.033343    4.014548
     91          1           0       -6.242579   -3.661497    3.810769
     92          1           0       -7.958814   -2.150411    5.575565
     93          1           0       -6.384846   -2.582663    6.147724
     94          1           0       -7.618051   -3.859410    5.550216
     95          1           0       -6.067132    3.600569    4.458990
     96          1           0       -7.517648    2.551550    4.161717
     97          1           0       -7.338808    4.168037    3.348157
     98          1           0       -2.457305    4.219001    0.681342
     99          1           0       -4.580833    7.506960   -1.153550
    100          1           0       -6.199551    7.045904   -1.654341
    101          1           0       -4.865002    6.718049   -2.737191
    102          1           0        3.962635    3.152296   -0.246575
    103          1           0        3.811743    2.188022   -1.752169
    104          1           0        2.566697    0.616843    0.257748
    105          1           0        6.144696    1.573407   -0.208661
    106          1           0        6.751441    0.054465    0.170642
    107          1           0        6.356055    1.160699    1.462523
    108          1           0        3.289283   -1.351875    1.087513
    109          1           0        4.589153   -1.291731    2.142474
    110          1           0        5.733769   -1.697924   -0.426195
    111          1           0        4.441923   -2.787595   -0.219613
    112          1           0        5.635606   -4.010082    0.997281
    113          1           0        5.767480   -2.882344    2.345985
    114          1           0        7.786499   -2.600779    0.140992
    115          1           0        7.420838   -5.202095    1.080586
    116          1           0        8.929539   -4.650002    1.669710
    117          1           0        8.462053   -4.613596   -0.044816
    118          1           0        8.118181   -2.999098    3.182926
    119          1           0        7.486286   -1.520450    2.724744
    120          1           0        9.924632   -2.101778    1.035118
    121          1           0       10.276324   -2.390182    2.731214
    122          1           0        9.921748   -0.070663    3.231506
    123          1           0        8.730459    0.241000    2.152084
    124          1           0       10.811716   -0.320489    0.285837
    125          1           0        9.563917    2.447285    0.792802
    126          1           0        8.836329    1.105979   -0.009689
    127          1           0       10.240436    1.768323   -0.703380
    128          1           0       11.848287    1.073646    2.794570
    129          1           0       12.152685    1.804956    1.272933
    130          1           0       12.693074   -1.113816    1.155179
    131          1           0       13.793988   -0.398727    2.253615
    132          1           0       14.590333    0.929682    0.568740
    133          1           0       13.188085    1.042219   -0.428414
    134          1           0       13.843222   -1.699463   -0.554859
    135          1           0       16.290179   -0.238678    0.215468
    136          1           0       16.368199   -1.323067   -1.216826
    137          1           0       15.796954   -1.960906    0.322939
    138          1           0       13.479136   -0.413667   -2.592926
    139          1           0       15.167466   -0.770187   -2.898489
    140          1           0       14.622253    0.850199   -2.261145
 ---------------------------------------------------------------------

 SCF Done:  E(RPBE1PBE) =  -3005.32349237     A.U. after   15 cycles

 Excitation energies and oscillator strengths:

 Excited State   1:      Singlet-A      1.8659 eV  664.47 nm  f=0.3496  <S**2>=0.000
     245 -> 248        0.18293
     246 -> 247        0.69072
     246 <- 247       -0.10352
 This state for optimization and/or second-order correction.
 Total Energy, E(TD-HF/TD-DFT) =  -3005.25492150
 Copying the excited state density for this state as the 1-particle RhoCI density.

 Excited State   2:      Singlet-A      2.2608 eV  548.41 nm  f=0.0715  <S**2>=0.000
     245 -> 247        0.63108
     246 -> 248       -0.30998

 Excited State   3:      Singlet-A      3.0088 eV  412.07 nm  f=0.0001  <S**2>=0.000
     243 -> 247        0.68240
     243 -> 249        0.11417
     243 -> 250       -0.11149

 Excited State   4:      Singlet-A      3.0584 eV  405.39 nm  f=0.0012  <S**2>=0.000
     241 -> 247        0.17295
     242 -> 247        0.66832

 Excited State   5:      Singlet-A      3.0983 eV  400.17 nm  f=0.0031  <S**2>=0.000
     241 -> 247        0.64185
     241 -> 249       -0.15883
     242 -> 247       -0.19541
     246 -> 248       -0.10026

 The electronic state is 1-A.
 Alpha  occ. eigenvalues --  -46.92598 -19.26162 -19.24821 -19.20968 -19.19601
 Alpha  occ. eigenvalues --  -19.19415 -19.18446 -14.42385 -14.42046 -14.39448
 Alpha  occ. eigenvalues --  -14.39046 -10.36831 -10.36108 -10.32531 -10.30887
 Alpha  occ. eigenvalues --  -10.29718 -10.29492 -10.29233 -10.29139 -10.29013
 Alpha  occ. eigenvalues --  -10.28963 -10.28831 -10.27521 -10.27430 -10.26573
 Alpha  occ. eigenvalues --  -10.26472 -10.25919 -10.25893 -10.25782 -10.25768
 Alpha  occ. eigenvalues --  -10.25719 -10.25632 -10.25395 -10.25234 -10.25217
 Alpha  occ. eigenvalues --  -10.25121 -10.25056 -10.25046 -10.24813 -10.24510
 Alpha  occ. eigenvalues --  -10.24478 -10.24454 -10.23899 -10.23706 -10.23476
 Alpha  occ. eigenvalues --  -10.23309 -10.23282 -10.23276 -10.23243 -10.23234
 Alpha  occ. eigenvalues --  -10.23012 -10.22725 -10.22716 -10.22639 -10.22433
 Alpha  occ. eigenvalues --  -10.22374 -10.22344 -10.22301 -10.22264 -10.22186
 Alpha  occ. eigenvalues --  -10.22038 -10.22013 -10.22006 -10.21772 -10.21353
 Alpha  occ. eigenvalues --  -10.21048  -3.14656  -1.87482  -1.87020  -1.86884
 Alpha  occ. eigenvalues --   -1.10214  -1.09934  -1.06962  -1.04687  -1.02244
 Alpha  occ. eigenvalues --   -1.02106  -0.99748  -0.98561  -0.97170  -0.96356
 Alpha  occ. eigenvalues --   -0.87219  -0.84285  -0.83644  -0.83614  -0.83282
 Alpha  occ. eigenvalues --   -0.82936  -0.82414  -0.82037  -0.81297  -0.80962
 Alpha  occ. eigenvalues --   -0.80774  -0.79859  -0.78737  -0.78027  -0.77958
 Alpha  occ. eigenvalues --   -0.77072  -0.76498  -0.75904  -0.74845  -0.74691
 Alpha  occ. eigenvalues --   -0.73799  -0.72612  -0.72300  -0.71923  -0.71035
 Alpha  occ. eigenvalues --   -0.69992  -0.69714  -0.68981  -0.68609  -0.67840
 Alpha  occ. eigenvalues --   -0.67594  -0.67205  -0.66669  -0.65235  -0.63589
 Alpha  occ. eigenvalues --   -0.63336  -0.62619  -0.61757  -0.60995  -0.60318
 Alpha  occ. eigenvalues --   -0.60050  -0.59620  -0.59486  -0.58972  -0.58304
 Alpha  occ. eigenvalues --   -0.57848  -0.57561  -0.57279  -0.56963  -0.54945
 Alpha  occ. eigenvalues --   -0.54714  -0.54209  -0.54072  -0.53534  -0.52694
 Alpha  occ. eigenvalues --   -0.51576  -0.51468  -0.50844  -0.50179  -0.50102
 Alpha  occ. eigenvalues --   -0.49859  -0.49163  -0.48746  -0.48413  -0.48352
 Alpha  occ. eigenvalues --   -0.48162  -0.48066  -0.47762  -0.47568  -0.47371
 Alpha  occ. eigenvalues --   -0.47293  -0.47129  -0.46715  -0.46335  -0.46269
 Alpha  occ. eigenvalues --   -0.46044  -0.45931  -0.45913  -0.45364  -0.45158
 Alpha  occ. eigenvalues --   -0.44890  -0.44705  -0.44606  -0.44191  -0.44059
 Alpha  occ. eigenvalues --   -0.43950  -0.43833  -0.43540  -0.43300  -0.43126
 Alpha  occ. eigenvalues --   -0.43044  -0.43033  -0.42923  -0.42714  -0.42290
 Alpha  occ. eigenvalues --   -0.42132  -0.41933  -0.41866  -0.41652  -0.41481
 Alpha  occ. eigenvalues --   -0.41202  -0.41025  -0.40836  -0.40747  -0.40463
 Alpha  occ. eigenvalues --   -0.40348  -0.40331  -0.40267  -0.39857  -0.39641
 Alpha  occ. eigenvalues --   -0.39496  -0.39439  -0.39194  -0.38663  -0.38554
 Alpha  occ. eigenvalues --   -0.38363  -0.38256  -0.37790  -0.37695  -0.37505
 Alpha  occ. eigenvalues --   -0.37353  -0.37338  -0.37194  -0.37113  -0.36887
 Alpha  occ. eigenvalues --   -0.36793  -0.36651  -0.36467  -0.36204  -0.36180
 Alpha  occ. eigenvalues --   -0.35878  -0.35694  -0.35381  -0.35249  -0.35034
 Alpha  occ. eigenvalues --   -0.34774  -0.34716  -0.34241  -0.34009  -0.33659
 Alpha  occ. eigenvalues --   -0.33382  -0.33012  -0.32814  -0.32805  -0.32559
 Alpha  occ. eigenvalues --   -0.32308  -0.32184  -0.31788  -0.31460  -0.30904
 Alpha  occ. eigenvalues --   -0.30827  -0.30432  -0.30326  -0.29799  -0.29638
 Alpha  occ. eigenvalues --   -0.28906  -0.28250  -0.27458  -0.27222  -0.26090
 Alpha  occ. eigenvalues --   -0.25994  -0.25553  -0.25276  -0.24477  -0.21482
 Alpha  occ. eigenvalues --   -0.19003
 Alpha virt. eigenvalues --   -0.11301  -0.05915  -0.03786  -0.01960  -0.01240
 Alpha virt. eigenvalues --   -0.00506   0.00221   0.00455   0.01019   0.03072
 Alpha virt. eigenvalues --    0.03645   0.04289   0.05246   0.05569   0.05788

 Mulliken charges:
               1
     1  Mg   0.969676
     2  C   -0.045853
     3  C   -0.091937
     4  C   -0.092141
     5  C   -0.078590
     6  N   -0.373528
     7  C    0.045089
     8  C   -0.099274
     9  C   -0.144534
    10  C    0.084143
    11  C    0.029446
    12  C    0.002811
    13  C    0.006542
    14  C    0.208333
    15  O   -0.260862
    16  O   -0.392210
    17  N   -0.549330
    18  C    0.217739
    19  C   -0.157679
    20  C   -0.063137
    21  C    0.197429
    22  C    0.076553
    23  C    0.015807
    24  O   -0.219706
    25  C   -0.005744
    26  N   -0.424356
    27  C    0.097333
    28  C   -0.139140
    29  C   -0.119706
    30  C    0.095469
    31  C    0.017366
    32  C   -0.025794
    33  C   -0.056622
    34  N   -0.414135
    35  C    0.133045
    36  C   -0.238664
    37  C   -0.032517
    38  C    0.135126
    39  C    0.076669
    40  C    0.180072
    41  O   -0.213039
    42  C   -0.117454
    43  C    0.301563
    44  O   -0.255729
    45  O   -0.395972
    46  C    0.120718
    47  C    0.257789
    48  C   -0.133397
    49  C   -0.200560
    50  C   -0.037685
    51  C    0.044689
    52  C   -0.057818
    53  C    0.005551
    54  C   -0.221068
    55  C   -0.021750
    56  C   -0.021418
    57  C   -0.022300
    58  C    0.002833
    59  C   -0.208877
    60  C   -0.039256
    61  C    0.028371
    62  C   -0.030116
    63  C   -0.044118
    64  C   -0.258111
    65  C   -0.021886
    66  C   -0.019052
    67  H    0.007178
    68  H    0.002395
    69  H    0.012615
    70  H    0.057735
    71  H    0.047418
    72  H    0.041356
    73  H    0.049420
    74  H    0.062256
    75  H    0.046749
    76  H    0.054214
    77  H    0.078302
    78  H    0.067885
    79  H    0.050595
    80  H    0.047600
    81  H    0.033280
    82  H    0.069564
    83  H    0.054103
    84  H    0.052866
    85  H    0.052754
    86  H    0.031862
    87  H    0.043839
    88  H    0.052182
    89  H    0.044178
    90  H    0.044977
    91  H    0.034857
    92  H    0.023755
    93  H    0.053666
    94  H    0.047751
    95  H    0.068775
    96  H    0.034110
    97  H    0.062980
    98  H    0.075809
    99  H    0.076420
   100  H    0.063016
   101  H    0.065581
   102  H    0.055186
   103  H    0.074242
   104  H    0.033618
   105  H    0.030424
   106  H    0.068692
   107  H    0.059828
   108  H    0.017414
   109  H    0.025856
   110  H    0.031085
   111  H    0.028443
   112  H    0.019311
   113  H    0.027353
   114  H    0.027583
   115  H    0.016742
   116  H    0.034294
   117  H    0.024176
   118  H    0.022981
   119  H    0.026880
   120  H    0.037598
   121  H    0.037170
   122  H    0.026862
   123  H    0.018166
   124  H    0.036923
   125  H    0.039632
   126  H    0.023318
   127  H    0.035333
   128  H    0.020115
   129  H    0.020536
   130  H    0.020832
   131  H    0.032510
   132  H    0.029816
   133  H    0.028707
   134  H    0.037074
   135  H    0.035985
   136  H    0.024267
   137  H    0.028997
   138  H    0.032123
   139  H    0.046178
   140  H    0.046608
 Sum of Mulliken charges =  -0.00000

 Dipole moment (field-independent basis, Debye):
    X=             -3.6464    Y=             -3.6916    Z=              1.5628  Tot=              5.4190
 Quadrupole moment (field-independent basis, Debye-Ang):
   XX=           -359.4752   YY=           -431.0641   ZZ=           -401.2648
   XY=              0.2319   XZ=             -6.0619   YZ=            -24.3055

 Normal termination of Gaussian 16 at Wed May  4 17:16:04 2022.
