 Gaussian 16, Revision A.03,
 Gaussian 16:  ES64L-G16RevA.03 25-Dec-2016

 --------------------------------
 #p wB97XD/Def2SVP td=(nstates=5)
 --------------------------------

 ---------------------------------------------------
 step_201_chromophore_5 TDDFT with wB97XD functional
 ---------------------------------------------------
 Symbolic Z-matrix:
 Charge =  0 Multiplicity = 1

                         Standard orientation:
 ---------------------------------------------------------------------
 Center     Atomic      Atomic             Coordinates (Angstroms)
 Number     Number       Type             X           Y           Z
 ---------------------------------------------------------------------
      1         12           0       -5.392925   -0.446499   -0.495698
      2          6           0       -3.882512    2.715979   -0.121058
      3          6           0       -3.028392   -1.216215   -2.862536
      4          6           0       -6.418533   -3.649245   -0.302405
      5          6           0       -7.005006    0.262221    2.679123
      6          7           0       -3.649908    0.616141   -1.291914
      7          6           0       -3.281090    1.895744   -1.075990
      8          6           0       -2.047097    2.269978   -1.845412
      9          6           0       -1.904447    1.084969   -2.864604
     10          6           0       -2.920419    0.090155   -2.303850
     11          6           0       -1.902991    1.417519   -4.423266
     12          6           0       -0.745466    2.563549   -1.015720
     13          6           0        0.085010    3.830301   -1.468972
     14          6           0        1.557608    3.664627   -1.584210
     15          8           0        2.218661    4.059219   -2.539359
     16          8           0        2.148093    2.961697   -0.523502
     17          7           0       -4.849211   -2.177889   -1.480492
     18          6           0       -3.902799   -2.226224   -2.498971
     19          6           0       -3.848014   -3.568188   -2.972780
     20          6           0       -4.823511   -4.298036   -2.338971
     21          6           0       -5.437846   -3.456702   -1.293297
     22          6           0       -2.780912   -4.022439   -3.928267
     23          6           0       -5.025005   -5.808128   -2.535116
     24          8           0       -4.587361   -6.414179   -3.459842
     25          6           0       -5.908928   -6.573836   -1.753512
     26          7           0       -6.543045   -1.490026    0.949814
     27          6           0       -6.932791   -2.816304    0.706025
     28          6           0       -7.842748   -3.362342    1.823604
     29          6           0       -7.634059   -2.229348    2.915602
     30          6           0       -7.164874   -1.049516    2.120747
     31          6           0       -9.326201   -3.742778    1.430302
     32          6           0       -6.673818   -2.679852    4.006615
     33          6           0       -7.158623   -2.877861    5.438207
     34          7           0       -5.594906    1.196635    0.913985
     35          6           0       -6.292702    1.364620    2.084775
     36          6           0       -6.191769    2.716508    2.523909
     37          6           0       -5.218960    3.328446    1.769507
     38          6           0       -4.903752    2.344852    0.766445
     39          6           0       -6.831839    3.290034    3.747607
     40          6           0       -4.400751    4.513669    1.496489
     41          8           0       -4.263973    5.579489    2.080217
     42          6           0       -3.475603    4.131640    0.304893
     43          6           0       -3.626141    5.100414   -0.788289
     44          8           0       -2.668052    5.646308   -1.327484
     45          8           0       -4.979738    5.351332   -1.031154
     46          6           0       -5.151744    6.746144   -1.686359
     47          6           0        3.424902    2.346181   -0.745219
     48          6           0        3.525419    1.050217   -0.026512
     49          6           0        4.561137    0.361253    0.579850
     50          6           0        6.000416    0.767436    0.510689
     51          6           0        4.347568   -1.091490    1.098306
     52          6           0        5.112642   -2.144773    0.349711
     53          6           0        5.989768   -3.020611    1.288234
     54          6           0        7.507981   -2.982044    1.122731
     55          6           0        8.135294   -4.386209    0.970292
     56          6           0        8.177156   -2.281994    2.363957
     57          6           0        9.628990   -1.837450    2.050606
     58          6           0        9.699759   -0.256627    2.180986
     59          6           0       10.591875    0.392652    1.080404
     60          6           0        9.804619    1.524027    0.265693
     61          6           0       11.933378    0.841266    1.733558
     62          6           0       13.089193   -0.146587    1.462068
     63          6           0       13.776917    0.335025    0.155365
     64          6           0       14.346525   -0.758649   -0.779054
     65          6           0       15.822392   -1.073008   -0.307722
     66          6           0       14.491500   -0.232072   -2.233171
     67          1           0       -2.270180   -1.460237   -3.609646
     68          1           0       -7.019251   -4.558306   -0.375052
     69          1           0       -7.382241    0.355275    3.699306
     70          1           0       -2.209113    3.180552   -2.422032
     71          1           0       -0.945225    0.605940   -2.668254
     72          1           0       -2.279823    0.537649   -4.944016
     73          1           0       -0.844079    1.445924   -4.679101
     74          1           0       -2.440082    2.351451   -4.590056
     75          1           0       -0.091328    1.717260   -1.225015
     76          1           0       -0.943400    2.665311    0.051582
     77          1           0       -0.065696    4.556221   -0.670039
     78          1           0       -0.343515    4.231021   -2.387993
     79          1           0       -3.164003   -4.375514   -4.886211
     80          1           0       -2.334008   -4.963958   -3.609612
     81          1           0       -1.952569   -3.367188   -4.196824
     82          1           0       -6.939269   -6.239765   -1.871506
     83          1           0       -5.534103   -6.533412   -0.731078
     84          1           0       -5.897031   -7.580080   -2.171627
     85          1           0       -7.369842   -4.270331    2.198345
     86          1           0       -8.589390   -1.968245    3.372637
     87          1           0       -9.482551   -4.821798    1.406777
     88          1           0       -9.617276   -3.373341    0.446735
     89          1           0       -9.941892   -3.349355    2.238743
     90          1           0       -5.797560   -2.033343    4.014548
     91          1           0       -6.242579   -3.661497    3.810769
     92          1           0       -7.958814   -2.150411    5.575565
     93          1           0       -6.384846   -2.582663    6.147724
     94          1           0       -7.618051   -3.859410    5.550216
     95          1           0       -6.067132    3.600569    4.458990
     96          1           0       -7.517648    2.551550    4.161717
     97          1           0       -7.338808    4.168037    3.348157
     98          1           0       -2.457305    4.219001    0.681342
     99          1           0       -4.580833    7.506960   -1.153550
    100          1           0       -6.199551    7.045904   -1.654341
    101          1           0       -4.865002    6.718049   -2.737191
    102          1           0        3.962635    3.152296   -0.246575
    103          1           0        3.811743    2.188022   -1.752169
    104          1           0        2.566697    0.616843    0.257748
    105          1           0        6.144696    1.573407   -0.208661
    106          1           0        6.751441    0.054465    0.170642
    107          1           0        6.356055    1.160699    1.462523
    108          1           0        3.289283   -1.351875    1.087513
    109          1           0        4.589153   -1.291731    2.142474
    110          1           0        5.733769   -1.697924   -0.426195
    111          1           0        4.441923   -2.787595   -0.219613
    112          1           0        5.635606   -4.010082    0.997281
    113          1           0        5.767480   -2.882344    2.345985
    114          1           0        7.786499   -2.600779    0.140992
    115          1           0        7.420838   -5.202095    1.080586
    116          1           0        8.929539   -4.650002    1.669710
    117          1           0        8.462053   -4.613596   -0.044816
    118          1           0        8.118181   -2.999098    3.182926
    119          1           0        7.486286   -1.520450    2.724744
    120          1           0        9.924632   -2.101778    1.035118
    121          1           0       10.276324   -2.390182    2.731214
    122          1           0        9.921748   -0.070663    3.231506
    123          1           0        8.730459    0.241000    2.152084
    124          1           0       10.811716   -0.320489    0.285837
    125          1           0        9.563917    2.447285    0.792802
    126          1           0        8.836329    1.105979   -0.009689
    127          1           0       10.240436    1.768323   -0.703380
    128          1           0       11.848287    1.073646    2.794570
    129          1           0       12.152685    1.804956    1.272933
    130          1           0       12.693074   -1.113816    1.155179
    131          1           0       13.793988   -0.398727    2.253615
    132          1           0       14.590333    0.929682    0.568740
    133          1           0       13.188085    1.042219   -0.428414
    134          1           0       13.843222   -1.699463   -0.554859
    135          1           0       16.290179   -0.238678    0.215468
    136          1           0       16.368199   -1.323067   -1.216826
    137          1           0       15.796954   -1.960906    0.322939
    138          1           0       13.479136   -0.413667   -2.592926
    139          1           0       15.167466   -0.770187   -2.898489
    140          1           0       14.622253    0.850199   -2.261145
 ---------------------------------------------------------------------

 SCF Done:  E(RwB97XD) =  -3007.83341609     A.U. after   19 cycles

 Excitation energies and oscillator strengths:

 Excited State   1:      Singlet-A      1.6615 eV  746.24 nm  f=0.3606  <S**2>=0.000
     245 -> 248        0.19218
     246 -> 247        0.68233
     245 <- 248        0.11902
 This state for optimization and/or second-order correction.
 Total Energy, E(TD-HF/TD-DFT) =  -3007.77235870
 Copying the excited state density for this state as the 1-particle RhoCI density.

 Excited State   2:      Singlet-A      2.1966 eV  564.45 nm  f=0.0640  <S**2>=0.000
     245 -> 247        0.61385
     246 -> 248       -0.33914

 Excited State   3:      Singlet-A      3.4050 eV  364.12 nm  f=0.1355  <S**2>=0.000
     241 -> 247       -0.37621
     243 -> 247        0.48112
     245 -> 247       -0.11863
     246 -> 248       -0.29671

 Excited State   4:      Singlet-A      3.4707 eV  357.23 nm  f=0.4407  <S**2>=0.000
     243 -> 247        0.42366
     245 -> 247        0.25723
     246 -> 248        0.48422

 Excited State   5:      Singlet-A      3.6716 eV  337.69 nm  f=0.0170  <S**2>=0.000
     240 -> 247        0.30957
     240 -> 249       -0.21104
     242 -> 247        0.44852
     242 -> 248        0.10475
     242 -> 249        0.21526
     242 -> 250       -0.17978
     242 -> 251        0.14972

 The electronic state is 1-A.
 Alpha  occ. eigenvalues --  -46.95566 -19.30717 -19.29350 -19.25662 -19.24263
 Alpha  occ. eigenvalues --  -19.24131 -19.23364 -14.47552 -14.47091 -14.44484
 Alpha  occ. eigenvalues --  -14.43919 -10.43643 -10.42880 -10.39301 -10.37817
 Alpha  occ. eigenvalues --  -10.36245 -10.35966 -10.35778 -10.35716 -10.35486
 Alpha  occ. eigenvalues --  -10.35061 -10.35003 -10.34044 -10.33569 -10.32710
 Alpha  occ. eigenvalues --  -10.32690 -10.32367 -10.32203 -10.32197 -10.32153
 Alpha  occ. eigenvalues --  -10.31939 -10.31926 -10.31699 -10.31603 -10.31596
 Alpha  occ. eigenvalues --  -10.31575 -10.31420 -10.31402 -10.31369 -10.30916
 Alpha  occ. eigenvalues --  -10.30889 -10.30862 -10.30183 -10.29944 -10.29883
 Alpha  occ. eigenvalues --  -10.29874 -10.29621 -10.29612 -10.29544 -10.29510
 Alpha  occ. eigenvalues --  -10.29146 -10.29125 -10.29104 -10.29099 -10.29021
 Alpha  occ. eigenvalues --  -10.28796 -10.28711 -10.28659 -10.28632 -10.28623
 Alpha  occ. eigenvalues --  -10.28422 -10.28405 -10.28365 -10.28126 -10.27776
 Alpha  occ. eigenvalues --  -10.27458  -3.21497  -1.95069  -1.94608  -1.94470
 Alpha  occ. eigenvalues --   -1.17570  -1.17345  -1.14522  -1.12077  -1.09606
 Alpha  occ. eigenvalues --   -1.09431  -1.07150  -1.05787  -1.04672  -1.03854
 Alpha  occ. eigenvalues --   -0.94781  -0.91962  -0.91273  -0.91241  -0.90953
 Alpha  occ. eigenvalues --   -0.90563  -0.90081  -0.89594  -0.88838  -0.88632
 Alpha  occ. eigenvalues --   -0.88567  -0.87519  -0.86444  -0.85670  -0.85574
 Alpha  occ. eigenvalues --   -0.84789  -0.84159  -0.83536  -0.82453  -0.82319
 Alpha  occ. eigenvalues --   -0.81472  -0.80211  -0.79899  -0.79679  -0.78666
 Alpha  occ. eigenvalues --   -0.77622  -0.77401  -0.76676  -0.76298  -0.75450
 Alpha  occ. eigenvalues --   -0.75153  -0.74808  -0.74226  -0.72850  -0.71082
 Alpha  occ. eigenvalues --   -0.70872  -0.70260  -0.69370  -0.68641  -0.67797
 Alpha  occ. eigenvalues --   -0.67558  -0.67148  -0.67079  -0.66399  -0.65992
 Alpha  occ. eigenvalues --   -0.65373  -0.65161  -0.64710  -0.64600  -0.62381
 Alpha  occ. eigenvalues --   -0.62238  -0.61663  -0.61544  -0.60896  -0.60043
 Alpha  occ. eigenvalues --   -0.59053  -0.58921  -0.58291  -0.57611  -0.57484
 Alpha  occ. eigenvalues --   -0.57215  -0.56578  -0.56134  -0.55853  -0.55807
 Alpha  occ. eigenvalues --   -0.55657  -0.55543  -0.55080  -0.55043  -0.54711
 Alpha  occ. eigenvalues --   -0.54659  -0.54535  -0.53993  -0.53659  -0.53623
 Alpha  occ. eigenvalues --   -0.53419  -0.53257  -0.53240  -0.52678  -0.52422
 Alpha  occ. eigenvalues --   -0.52259  -0.52119  -0.51987  -0.51557  -0.51469
 Alpha  occ. eigenvalues --   -0.51374  -0.51138  -0.50819  -0.50604  -0.50406
 Alpha  occ. eigenvalues --   -0.50328  -0.50274  -0.50209  -0.50002  -0.49557
 Alpha  occ. eigenvalues --   -0.49375  -0.49146  -0.49085  -0.48894  -0.48745
 Alpha  occ. eigenvalues --   -0.48404  -0.48253  -0.47971  -0.47895  -0.47685
 Alpha  occ. eigenvalues --   -0.47582  -0.47544  -0.47494  -0.47119  -0.46853
 Alpha  occ. eigenvalues --   -0.46711  -0.46663  -0.46399  -0.45831  -0.45713
 Alpha  occ. eigenvalues --   -0.45545  -0.45395  -0.44942  -0.44754  -0.44679
 Alpha  occ. eigenvalues --   -0.44479  -0.44380  -0.44273  -0.44198  -0.44145
 Alpha  occ. eigenvalues --   -0.43837  -0.43775  -0.43450  -0.43323  -0.43234
 Alpha  occ. eigenvalues --   -0.42952  -0.42707  -0.42408  -0.42284  -0.42005
 Alpha  occ. eigenvalues --   -0.41911  -0.41805  -0.41337  -0.40976  -0.40621
 Alpha  occ. eigenvalues --   -0.40417  -0.40017  -0.39884  -0.39789  -0.39631
 Alpha  occ. eigenvalues --   -0.39288  -0.39187  -0.38855  -0.38443  -0.37891
 Alpha  occ. eigenvalues --   -0.37800  -0.37423  -0.37263  -0.36736  -0.36602
 Alpha  occ. eigenvalues --   -0.35592  -0.35340  -0.34365  -0.33835  -0.33020
 Alpha  occ. eigenvalues --   -0.32649  -0.32610  -0.32120  -0.31187  -0.26549
 Alpha  occ. eigenvalues --   -0.23146
 Alpha virt. eigenvalues --   -0.07120  -0.00614   0.02557   0.04475   0.04811
 Alpha virt. eigenvalues --    0.06322   0.06926   0.07132   0.07813   0.09652
 Alpha virt. eigenvalues --    0.10465   0.10811   0.11948   0.12192   0.12426

 Mulliken charges:
               1
     1  Mg   0.961108
     2  C   -0.043877
     3  C   -0.109162
     4  C   -0.102407
     5  C   -0.091253
     6  N   -0.336050
     7  C    0.008879
     8  C   -0.072790
     9  C   -0.120018
    10  C    0.070096
    11  C    0.043461
    12  C    0.017209
    13  C    0.019846
    14  C    0.200750
    15  O   -0.258398
    16  O   -0.390807
    17  N   -0.520351
    18  C    0.209639
    19  C   -0.142990
    20  C   -0.054128
    21  C    0.192439
    22  C    0.082226
    23  C    0.012815
    24  O   -0.214627
    25  C    0.003587
    26  N   -0.398338
    27  C    0.084739
    28  C   -0.112355
    29  C   -0.087029
    30  C    0.077678
    31  C    0.027583
    32  C   -0.017470
    33  C   -0.038377
    34  N   -0.376095
    35  C    0.124240
    36  C   -0.234896
    37  C   -0.030557
    38  C    0.114034
    39  C    0.090002
    40  C    0.159343
    41  O   -0.204398
    42  C   -0.070394
    43  C    0.275967
    44  O   -0.249152
    45  O   -0.398025
    46  C    0.136638
    47  C    0.266833
    48  C   -0.139098
    49  C   -0.180524
    50  C   -0.019776
    51  C    0.060457
    52  C   -0.043274
    53  C    0.022289
    54  C   -0.191608
    55  C   -0.013447
    56  C   -0.000062
    57  C   -0.005771
    58  C    0.020372
    59  C   -0.180787
    60  C   -0.015841
    61  C    0.044321
    62  C   -0.009497
    63  C   -0.030315
    64  C   -0.226477
    65  C   -0.010179
    66  C   -0.005432
    67  H   -0.000734
    68  H   -0.007692
    69  H    0.006602
    70  H    0.038828
    71  H    0.035404
    72  H    0.034168
    73  H    0.044286
    74  H    0.058011
    75  H    0.033344
    76  H    0.046862
    77  H    0.072092
    78  H    0.063472
    79  H    0.047976
    80  H    0.043862
    81  H    0.030997
    82  H    0.065614
    83  H    0.049376
    84  H    0.052130
    85  H    0.041505
    86  H    0.019567
    87  H    0.038591
    88  H    0.046914
    89  H    0.038590
    90  H    0.036770
    91  H    0.025222
    92  H    0.015247
    93  H    0.048947
    94  H    0.041758
    95  H    0.063591
    96  H    0.027228
    97  H    0.056863
    98  H    0.066885
    99  H    0.072478
   100  H    0.060132
   101  H    0.061717
   102  H    0.050747
   103  H    0.070889
   104  H    0.028011
   105  H    0.024998
   106  H    0.053653
   107  H    0.054113
   108  H    0.011091
   109  H    0.016210
   110  H    0.019832
   111  H    0.022501
   112  H    0.010459
   113  H    0.017491
   114  H    0.014534
   115  H    0.010141
   116  H    0.028135
   117  H    0.019260
   118  H    0.014139
   119  H    0.013287
   120  H    0.025471
   121  H    0.030843
   122  H    0.019688
   123  H    0.000803
   124  H    0.021977
   125  H    0.033906
   126  H    0.007512
   127  H    0.030064
   128  H    0.013316
   129  H    0.009364
   130  H    0.004450
   131  H    0.027716
   132  H    0.018351
   133  H    0.016855
   134  H    0.026822
   135  H    0.029486
   136  H    0.017058
   137  H    0.023363
   138  H    0.024602
   139  H    0.040964
   140  H    0.040783
 Sum of Mulliken charges =  -0.00000

 Dipole moment (field-independent basis, Debye):
    X=             -3.6183    Y=             -3.9930    Z=              1.2550  Tot=              5.5327
 Quadrupole moment (field-independent basis, Debye-Ang):
   XX=           -359.3830   YY=           -429.6206   ZZ=           -401.0907
   XY=              1.3399   XZ=             -3.9216   YZ=            -23.7522

 Normal termination of Gaussian 16 at Wed May  4 17:51:36 2022.
