 Gaussian 16, Revision A.03,
 Gaussian 16:  ES64L-G16RevA.03 25-Dec-2016

 --------------------
 #p ZINDO=(nstates=5)
 --------------------

 ----------------------------
 step_201_chromophore_5 ZINDO
 ----------------------------
 Symbolic Z-matrix:
 Charge =  0 Multiplicity = 1

                         Standard orientation:
 ---------------------------------------------------------------------
 Center     Atomic      Atomic             Coordinates (Angstroms)
 Number     Number       Type             X           Y           Z
 ---------------------------------------------------------------------
      1         12           0       -5.392925   -0.446499   -0.495698
      2          6           0       -3.882512    2.715979   -0.121058
      3          6           0       -3.028392   -1.216215   -2.862536
      4          6           0       -6.418533   -3.649245   -0.302405
      5          6           0       -7.005006    0.262221    2.679123
      6          7           0       -3.649908    0.616141   -1.291914
      7          6           0       -3.281090    1.895744   -1.075990
      8          6           0       -2.047097    2.269978   -1.845412
      9          6           0       -1.904447    1.084969   -2.864604
     10          6           0       -2.920419    0.090155   -2.303850
     11          6           0       -1.902991    1.417519   -4.423266
     12          6           0       -0.745466    2.563549   -1.015720
     13          6           0        0.085010    3.830301   -1.468972
     14          6           0        1.557608    3.664627   -1.584210
     15          8           0        2.218661    4.059219   -2.539359
     16          8           0        2.148093    2.961697   -0.523502
     17          7           0       -4.849211   -2.177889   -1.480492
     18          6           0       -3.902799   -2.226224   -2.498971
     19          6           0       -3.848014   -3.568188   -2.972780
     20          6           0       -4.823511   -4.298036   -2.338971
     21          6           0       -5.437846   -3.456702   -1.293297
     22          6           0       -2.780912   -4.022439   -3.928267
     23          6           0       -5.025005   -5.808128   -2.535116
     24          8           0       -4.587361   -6.414179   -3.459842
     25          6           0       -5.908928   -6.573836   -1.753512
     26          7           0       -6.543045   -1.490026    0.949814
     27          6           0       -6.932791   -2.816304    0.706025
     28          6           0       -7.842748   -3.362342    1.823604
     29          6           0       -7.634059   -2.229348    2.915602
     30          6           0       -7.164874   -1.049516    2.120747
     31          6           0       -9.326201   -3.742778    1.430302
     32          6           0       -6.673818   -2.679852    4.006615
     33          6           0       -7.158623   -2.877861    5.438207
     34          7           0       -5.594906    1.196635    0.913985
     35          6           0       -6.292702    1.364620    2.084775
     36          6           0       -6.191769    2.716508    2.523909
     37          6           0       -5.218960    3.328446    1.769507
     38          6           0       -4.903752    2.344852    0.766445
     39          6           0       -6.831839    3.290034    3.747607
     40          6           0       -4.400751    4.513669    1.496489
     41          8           0       -4.263973    5.579489    2.080217
     42          6           0       -3.475603    4.131640    0.304893
     43          6           0       -3.626141    5.100414   -0.788289
     44          8           0       -2.668052    5.646308   -1.327484
     45          8           0       -4.979738    5.351332   -1.031154
     46          6           0       -5.151744    6.746144   -1.686359
     47          6           0        3.424902    2.346181   -0.745219
     48          6           0        3.525419    1.050217   -0.026512
     49          6           0        4.561137    0.361253    0.579850
     50          6           0        6.000416    0.767436    0.510689
     51          6           0        4.347568   -1.091490    1.098306
     52          6           0        5.112642   -2.144773    0.349711
     53          6           0        5.989768   -3.020611    1.288234
     54          6           0        7.507981   -2.982044    1.122731
     55          6           0        8.135294   -4.386209    0.970292
     56          6           0        8.177156   -2.281994    2.363957
     57          6           0        9.628990   -1.837450    2.050606
     58          6           0        9.699759   -0.256627    2.180986
     59          6           0       10.591875    0.392652    1.080404
     60          6           0        9.804619    1.524027    0.265693
     61          6           0       11.933378    0.841266    1.733558
     62          6           0       13.089193   -0.146587    1.462068
     63          6           0       13.776917    0.335025    0.155365
     64          6           0       14.346525   -0.758649   -0.779054
     65          6           0       15.822392   -1.073008   -0.307722
     66          6           0       14.491500   -0.232072   -2.233171
     67          1           0       -2.270180   -1.460237   -3.609646
     68          1           0       -7.019251   -4.558306   -0.375052
     69          1           0       -7.382241    0.355275    3.699306
     70          1           0       -2.209113    3.180552   -2.422032
     71          1           0       -0.945225    0.605940   -2.668254
     72          1           0       -2.279823    0.537649   -4.944016
     73          1           0       -0.844079    1.445924   -4.679101
     74          1           0       -2.440082    2.351451   -4.590056
     75          1           0       -0.091328    1.717260   -1.225015
     76          1           0       -0.943400    2.665311    0.051582
     77          1           0       -0.065696    4.556221   -0.670039
     78          1           0       -0.343515    4.231021   -2.387993
     79          1           0       -3.164003   -4.375514   -4.886211
     80          1           0       -2.334008   -4.963958   -3.609612
     81          1           0       -1.952569   -3.367188   -4.196824
     82          1           0       -6.939269   -6.239765   -1.871506
     83          1           0       -5.534103   -6.533412   -0.731078
     84          1           0       -5.897031   -7.580080   -2.171627
     85          1           0       -7.369842   -4.270331    2.198345
     86          1           0       -8.589390   -1.968245    3.372637
     87          1           0       -9.482551   -4.821798    1.406777
     88          1           0       -9.617276   -3.373341    0.446735
     89          1           0       -9.941892   -3.349355    2.238743
     90          1           0       -5.797560   -2.033343    4.014548
     91          1           0       -6.242579   -3.661497    3.810769
     92          1           0       -7.958814   -2.150411    5.575565
     93          1           0       -6.384846   -2.582663    6.147724
     94          1           0       -7.618051   -3.859410    5.550216
     95          1           0       -6.067132    3.600569    4.458990
     96          1           0       -7.517648    2.551550    4.161717
     97          1           0       -7.338808    4.168037    3.348157
     98          1           0       -2.457305    4.219001    0.681342
     99          1           0       -4.580833    7.506960   -1.153550
    100          1           0       -6.199551    7.045904   -1.654341
    101          1           0       -4.865002    6.718049   -2.737191
    102          1           0        3.962635    3.152296   -0.246575
    103          1           0        3.811743    2.188022   -1.752169
    104          1           0        2.566697    0.616843    0.257748
    105          1           0        6.144696    1.573407   -0.208661
    106          1           0        6.751441    0.054465    0.170642
    107          1           0        6.356055    1.160699    1.462523
    108          1           0        3.289283   -1.351875    1.087513
    109          1           0        4.589153   -1.291731    2.142474
    110          1           0        5.733769   -1.697924   -0.426195
    111          1           0        4.441923   -2.787595   -0.219613
    112          1           0        5.635606   -4.010082    0.997281
    113          1           0        5.767480   -2.882344    2.345985
    114          1           0        7.786499   -2.600779    0.140992
    115          1           0        7.420838   -5.202095    1.080586
    116          1           0        8.929539   -4.650002    1.669710
    117          1           0        8.462053   -4.613596   -0.044816
    118          1           0        8.118181   -2.999098    3.182926
    119          1           0        7.486286   -1.520450    2.724744
    120          1           0        9.924632   -2.101778    1.035118
    121          1           0       10.276324   -2.390182    2.731214
    122          1           0        9.921748   -0.070663    3.231506
    123          1           0        8.730459    0.241000    2.152084
    124          1           0       10.811716   -0.320489    0.285837
    125          1           0        9.563917    2.447285    0.792802
    126          1           0        8.836329    1.105979   -0.009689
    127          1           0       10.240436    1.768323   -0.703380
    128          1           0       11.848287    1.073646    2.794570
    129          1           0       12.152685    1.804956    1.272933
    130          1           0       12.693074   -1.113816    1.155179
    131          1           0       13.793988   -0.398727    2.253615
    132          1           0       14.590333    0.929682    0.568740
    133          1           0       13.188085    1.042219   -0.428414
    134          1           0       13.843222   -1.699463   -0.554859
    135          1           0       16.290179   -0.238678    0.215468
    136          1           0       16.368199   -1.323067   -1.216826
    137          1           0       15.796954   -1.960906    0.322939
    138          1           0       13.479136   -0.413667   -2.592926
    139          1           0       15.167466   -0.770187   -2.898489
    140          1           0       14.622253    0.850199   -2.261145
 ---------------------------------------------------------------------

 SCF Done:  E(RZINDO/S) =  -474.232585910     A.U. after   20 cycles

 Excitation energies and oscillator strengths:

 Excited State   1:      Singlet-A      1.2735 eV  973.58 nm  f=0.5697  <S**2>=0.000
     175 ->178        -0.18912
     176 ->177         0.66451
 This state for optimization and/or second-order correction.
 Total Energy, E(CIS/TDA) =  -474.185786289
 Copying the excited state density for this state as the 1-particle RhoCI density.

 Excited State   2:      Singlet-A      1.9083 eV  649.70 nm  f=0.0032  <S**2>=0.000
     175 ->177         0.49755
     176 ->178         0.48065

 Excited State   3:      Singlet-A      2.8333 eV  437.59 nm  f=0.0005  <S**2>=0.000
     170 ->177         0.26972
     170 ->178        -0.12995
     170 ->179        -0.33175
     170 ->181        -0.35172
     170 ->182        -0.12518
     170 ->186        -0.28815
     170 ->187        -0.13228
     170 ->192        -0.10331

 Excited State   4:      Singlet-A      2.9867 eV  415.12 nm  f=0.7880  <S**2>=0.000
     175 ->177        -0.37456
     176 ->178         0.39749
     176 ->179        -0.34624
     176 ->180        -0.15771

 Excited State   5:      Singlet-A      3.0146 eV  411.28 nm  f=0.0198  <S**2>=0.000
     176 ->179        -0.28969
     176 ->180         0.61655
     176 ->181         0.10473

 The electronic state is 1-A.
 Alpha  occ. eigenvalues --   -1.84651  -1.80853  -1.79575  -1.72785  -1.71777
 Alpha  occ. eigenvalues --   -1.70542  -1.65635  -1.64864  -1.61468  -1.56629
 Alpha  occ. eigenvalues --   -1.53837  -1.50726  -1.48648  -1.47013  -1.46765
 Alpha  occ. eigenvalues --   -1.46089  -1.44153  -1.40049  -1.38790  -1.38036
 Alpha  occ. eigenvalues --   -1.35711  -1.34735  -1.32720  -1.31594  -1.28554
 Alpha  occ. eigenvalues --   -1.27095  -1.26541  -1.23297  -1.20184  -1.18933
 Alpha  occ. eigenvalues --   -1.16896  -1.14777  -1.14451  -1.13683  -1.12962
 Alpha  occ. eigenvalues --   -1.12776  -1.09978  -1.09037  -1.06018  -1.04878
 Alpha  occ. eigenvalues --   -1.02622  -1.02120  -0.99577  -0.98413  -0.96688
 Alpha  occ. eigenvalues --   -0.95949  -0.94944  -0.94779  -0.93812  -0.92703
 Alpha  occ. eigenvalues --   -0.91513  -0.91451  -0.89648  -0.88545  -0.86916
 Alpha  occ. eigenvalues --   -0.86241  -0.84341  -0.83174  -0.83016  -0.81481
 Alpha  occ. eigenvalues --   -0.80732  -0.79639  -0.77593  -0.77483  -0.76850
 Alpha  occ. eigenvalues --   -0.75529  -0.74397  -0.74259  -0.73917  -0.72311
 Alpha  occ. eigenvalues --   -0.71867  -0.71650  -0.71147  -0.70838  -0.70446
 Alpha  occ. eigenvalues --   -0.70109  -0.69550  -0.68953  -0.68738  -0.67902
 Alpha  occ. eigenvalues --   -0.67350  -0.67156  -0.66999  -0.66302  -0.65760
 Alpha  occ. eigenvalues --   -0.65521  -0.64932  -0.64237  -0.63936  -0.63690
 Alpha  occ. eigenvalues --   -0.63439  -0.63297  -0.62407  -0.61937  -0.61784
 Alpha  occ. eigenvalues --   -0.61739  -0.61343  -0.60615  -0.60287  -0.59591
 Alpha  occ. eigenvalues --   -0.59549  -0.59099  -0.58971  -0.58829  -0.58277
 Alpha  occ. eigenvalues --   -0.57962  -0.57741  -0.57363  -0.57198  -0.56834
 Alpha  occ. eigenvalues --   -0.56304  -0.56058  -0.55777  -0.55362  -0.54945
 Alpha  occ. eigenvalues --   -0.54517  -0.53938  -0.53250  -0.52911  -0.52813
 Alpha  occ. eigenvalues --   -0.52566  -0.52240  -0.52011  -0.51926  -0.51762
 Alpha  occ. eigenvalues --   -0.51319  -0.51229  -0.50956  -0.50515  -0.50129
 Alpha  occ. eigenvalues --   -0.49966  -0.49523  -0.49460  -0.49177  -0.48906
 Alpha  occ. eigenvalues --   -0.48789  -0.48338  -0.48209  -0.47854  -0.47744
 Alpha  occ. eigenvalues --   -0.47491  -0.47319  -0.47164  -0.46863  -0.46569
 Alpha  occ. eigenvalues --   -0.46150  -0.45973  -0.45888  -0.45754  -0.45710
 Alpha  occ. eigenvalues --   -0.45539  -0.44990  -0.44539  -0.44454  -0.44117
 Alpha  occ. eigenvalues --   -0.43760  -0.43370  -0.43175  -0.42610  -0.42513
 Alpha  occ. eigenvalues --   -0.42139  -0.41248  -0.39632  -0.39567  -0.38716
 Alpha  occ. eigenvalues --   -0.38297  -0.37676  -0.35204  -0.35054  -0.34756
 Alpha  occ. eigenvalues --   -0.34369  -0.32985  -0.32869  -0.31650  -0.27435
 Alpha  occ. eigenvalues --   -0.22064
 Alpha virt. eigenvalues --   -0.08626  -0.03044  -0.00562   0.00570   0.01273
 Alpha virt. eigenvalues --    0.01999   0.02222   0.02280   0.04104   0.04413
 Alpha virt. eigenvalues --    0.05677   0.06770   0.06841   0.07540   0.08016

 Mulliken charges:
               1
     1  Mg   0.430802
     2  C   -0.040158
     3  C   -0.072147
     4  C   -0.081887
     5  C   -0.071587
     6  N   -0.257720
     7  C    0.113976
     8  C    0.001387
     9  C   -0.012158
    10  C    0.149627
    11  C   -0.050181
    12  C   -0.025824
    13  C    0.006563
    14  C    0.471313
    15  O   -0.518683
    16  O   -0.283578
    17  N   -0.350456
    18  C    0.124377
    19  C    0.063768
    20  C   -0.039999
    21  C    0.130666
    22  C   -0.044380
    23  C    0.332058
    24  O   -0.515642
    25  C   -0.021473
    26  N   -0.284157
    27  C    0.148821
    28  C   -0.003133
    29  C    0.019275
    30  C    0.091078
    31  C   -0.050132
    32  C   -0.026226
    33  C   -0.057922
    34  N   -0.321184
    35  C    0.084193
    36  C    0.030499
    37  C   -0.063847
    38  C    0.098580
    39  C   -0.045876
    40  C    0.335779
    41  O   -0.522486
    42  C    0.054852
    43  C    0.493361
    44  O   -0.531360
    45  O   -0.274389
    46  C    0.074332
    47  C    0.117189
    48  C   -0.078570
    49  C   -0.016656
    50  C   -0.045188
    51  C   -0.021249
    52  C   -0.028201
    53  C   -0.037111
    54  C   -0.011961
    55  C   -0.064769
    56  C   -0.034368
    57  C   -0.036237
    58  C   -0.039542
    59  C   -0.008387
    60  C   -0.065781
    61  C   -0.026959
    62  C   -0.039230
    63  C   -0.039025
    64  C   -0.022136
    65  C   -0.069989
    66  C   -0.054422
    67  H    0.034971
    68  H    0.019580
    69  H    0.029322
    70  H    0.035329
    71  H    0.027400
    72  H    0.025869
    73  H    0.025991
    74  H    0.039459
    75  H    0.024472
    76  H    0.032575
    77  H    0.051278
    78  H    0.049802
    79  H    0.036029
    80  H    0.033113
    81  H    0.025836
    82  H    0.040636
    83  H    0.033888
    84  H    0.036477
    85  H    0.028073
    86  H    0.021673
    87  H    0.019998
    88  H    0.029130
    89  H    0.024411
    90  H    0.020707
    91  H    0.011296
    92  H    0.008881
    93  H    0.028918
    94  H    0.026083
    95  H    0.038265
    96  H    0.022867
    97  H    0.035979
    98  H    0.058170
    99  H    0.053334
   100  H    0.033174
   101  H    0.044659
   102  H    0.044616
   103  H    0.065814
   104  H    0.024357
   105  H    0.010789
   106  H    0.029234
   107  H    0.028318
   108  H    0.011303
   109  H    0.026537
   110  H    0.019546
   111  H    0.015446
   112  H    0.009852
   113  H    0.025031
   114  H    0.027207
   115  H    0.008664
   116  H    0.019274
   117  H    0.012056
   118  H    0.014555
   119  H    0.017997
   120  H    0.024479
   121  H    0.024038
   122  H    0.020051
   123  H    0.017481
   124  H    0.025472
   125  H    0.023537
   126  H    0.009825
   127  H    0.018776
   128  H    0.017633
   129  H    0.013079
   130  H    0.011156
   131  H    0.029398
   132  H    0.011573
   133  H    0.020947
   134  H    0.035206
   135  H    0.025158
   136  H    0.015143
   137  H    0.012118
   138  H    0.004002
   139  H    0.027934
   140  H    0.028622
 Sum of Mulliken charges =  -0.00000

 Dipole moment (field-independent basis, Debye):
    X=             -3.6358    Y=             -7.1026    Z=              1.6002  Tot=              8.1380
 N-N= 4.344242386184D+03 E-N= 0.000000000000D+00  KE=-9.362354000151D+03
 Leave Link  601 at Wed May  4 18:05:24 2022, MaxMem=  6710886400 cpu:               1.0 elap:               0.1
 (Enter /sw/apps/gaussian-16.0/g16/l9999.exe)
 1\1\GINC-BP1-COMPUTE122\SP\RZINDO CIS\STO-3G\C55H74Mg1N4O6\OF15641\04-
 May-2022\0\\#p ZINDO=(nstates=5)\\step_201_chromophore_5 ZINDO\\0,1\Mg
 ,0,24.702,-6.57,46.238\C,0,26.591,-3.888,44.949\C,0,22.168,-5.729,44.0
 8\C,0,23.253,-9.518,46.984\C,0,27.857,-7.785,47.561\N,0,24.49,-5.048,4
 4.676\C,0,25.321,-4.025,44.388\C,0,24.799,-3.164,43.274\C,0,23.307,-3.
 634,43.146\C,0,23.318,-4.89,44.017\C,0,22.15,-2.554,43.333\C,0,25.596,
 -3.181,41.92\C,0,25.827,-1.771,41.243\C,0,25.571,-1.675,39.782\O,0,24.

 Normal termination of Gaussian 16 at Wed May  4 18:05:24 2022.
