 Gaussian 16, Revision A.03,
 Gaussian 16:  ES64L-G16RevA.03 25-Dec-2016

 ------------------------------
 #p blyp/Def2SVP td=(nstates=5)
 ------------------------------

 --------------------------------------------------
 step_901_chromophore_16 TDDFT with blyp functional
 --------------------------------------------------
 Symbolic Z-matrix:
 Charge =  0 Multiplicity = 1

                         Standard orientation:
 ---------------------------------------------------------------------
 Center     Atomic      Atomic             Coordinates (Angstroms)
 Number     Number       Type             X           Y           Z
 ---------------------------------------------------------------------
      1         12           0        6.119458    0.753644    0.295342
      2          6           0        4.050990   -2.164133    0.103856
      3          6           0        3.474808    2.561650   -0.998446
      4          6           0        8.198778    3.336355    0.301011
      5          6           0        8.719949   -1.559297    1.007615
      6          7           0        3.977030    0.235352   -0.361768
      7          6           0        3.366308   -1.011757   -0.297135
      8          6           0        1.849214   -0.872754   -0.648731
      9          6           0        1.702919    0.663890   -1.047888
     10          6           0        3.113018    1.226688   -0.803642
     11          6           0        1.110802    0.984262   -2.459905
     12          6           0        0.899077   -1.397107    0.506307
     13          6           0       -0.514902   -0.816379    0.506979
     14          6           0       -1.517963   -1.820899    0.828511
     15          8           0       -1.833235   -2.363642    1.894384
     16          8           0       -2.222498   -1.996682   -0.261602
     17          7           0        5.882287    2.715219   -0.279171
     18          6           0        4.706325    3.282939   -0.754378
     19          6           0        4.989697    4.721032   -1.002732
     20          6           0        6.358998    4.964588   -0.648481
     21          6           0        6.893101    3.668640   -0.193942
     22          6           0        3.837825    5.698842   -1.485398
     23          6           0        7.187977    6.225218   -0.695224
     24          8           0        8.422172    6.252869   -0.634668
     25          6           0        6.458306    7.519508   -1.031740
     26          7           0        8.193832    0.867452    0.565358
     27          6           0        8.822972    2.065409    0.538553
     28          6           0       10.309907    1.909411    0.757682
     29          6           0       10.442812    0.421490    1.063690
     30          6           0        9.021865   -0.176076    0.924073
     31          6           0       11.203566    2.369486   -0.468078
     32          6           0       11.217014    0.203303    2.372524
     33          6           0       10.365084   -0.341899    3.525408
     34          7           0        6.392933   -1.375566    0.472861
     35          6           0        7.513118   -2.115335    0.743633
     36          6           0        7.182761   -3.526655    0.908246
     37          6           0        5.814468   -3.605235    0.666037
     38          6           0        5.435673   -2.256599    0.332052
     39          6           0        7.974223   -4.747931    1.292128
     40          6           0        4.640033   -4.460626    0.640842
     41          8           0        4.607796   -5.622730    0.810864
     42          6           0        3.447446   -3.585941    0.240503
     43          6           0        2.804253   -4.167842   -0.994642
     44          8           0        3.227051   -3.980347   -2.127199
     45          8           0        1.718057   -4.928634   -0.661008
     46          6           0        1.009747   -5.506393   -1.788244
     47          6           0       -3.193812   -3.123708   -0.224023
     48          6           0       -4.372570   -2.513697   -1.039007
     49          6           0       -5.607776   -3.062205   -1.227628
     50          6           0       -6.072142   -4.494126   -0.723983
     51          6           0       -6.612784   -2.254972   -2.045556
     52          6           0       -8.004826   -1.802778   -1.362853
     53          6           0       -8.093364   -0.237068   -1.262717
     54          6           0       -9.448025    0.394393   -1.789203
     55          6           0       -9.223174    1.443058   -2.833683
     56          6           0      -10.327521    0.883915   -0.609406
     57          6           0      -11.519976   -0.066707   -0.357258
     58          6           0      -12.774940    0.229546   -1.244866
     59          6           0      -13.973961    0.784142   -0.390881
     60          6           0      -15.300604    0.662055   -1.103823
     61          6           0      -13.687200    2.324908    0.017809
     62          6           0      -13.198490    2.421923    1.502493
     63          6           0      -14.264583    3.104870    2.463423
     64          6           0      -15.040205    1.947774    3.067573
     65          6           0      -14.771900    1.864551    4.558005
     66          6           0      -16.523112    1.998679    2.716062
     67          1           0        2.547372    3.073491   -1.263960
     68          1           0        8.856674    4.188615    0.484551
     69          1           0        9.541799   -2.142658    1.427024
     70          1           0        1.623918   -1.526906   -1.491912
     71          1           0        1.070492    1.192952   -0.334029
     72          1           0        0.389057    1.798625   -2.387116
     73          1           0        0.618045    0.110597   -2.885563
     74          1           0        1.915650    1.385779   -3.076513
     75          1           0        1.243152   -1.162460    1.513311
     76          1           0        0.852710   -2.462042    0.278501
     77          1           0       -0.827749   -0.387057   -0.445355
     78          1           0       -0.672413   -0.025417    1.241243
     79          1           0        3.494757    6.374868   -0.702325
     80          1           0        2.862399    5.258031   -1.689382
     81          1           0        4.188538    6.245611   -2.360796
     82          1           0        5.670536    7.510753   -0.278449
     83          1           0        6.140039    7.544701   -2.074400
     84          1           0        7.144503    8.351448   -0.869058
     85          1           0       10.723735    2.482827    1.588076
     86          1           0       11.016119   -0.095764    0.294982
     87          1           0       10.583965    3.096930   -0.993100
     88          1           0       11.415238    1.566141   -1.173029
     89          1           0       12.108112    2.889849   -0.150694
     90          1           0       11.784029    1.105788    2.599565
     91          1           0       11.968035   -0.533013    2.084465
     92          1           0       10.700131   -1.295000    3.935103
     93          1           0        9.283849   -0.348734    3.387761
     94          1           0       10.606032    0.400306    4.287553
     95          1           0        7.354896   -5.638848    1.189179
     96          1           0        8.337953   -4.655814    2.315797
     97          1           0        8.848301   -4.982972    0.685858
     98          1           0        2.700350   -3.624573    1.033403
     99          1           0        1.685464   -6.050671   -2.448920
    100          1           0        0.498715   -4.808414   -2.450308
    101          1           0        0.311234   -6.270824   -1.448483
    102          1           0       -3.583097   -3.472095    0.732013
    103          1           0       -2.871031   -3.894182   -0.924154
    104          1           0       -4.281968   -1.517622   -1.471950
    105          1           0       -6.421792   -5.174995   -1.500117
    106          1           0       -6.995610   -4.368121   -0.158178
    107          1           0       -5.335133   -4.995248   -0.097005
    108          1           0       -6.982354   -2.804448   -2.911518
    109          1           0       -6.129715   -1.295455   -2.230116
    110          1           0       -7.986006   -2.280759   -0.383217
    111          1           0       -8.690688   -2.241538   -2.086157
    112          1           0       -7.238928    0.315533   -1.654811
    113          1           0       -8.099107    0.006607   -0.200470
    114          1           0      -10.059343   -0.418833   -2.181331
    115          1           0       -9.954675    2.247263   -2.753641
    116          1           0       -9.331945    1.016411   -3.830719
    117          1           0       -8.257109    1.941709   -2.752776
    118          1           0      -10.586267    1.938730   -0.695866
    119          1           0       -9.876761    0.805454    0.380528
    120          1           0      -11.632166    0.025368    0.722969
    121          1           0      -11.339615   -1.095386   -0.670211
    122          1           0      -12.994861   -0.662916   -1.830859
    123          1           0      -12.497917    1.008656   -1.955486
    124          1           0      -13.961183    0.167765    0.507990
    125          1           0      -16.069421    0.824237   -0.348002
    126          1           0      -15.464158   -0.288686   -1.609732
    127          1           0      -15.249789    1.539852   -1.748063
    128          1           0      -14.638764    2.840227   -0.113163
    129          1           0      -12.974226    2.852632   -0.615521
    130          1           0      -12.259926    2.973607    1.467244
    131          1           0      -13.036375    1.401097    1.849438
    132          1           0      -14.914735    3.666329    1.791001
    133          1           0      -13.969698    3.821867    3.228624
    134          1           0      -14.698669    0.961933    2.752507
    135          1           0      -15.091918    0.913965    4.985958
    136          1           0      -15.200350    2.653398    5.177171
    137          1           0      -13.686181    1.828419    4.652124
    138          1           0      -17.094984    2.454619    3.523389
    139          1           0      -16.823394    0.968696    2.522134
    140          1           0      -16.691811    2.575731    1.806613
 ---------------------------------------------------------------------

 SCF Done:  E(RB-LYP) =  -3007.36236237     A.U. after   21 cycles

 Excitation energies and oscillator strengths:

 Excited State   1:      Singlet-A      1.8190 eV  681.61 nm  f=0.2943  <S**2>=0.000
     245 -> 248        0.19307
     246 -> 247        0.67860
     246 <- 247       -0.14196
 This state for optimization and/or second-order correction.
 Total Energy, E(TD-HF/TD-DFT) =  -3007.29551599
 Copying the excited state density for this state as the 1-particle RhoCI density.

 Excited State   2:      Singlet-A      1.9161 eV  647.06 nm  f=0.0237  <S**2>=0.000
     244 -> 247        0.59423
     245 -> 247       -0.35281
     246 -> 247        0.10374

 Excited State   3:      Singlet-A      2.0684 eV  599.43 nm  f=0.0495  <S**2>=0.000
     244 -> 247        0.36253
     245 -> 247        0.53490
     246 -> 248       -0.25350

 Excited State   4:      Singlet-A      2.1927 eV  565.45 nm  f=0.0004  <S**2>=0.000
     243 -> 247        0.70406

 Excited State   5:      Singlet-A      2.3202 eV  534.38 nm  f=0.0000  <S**2>=0.000
     242 -> 247        0.70708

 The electronic state is 1-A.
 Alpha  occ. eigenvalues --  -46.27578 -18.83344 -18.82799 -18.77144 -18.76156
 Alpha  occ. eigenvalues --  -18.75602 -18.75538 -14.03411 -14.03117 -14.01452
 Alpha  occ. eigenvalues --  -14.01121 -10.04421 -10.03261  -9.99774  -9.99677
 Alpha  occ. eigenvalues --   -9.98680  -9.98061  -9.96852  -9.96680  -9.96589
 Alpha  occ. eigenvalues --   -9.96510  -9.96479  -9.96206  -9.95363  -9.94898
 Alpha  occ. eigenvalues --   -9.94869  -9.94506  -9.94460  -9.94018  -9.94003
 Alpha  occ. eigenvalues --   -9.93684  -9.93498  -9.93490  -9.93313  -9.93276
 Alpha  occ. eigenvalues --   -9.93238  -9.93185  -9.93153  -9.92904  -9.92804
 Alpha  occ. eigenvalues --   -9.92798  -9.92751  -9.92734  -9.92378  -9.92187
 Alpha  occ. eigenvalues --   -9.92137  -9.92012  -9.91929  -9.91909  -9.91823
 Alpha  occ. eigenvalues --   -9.91689  -9.91631  -9.91538  -9.91501  -9.91489
 Alpha  occ. eigenvalues --   -9.91364  -9.91135  -9.90942  -9.90838  -9.90830
 Alpha  occ. eigenvalues --   -9.90767  -9.90680  -9.90680  -9.90651  -9.90547
 Alpha  occ. eigenvalues --   -9.90408  -2.92108  -1.72543  -1.71963  -1.71842
 Alpha  occ. eigenvalues --   -0.99829  -0.98641  -0.94444  -0.90740  -0.90486
 Alpha  occ. eigenvalues --   -0.88693  -0.87435  -0.85744  -0.84441  -0.83718
 Alpha  occ. eigenvalues --   -0.75465  -0.73621  -0.73190  -0.72632  -0.72396
 Alpha  occ. eigenvalues --   -0.71895  -0.71480  -0.70841  -0.70732  -0.70167
 Alpha  occ. eigenvalues --   -0.69464  -0.69265  -0.67981  -0.67541  -0.66894
 Alpha  occ. eigenvalues --   -0.66254  -0.65749  -0.65113  -0.64978  -0.64470
 Alpha  occ. eigenvalues --   -0.63970  -0.62562  -0.62387  -0.61635  -0.61059
 Alpha  occ. eigenvalues --   -0.60680  -0.60364  -0.59886  -0.59541  -0.58724
 Alpha  occ. eigenvalues --   -0.58224  -0.57752  -0.57048  -0.56032  -0.55297
 Alpha  occ. eigenvalues --   -0.54142  -0.52865  -0.52489  -0.51869  -0.51284
 Alpha  occ. eigenvalues --   -0.51187  -0.50976  -0.50687  -0.50461  -0.50415
 Alpha  occ. eigenvalues --   -0.49797  -0.49420  -0.49084  -0.48416  -0.46256
 Alpha  occ. eigenvalues --   -0.46040  -0.45915  -0.45672  -0.45199  -0.44967
 Alpha  occ. eigenvalues --   -0.44632  -0.43652  -0.43089  -0.42829  -0.42189
 Alpha  occ. eigenvalues --   -0.41956  -0.41712  -0.41596  -0.41486  -0.41422
 Alpha  occ. eigenvalues --   -0.40988  -0.40694  -0.40304  -0.40118  -0.40002
 Alpha  occ. eigenvalues --   -0.39759  -0.39562  -0.39285  -0.39190  -0.39111
 Alpha  occ. eigenvalues --   -0.38863  -0.38667  -0.38570  -0.38565  -0.38342
 Alpha  occ. eigenvalues --   -0.37833  -0.37767  -0.37705  -0.37489  -0.37175
 Alpha  occ. eigenvalues --   -0.36938  -0.36898  -0.36768  -0.36472  -0.36289
 Alpha  occ. eigenvalues --   -0.36097  -0.36065  -0.36017  -0.35882  -0.35528
 Alpha  occ. eigenvalues --   -0.35439  -0.35083  -0.35082  -0.34953  -0.34738
 Alpha  occ. eigenvalues --   -0.34504  -0.34347  -0.34315  -0.34094  -0.34078
 Alpha  occ. eigenvalues --   -0.33848  -0.33595  -0.33462  -0.33410  -0.33376
 Alpha  occ. eigenvalues --   -0.33190  -0.33135  -0.33030  -0.32465  -0.32364
 Alpha  occ. eigenvalues --   -0.32321  -0.32206  -0.32046  -0.32030  -0.31745
 Alpha  occ. eigenvalues --   -0.31331  -0.31220  -0.31101  -0.30863  -0.30577
 Alpha  occ. eigenvalues --   -0.30557  -0.30513  -0.30358  -0.30029  -0.29957
 Alpha  occ. eigenvalues --   -0.29920  -0.29211  -0.29151  -0.28896  -0.28816
 Alpha  occ. eigenvalues --   -0.28700  -0.28210  -0.27899  -0.27769  -0.27674
 Alpha  occ. eigenvalues --   -0.27465  -0.26719  -0.26713  -0.26672  -0.26339
 Alpha  occ. eigenvalues --   -0.26338  -0.26274  -0.26044  -0.25935  -0.25490
 Alpha  occ. eigenvalues --   -0.25040  -0.24868  -0.24402  -0.23857  -0.23467
 Alpha  occ. eigenvalues --   -0.23262  -0.22390  -0.21886  -0.21270  -0.21154
 Alpha  occ. eigenvalues --   -0.20750  -0.19912  -0.19323  -0.18450  -0.17249
 Alpha  occ. eigenvalues --   -0.15758
 Alpha virt. eigenvalues --   -0.11386  -0.07147  -0.05954  -0.04778  -0.03000
 Alpha virt. eigenvalues --   -0.02659  -0.02315  -0.01598  -0.01320  -0.00011
 Alpha virt. eigenvalues --    0.01341   0.01535   0.02082   0.02582   0.02677

 Mulliken charges:
               1
     1  Mg   0.697506
     2  C   -0.015450
     3  C   -0.011282
     4  C   -0.020671
     5  C   -0.119075
     6  N   -0.222698
     7  C   -0.061024
     8  C    0.019666
     9  C    0.010879
    10  C   -0.051159
    11  C    0.126113
    12  C    0.084718
    13  C    0.161630
    14  C    0.014642
    15  O   -0.213250
    16  O   -0.239139
    17  N   -0.327051
    18  C    0.157723
    19  C   -0.123464
    20  C    0.042329
    21  C    0.094851
    22  C    0.140867
    23  C   -0.087847
    24  O   -0.176617
    25  C    0.129002
    26  N   -0.240208
    27  C    0.030178
    28  C    0.009779
    29  C    0.035363
    30  C    0.005119
    31  C    0.113682
    32  C    0.075420
    33  C    0.066606
    34  N   -0.192188
    35  C    0.193346
    36  C   -0.187078
    37  C    0.070311
    38  C    0.072066
    39  C    0.161109
    40  C   -0.075064
    41  O   -0.072181
    42  C    0.082078
    43  C    0.107498
    44  O   -0.180799
    45  O   -0.253206
    46  C    0.224930
    47  C    0.326635
    48  C   -0.151666
    49  C   -0.118693
    50  C    0.118548
    51  C    0.102295
    52  C    0.057377
    53  C    0.117793
    54  C   -0.061845
    55  C    0.126468
    56  C    0.081858
    57  C    0.035332
    58  C    0.103453
    59  C   -0.096310
    60  C    0.126410
    61  C    0.078019
    62  C    0.046413
    63  C    0.133999
    64  C   -0.111897
    65  C    0.092691
    66  C    0.117745
    67  H   -0.072164
    68  H   -0.037604
    69  H   -0.055387
    70  H   -0.018524
    71  H   -0.011936
    72  H   -0.013849
    73  H    0.004539
    74  H   -0.000061
    75  H   -0.006420
    76  H    0.013637
    77  H   -0.016440
    78  H   -0.002949
    79  H    0.003079
    80  H   -0.021668
    81  H    0.008324
    82  H    0.002325
    83  H    0.022202
    84  H   -0.010327
    85  H   -0.020888
    86  H   -0.027514
    87  H   -0.002929
    88  H   -0.009183
    89  H   -0.005641
    90  H   -0.020220
    91  H   -0.034640
    92  H   -0.006834
    93  H    0.019752
    94  H   -0.016907
    95  H    0.006576
    96  H   -0.002238
    97  H   -0.009937
    98  H    0.000671
    99  H    0.009231
   100  H    0.008395
   101  H    0.013363
   102  H    0.045166
   103  H    0.010979
   104  H   -0.030509
   105  H   -0.005572
   106  H   -0.011014
   107  H   -0.009578
   108  H   -0.023295
   109  H   -0.032633
   110  H   -0.013021
   111  H   -0.020338
   112  H   -0.029116
   113  H   -0.040519
   114  H   -0.035875
   115  H   -0.027022
   116  H   -0.016794
   117  H   -0.019946
   118  H   -0.033879
   119  H   -0.042802
   120  H   -0.028596
   121  H   -0.024020
   122  H   -0.042544
   123  H   -0.039791
   124  H   -0.032023
   125  H   -0.016743
   126  H   -0.012917
   127  H   -0.013138
   128  H   -0.037864
   129  H   -0.023169
   130  H   -0.036030
   131  H    0.000545
   132  H   -0.046564
   133  H   -0.033129
   134  H   -0.029513
   135  H   -0.028377
   136  H   -0.012332
   137  H   -0.023501
   138  H   -0.020025
   139  H   -0.018036
   140  H   -0.016886
 Sum of Mulliken charges =  -0.00000

 Dipole moment (field-independent basis, Debye):
    X=             -2.7355    Y=              1.3599    Z=             -0.5086  Tot=              3.0969
 Quadrupole moment (field-independent basis, Debye-Ang):
   XX=           -391.8466   YY=           -419.4926   ZZ=           -412.2484
   XY=             -1.0204   XZ=             25.7611   YZ=              8.1049

 Normal termination of Gaussian 16 at Thu May  5 13:45:28 2022.
