 Gaussian 16, Revision A.03,
 Gaussian 16:  ES64L-G16RevA.03 25-Dec-2016

 -----------------------------------
 #p cam-b3lyp/Def2SVP td=(nstates=5)
 -----------------------------------

 -------------------------------------------------------
 step_901_chromophore_16 TDDFT with cam-b3lyp functional
 -------------------------------------------------------
 Symbolic Z-matrix:
 Charge =  0 Multiplicity = 1

                         Standard orientation:
 ---------------------------------------------------------------------
 Center     Atomic      Atomic             Coordinates (Angstroms)
 Number     Number       Type             X           Y           Z
 ---------------------------------------------------------------------
      1         12           0        6.119458    0.753644    0.295342
      2          6           0        4.050990   -2.164133    0.103856
      3          6           0        3.474808    2.561650   -0.998446
      4          6           0        8.198778    3.336355    0.301011
      5          6           0        8.719949   -1.559297    1.007615
      6          7           0        3.977030    0.235352   -0.361768
      7          6           0        3.366308   -1.011757   -0.297135
      8          6           0        1.849214   -0.872754   -0.648731
      9          6           0        1.702919    0.663890   -1.047888
     10          6           0        3.113018    1.226688   -0.803642
     11          6           0        1.110802    0.984262   -2.459905
     12          6           0        0.899077   -1.397107    0.506307
     13          6           0       -0.514902   -0.816379    0.506979
     14          6           0       -1.517963   -1.820899    0.828511
     15          8           0       -1.833235   -2.363642    1.894384
     16          8           0       -2.222498   -1.996682   -0.261602
     17          7           0        5.882287    2.715219   -0.279171
     18          6           0        4.706325    3.282939   -0.754378
     19          6           0        4.989697    4.721032   -1.002732
     20          6           0        6.358998    4.964588   -0.648481
     21          6           0        6.893101    3.668640   -0.193942
     22          6           0        3.837825    5.698842   -1.485398
     23          6           0        7.187977    6.225218   -0.695224
     24          8           0        8.422172    6.252869   -0.634668
     25          6           0        6.458306    7.519508   -1.031740
     26          7           0        8.193832    0.867452    0.565358
     27          6           0        8.822972    2.065409    0.538553
     28          6           0       10.309907    1.909411    0.757682
     29          6           0       10.442812    0.421490    1.063690
     30          6           0        9.021865   -0.176076    0.924073
     31          6           0       11.203566    2.369486   -0.468078
     32          6           0       11.217014    0.203303    2.372524
     33          6           0       10.365084   -0.341899    3.525408
     34          7           0        6.392933   -1.375566    0.472861
     35          6           0        7.513118   -2.115335    0.743633
     36          6           0        7.182761   -3.526655    0.908246
     37          6           0        5.814468   -3.605235    0.666037
     38          6           0        5.435673   -2.256599    0.332052
     39          6           0        7.974223   -4.747931    1.292128
     40          6           0        4.640033   -4.460626    0.640842
     41          8           0        4.607796   -5.622730    0.810864
     42          6           0        3.447446   -3.585941    0.240503
     43          6           0        2.804253   -4.167842   -0.994642
     44          8           0        3.227051   -3.980347   -2.127199
     45          8           0        1.718057   -4.928634   -0.661008
     46          6           0        1.009747   -5.506393   -1.788244
     47          6           0       -3.193812   -3.123708   -0.224023
     48          6           0       -4.372570   -2.513697   -1.039007
     49          6           0       -5.607776   -3.062205   -1.227628
     50          6           0       -6.072142   -4.494126   -0.723983
     51          6           0       -6.612784   -2.254972   -2.045556
     52          6           0       -8.004826   -1.802778   -1.362853
     53          6           0       -8.093364   -0.237068   -1.262717
     54          6           0       -9.448025    0.394393   -1.789203
     55          6           0       -9.223174    1.443058   -2.833683
     56          6           0      -10.327521    0.883915   -0.609406
     57          6           0      -11.519976   -0.066707   -0.357258
     58          6           0      -12.774940    0.229546   -1.244866
     59          6           0      -13.973961    0.784142   -0.390881
     60          6           0      -15.300604    0.662055   -1.103823
     61          6           0      -13.687200    2.324908    0.017809
     62          6           0      -13.198490    2.421923    1.502493
     63          6           0      -14.264583    3.104870    2.463423
     64          6           0      -15.040205    1.947774    3.067573
     65          6           0      -14.771900    1.864551    4.558005
     66          6           0      -16.523112    1.998679    2.716062
     67          1           0        2.547372    3.073491   -1.263960
     68          1           0        8.856674    4.188615    0.484551
     69          1           0        9.541799   -2.142658    1.427024
     70          1           0        1.623918   -1.526906   -1.491912
     71          1           0        1.070492    1.192952   -0.334029
     72          1           0        0.389057    1.798625   -2.387116
     73          1           0        0.618045    0.110597   -2.885563
     74          1           0        1.915650    1.385779   -3.076513
     75          1           0        1.243152   -1.162460    1.513311
     76          1           0        0.852710   -2.462042    0.278501
     77          1           0       -0.827749   -0.387057   -0.445355
     78          1           0       -0.672413   -0.025417    1.241243
     79          1           0        3.494757    6.374868   -0.702325
     80          1           0        2.862399    5.258031   -1.689382
     81          1           0        4.188538    6.245611   -2.360796
     82          1           0        5.670536    7.510753   -0.278449
     83          1           0        6.140039    7.544701   -2.074400
     84          1           0        7.144503    8.351448   -0.869058
     85          1           0       10.723735    2.482827    1.588076
     86          1           0       11.016119   -0.095764    0.294982
     87          1           0       10.583965    3.096930   -0.993100
     88          1           0       11.415238    1.566141   -1.173029
     89          1           0       12.108112    2.889849   -0.150694
     90          1           0       11.784029    1.105788    2.599565
     91          1           0       11.968035   -0.533013    2.084465
     92          1           0       10.700131   -1.295000    3.935103
     93          1           0        9.283849   -0.348734    3.387761
     94          1           0       10.606032    0.400306    4.287553
     95          1           0        7.354896   -5.638848    1.189179
     96          1           0        8.337953   -4.655814    2.315797
     97          1           0        8.848301   -4.982972    0.685858
     98          1           0        2.700350   -3.624573    1.033403
     99          1           0        1.685464   -6.050671   -2.448920
    100          1           0        0.498715   -4.808414   -2.450308
    101          1           0        0.311234   -6.270824   -1.448483
    102          1           0       -3.583097   -3.472095    0.732013
    103          1           0       -2.871031   -3.894182   -0.924154
    104          1           0       -4.281968   -1.517622   -1.471950
    105          1           0       -6.421792   -5.174995   -1.500117
    106          1           0       -6.995610   -4.368121   -0.158178
    107          1           0       -5.335133   -4.995248   -0.097005
    108          1           0       -6.982354   -2.804448   -2.911518
    109          1           0       -6.129715   -1.295455   -2.230116
    110          1           0       -7.986006   -2.280759   -0.383217
    111          1           0       -8.690688   -2.241538   -2.086157
    112          1           0       -7.238928    0.315533   -1.654811
    113          1           0       -8.099107    0.006607   -0.200470
    114          1           0      -10.059343   -0.418833   -2.181331
    115          1           0       -9.954675    2.247263   -2.753641
    116          1           0       -9.331945    1.016411   -3.830719
    117          1           0       -8.257109    1.941709   -2.752776
    118          1           0      -10.586267    1.938730   -0.695866
    119          1           0       -9.876761    0.805454    0.380528
    120          1           0      -11.632166    0.025368    0.722969
    121          1           0      -11.339615   -1.095386   -0.670211
    122          1           0      -12.994861   -0.662916   -1.830859
    123          1           0      -12.497917    1.008656   -1.955486
    124          1           0      -13.961183    0.167765    0.507990
    125          1           0      -16.069421    0.824237   -0.348002
    126          1           0      -15.464158   -0.288686   -1.609732
    127          1           0      -15.249789    1.539852   -1.748063
    128          1           0      -14.638764    2.840227   -0.113163
    129          1           0      -12.974226    2.852632   -0.615521
    130          1           0      -12.259926    2.973607    1.467244
    131          1           0      -13.036375    1.401097    1.849438
    132          1           0      -14.914735    3.666329    1.791001
    133          1           0      -13.969698    3.821867    3.228624
    134          1           0      -14.698669    0.961933    2.752507
    135          1           0      -15.091918    0.913965    4.985958
    136          1           0      -15.200350    2.653398    5.177171
    137          1           0      -13.686181    1.828419    4.652124
    138          1           0      -17.094984    2.454619    3.523389
    139          1           0      -16.823394    0.968696    2.522134
    140          1           0      -16.691811    2.575731    1.806613
 ---------------------------------------------------------------------

 SCF Done:  E(RCAM-B3LYP) =  -3007.15409478     A.U. after   19 cycles

 Excitation energies and oscillator strengths:

 Excited State   1:      Singlet-A      1.7200 eV  720.85 nm  f=0.3832  <S**2>=0.000
     245 -> 248        0.18775
     246 -> 247        0.68313
     245 <- 248        0.10898
 This state for optimization and/or second-order correction.
 Total Energy, E(TD-HF/TD-DFT) =  -3007.09088678
 Copying the excited state density for this state as the 1-particle RhoCI density.

 Excited State   2:      Singlet-A      2.2530 eV  550.31 nm  f=0.0784  <S**2>=0.000
     245 -> 247        0.62283
     246 -> 248       -0.32551

 Excited State   3:      Singlet-A      3.4535 eV  359.01 nm  f=0.5226  <S**2>=0.000
     243 -> 247        0.32438
     245 -> 247        0.26921
     246 -> 248        0.54114

 Excited State   4:      Singlet-A      3.5771 eV  346.61 nm  f=0.2337  <S**2>=0.000
     240 -> 247       -0.10508
     241 -> 247       -0.22587
     242 -> 247       -0.16526
     242 -> 249        0.12087
     242 -> 250       -0.11550
     243 -> 247        0.48632
     245 -> 247       -0.14781
     246 -> 248       -0.27510

 Excited State   5:      Singlet-A      3.6345 eV  341.13 nm  f=0.0061  <S**2>=0.000
     241 -> 247       -0.32974
     242 -> 247        0.42772
     242 -> 248        0.13912
     242 -> 249       -0.21690
     242 -> 250        0.16558
     243 -> 247        0.18843

 The electronic state is 1-A.
 Alpha  occ. eigenvalues --  -46.89123 -19.26393 -19.25753 -19.20357 -19.19600
 Alpha  occ. eigenvalues --  -19.18630 -19.18541 -14.42359 -14.41840 -14.39832
 Alpha  occ. eigenvalues --  -14.39643 -10.39967 -10.38448 -10.35056 -10.34866
 Alpha  occ. eigenvalues --  -10.32856 -10.32089 -10.31547 -10.31233 -10.30828
 Alpha  occ. eigenvalues --  -10.30788 -10.30648 -10.30353 -10.29787 -10.29294
 Alpha  occ. eigenvalues --  -10.29019 -10.29000 -10.28477 -10.28458 -10.28446
 Alpha  occ. eigenvalues --  -10.28005 -10.27665 -10.27540 -10.27335 -10.27297
 Alpha  occ. eigenvalues --  -10.27138 -10.27109 -10.27061 -10.27044 -10.26880
 Alpha  occ. eigenvalues --  -10.26666 -10.26592 -10.26482 -10.26105 -10.26101
 Alpha  occ. eigenvalues --  -10.26090 -10.25896 -10.25718 -10.25701 -10.25617
 Alpha  occ. eigenvalues --  -10.25396 -10.25388 -10.25255 -10.25201 -10.25152
 Alpha  occ. eigenvalues --  -10.25080 -10.25015 -10.24781 -10.24636 -10.24542
 Alpha  occ. eigenvalues --  -10.24500 -10.24335 -10.24322 -10.24257 -10.24130
 Alpha  occ. eigenvalues --  -10.23988  -3.17553  -1.92465  -1.91978  -1.91875
 Alpha  occ. eigenvalues --   -1.18379  -1.17266  -1.13188  -1.08997  -1.08558
 Alpha  occ. eigenvalues --   -1.06574  -1.05286  -1.03381  -1.01931  -1.01032
 Alpha  occ. eigenvalues --   -0.92711  -0.90448  -0.90032  -0.89414  -0.89059
 Alpha  occ. eigenvalues --   -0.88641  -0.88152  -0.87437  -0.87318  -0.86747
 Alpha  occ. eigenvalues --   -0.85802  -0.85762  -0.84207  -0.83707  -0.83001
 Alpha  occ. eigenvalues --   -0.82237  -0.81693  -0.81006  -0.80959  -0.80314
 Alpha  occ. eigenvalues --   -0.79797  -0.78276  -0.77960  -0.77183  -0.76518
 Alpha  occ. eigenvalues --   -0.76080  -0.75755  -0.75136  -0.74836  -0.73945
 Alpha  occ. eigenvalues --   -0.73296  -0.72787  -0.71934  -0.70834  -0.70012
 Alpha  occ. eigenvalues --   -0.68777  -0.67341  -0.66874  -0.66165  -0.65442
 Alpha  occ. eigenvalues --   -0.65224  -0.64949  -0.64830  -0.64535  -0.64458
 Alpha  occ. eigenvalues --   -0.63727  -0.63432  -0.62867  -0.62296  -0.59926
 Alpha  occ. eigenvalues --   -0.59581  -0.59452  -0.59218  -0.58690  -0.58534
 Alpha  occ. eigenvalues --   -0.58100  -0.56871  -0.56512  -0.56002  -0.55333
 Alpha  occ. eigenvalues --   -0.55206  -0.54885  -0.54604  -0.54519  -0.54209
 Alpha  occ. eigenvalues --   -0.53917  -0.53585  -0.53230  -0.52790  -0.52746
 Alpha  occ. eigenvalues --   -0.52305  -0.52276  -0.51857  -0.51717  -0.51649
 Alpha  occ. eigenvalues --   -0.51588  -0.51325  -0.51162  -0.51038  -0.50885
 Alpha  occ. eigenvalues --   -0.50315  -0.50125  -0.49978  -0.49910  -0.49540
 Alpha  occ. eigenvalues --   -0.49316  -0.49210  -0.49093  -0.49041  -0.48778
 Alpha  occ. eigenvalues --   -0.48372  -0.48191  -0.48057  -0.47902  -0.47625
 Alpha  occ. eigenvalues --   -0.47432  -0.47152  -0.47009  -0.46951  -0.46795
 Alpha  occ. eigenvalues --   -0.46407  -0.46150  -0.46089  -0.46034  -0.45924
 Alpha  occ. eigenvalues --   -0.45821  -0.45604  -0.45411  -0.45241  -0.45033
 Alpha  occ. eigenvalues --   -0.44892  -0.44820  -0.44720  -0.44217  -0.44044
 Alpha  occ. eigenvalues --   -0.43976  -0.43854  -0.43686  -0.43484  -0.43464
 Alpha  occ. eigenvalues --   -0.42941  -0.42814  -0.42738  -0.42539  -0.42115
 Alpha  occ. eigenvalues --   -0.41853  -0.41753  -0.41610  -0.41418  -0.41176
 Alpha  occ. eigenvalues --   -0.41135  -0.40503  -0.40388  -0.39954  -0.39848
 Alpha  occ. eigenvalues --   -0.39763  -0.39171  -0.38812  -0.38670  -0.38594
 Alpha  occ. eigenvalues --   -0.38359  -0.37698  -0.37545  -0.37533  -0.37485
 Alpha  occ. eigenvalues --   -0.37431  -0.37052  -0.36964  -0.36751  -0.36401
 Alpha  occ. eigenvalues --   -0.36185  -0.35573  -0.34939  -0.34789  -0.34449
 Alpha  occ. eigenvalues --   -0.33646  -0.33450  -0.33190  -0.31590  -0.31163
 Alpha  occ. eigenvalues --   -0.30686  -0.30585  -0.29832  -0.29522  -0.23985
 Alpha  occ. eigenvalues --   -0.20948
 Alpha virt. eigenvalues --   -0.08378  -0.02017   0.00570   0.02257   0.02376
 Alpha virt. eigenvalues --    0.04752   0.05094   0.05736   0.06120   0.06824
 Alpha virt. eigenvalues --    0.07780   0.08419   0.08566   0.08761   0.09078

 Mulliken charges:
               1
     1  Mg   0.827749
     2  C   -0.048829
     3  C   -0.033762
     4  C   -0.036450
     5  C   -0.117493
     6  N   -0.295079
     7  C   -0.012995
     8  C   -0.022312
     9  C   -0.047188
    10  C   -0.022064
    11  C    0.065420
    12  C    0.031587
    13  C    0.084109
    14  C    0.102619
    15  O   -0.257355
    16  O   -0.302916
    17  N   -0.412682
    18  C    0.165961
    19  C   -0.133518
    20  C   -0.028729
    21  C    0.115877
    22  C    0.091285
    23  C   -0.008771
    24  O   -0.217514
    25  C    0.049873
    26  N   -0.312393
    27  C    0.045732
    28  C   -0.048045
    29  C   -0.016035
    30  C    0.018204
    31  C    0.059528
    32  C    0.020397
    33  C   -0.000583
    34  N   -0.280166
    35  C    0.191257
    36  C   -0.173910
    37  C   -0.011295
    38  C    0.114057
    39  C    0.107619
    40  C    0.025133
    41  O   -0.109423
    42  C    0.009003
    43  C    0.190371
    44  O   -0.215959
    45  O   -0.316275
    46  C    0.182154
    47  C    0.294510
    48  C   -0.171992
    49  C   -0.145655
    50  C    0.065044
    51  C    0.051372
    52  C    0.002666
    53  C    0.065083
    54  C   -0.120831
    55  C    0.068498
    56  C    0.033422
    57  C   -0.018926
    58  C    0.057112
    59  C   -0.148834
    60  C    0.070830
    61  C    0.026508
    62  C   -0.005128
    63  C    0.074840
    64  C   -0.171804
    65  C    0.037088
    66  C    0.061311
    67  H   -0.039897
    68  H    0.002322
    69  H   -0.018138
    70  H    0.014961
    71  H    0.021254
    72  H    0.010027
    73  H    0.027706
    74  H    0.027403
    75  H    0.025972
    76  H    0.037592
    77  H    0.019715
    78  H    0.030525
    79  H    0.027311
    80  H    0.005970
    81  H    0.030891
    82  H    0.027568
    83  H    0.048523
    84  H    0.024277
    85  H    0.013153
    86  H    0.008165
    87  H    0.022425
    88  H    0.014524
    89  H    0.018094
    90  H    0.008178
    91  H   -0.004856
    92  H    0.017346
    93  H    0.043001
    94  H    0.008597
    95  H    0.036074
    96  H    0.023761
    97  H    0.017679
    98  H    0.044924
    99  H    0.034515
   100  H    0.030484
   101  H    0.037568
   102  H    0.075778
   103  H    0.037664
   104  H    0.004158
   105  H    0.019458
   106  H    0.011973
   107  H    0.013557
   108  H    0.005358
   109  H   -0.005196
   110  H    0.013089
   111  H    0.006945
   112  H   -0.002133
   113  H   -0.009746
   114  H   -0.005687
   115  H   -0.003239
   116  H    0.008175
   117  H    0.003795
   118  H   -0.008385
   119  H   -0.013379
   120  H   -0.001525
   121  H    0.003728
   122  H   -0.012725
   123  H   -0.014277
   124  H   -0.004040
   125  H    0.005126
   126  H    0.012041
   127  H    0.009015
   128  H   -0.009952
   129  H    0.004132
   130  H   -0.006752
   131  H    0.020450
   132  H   -0.016319
   133  H   -0.001933
   134  H   -0.000396
   135  H   -0.002859
   136  H    0.010588
   137  H    0.000432
   138  H    0.004591
   139  H    0.005404
   140  H    0.004164
 Sum of Mulliken charges =  -0.00000

 Dipole moment (field-independent basis, Debye):
    X=             -2.8612    Y=              1.2754    Z=             -0.4623  Tot=              3.1666
 Quadrupole moment (field-independent basis, Debye-Ang):
   XX=           -390.1878   YY=           -414.8019   ZZ=           -412.5130
   XY=             -2.1831   XZ=             27.6107   YZ=              7.9670

 Normal termination of Gaussian 16 at Thu May  5 12:32:19 2022.
