 Gaussian 16, Revision A.03,
 Gaussian 16:  ES64L-G16RevA.03 25-Dec-2016

 ---------------------------------
 #p PBE1PBE/Def2SVP td=(nstates=5)
 ---------------------------------

 -----------------------------------------------------
 step_901_chromophore_16 TDDFT with PBE1PBE functional
 -----------------------------------------------------
 Symbolic Z-matrix:
 Charge =  0 Multiplicity = 1

                         Standard orientation:
 ---------------------------------------------------------------------
 Center     Atomic      Atomic             Coordinates (Angstroms)
 Number     Number       Type             X           Y           Z
 ---------------------------------------------------------------------
      1         12           0        6.119458    0.753644    0.295342
      2          6           0        4.050990   -2.164133    0.103856
      3          6           0        3.474808    2.561650   -0.998446
      4          6           0        8.198778    3.336355    0.301011
      5          6           0        8.719949   -1.559297    1.007615
      6          7           0        3.977030    0.235352   -0.361768
      7          6           0        3.366308   -1.011757   -0.297135
      8          6           0        1.849214   -0.872754   -0.648731
      9          6           0        1.702919    0.663890   -1.047888
     10          6           0        3.113018    1.226688   -0.803642
     11          6           0        1.110802    0.984262   -2.459905
     12          6           0        0.899077   -1.397107    0.506307
     13          6           0       -0.514902   -0.816379    0.506979
     14          6           0       -1.517963   -1.820899    0.828511
     15          8           0       -1.833235   -2.363642    1.894384
     16          8           0       -2.222498   -1.996682   -0.261602
     17          7           0        5.882287    2.715219   -0.279171
     18          6           0        4.706325    3.282939   -0.754378
     19          6           0        4.989697    4.721032   -1.002732
     20          6           0        6.358998    4.964588   -0.648481
     21          6           0        6.893101    3.668640   -0.193942
     22          6           0        3.837825    5.698842   -1.485398
     23          6           0        7.187977    6.225218   -0.695224
     24          8           0        8.422172    6.252869   -0.634668
     25          6           0        6.458306    7.519508   -1.031740
     26          7           0        8.193832    0.867452    0.565358
     27          6           0        8.822972    2.065409    0.538553
     28          6           0       10.309907    1.909411    0.757682
     29          6           0       10.442812    0.421490    1.063690
     30          6           0        9.021865   -0.176076    0.924073
     31          6           0       11.203566    2.369486   -0.468078
     32          6           0       11.217014    0.203303    2.372524
     33          6           0       10.365084   -0.341899    3.525408
     34          7           0        6.392933   -1.375566    0.472861
     35          6           0        7.513118   -2.115335    0.743633
     36          6           0        7.182761   -3.526655    0.908246
     37          6           0        5.814468   -3.605235    0.666037
     38          6           0        5.435673   -2.256599    0.332052
     39          6           0        7.974223   -4.747931    1.292128
     40          6           0        4.640033   -4.460626    0.640842
     41          8           0        4.607796   -5.622730    0.810864
     42          6           0        3.447446   -3.585941    0.240503
     43          6           0        2.804253   -4.167842   -0.994642
     44          8           0        3.227051   -3.980347   -2.127199
     45          8           0        1.718057   -4.928634   -0.661008
     46          6           0        1.009747   -5.506393   -1.788244
     47          6           0       -3.193812   -3.123708   -0.224023
     48          6           0       -4.372570   -2.513697   -1.039007
     49          6           0       -5.607776   -3.062205   -1.227628
     50          6           0       -6.072142   -4.494126   -0.723983
     51          6           0       -6.612784   -2.254972   -2.045556
     52          6           0       -8.004826   -1.802778   -1.362853
     53          6           0       -8.093364   -0.237068   -1.262717
     54          6           0       -9.448025    0.394393   -1.789203
     55          6           0       -9.223174    1.443058   -2.833683
     56          6           0      -10.327521    0.883915   -0.609406
     57          6           0      -11.519976   -0.066707   -0.357258
     58          6           0      -12.774940    0.229546   -1.244866
     59          6           0      -13.973961    0.784142   -0.390881
     60          6           0      -15.300604    0.662055   -1.103823
     61          6           0      -13.687200    2.324908    0.017809
     62          6           0      -13.198490    2.421923    1.502493
     63          6           0      -14.264583    3.104870    2.463423
     64          6           0      -15.040205    1.947774    3.067573
     65          6           0      -14.771900    1.864551    4.558005
     66          6           0      -16.523112    1.998679    2.716062
     67          1           0        2.547372    3.073491   -1.263960
     68          1           0        8.856674    4.188615    0.484551
     69          1           0        9.541799   -2.142658    1.427024
     70          1           0        1.623918   -1.526906   -1.491912
     71          1           0        1.070492    1.192952   -0.334029
     72          1           0        0.389057    1.798625   -2.387116
     73          1           0        0.618045    0.110597   -2.885563
     74          1           0        1.915650    1.385779   -3.076513
     75          1           0        1.243152   -1.162460    1.513311
     76          1           0        0.852710   -2.462042    0.278501
     77          1           0       -0.827749   -0.387057   -0.445355
     78          1           0       -0.672413   -0.025417    1.241243
     79          1           0        3.494757    6.374868   -0.702325
     80          1           0        2.862399    5.258031   -1.689382
     81          1           0        4.188538    6.245611   -2.360796
     82          1           0        5.670536    7.510753   -0.278449
     83          1           0        6.140039    7.544701   -2.074400
     84          1           0        7.144503    8.351448   -0.869058
     85          1           0       10.723735    2.482827    1.588076
     86          1           0       11.016119   -0.095764    0.294982
     87          1           0       10.583965    3.096930   -0.993100
     88          1           0       11.415238    1.566141   -1.173029
     89          1           0       12.108112    2.889849   -0.150694
     90          1           0       11.784029    1.105788    2.599565
     91          1           0       11.968035   -0.533013    2.084465
     92          1           0       10.700131   -1.295000    3.935103
     93          1           0        9.283849   -0.348734    3.387761
     94          1           0       10.606032    0.400306    4.287553
     95          1           0        7.354896   -5.638848    1.189179
     96          1           0        8.337953   -4.655814    2.315797
     97          1           0        8.848301   -4.982972    0.685858
     98          1           0        2.700350   -3.624573    1.033403
     99          1           0        1.685464   -6.050671   -2.448920
    100          1           0        0.498715   -4.808414   -2.450308
    101          1           0        0.311234   -6.270824   -1.448483
    102          1           0       -3.583097   -3.472095    0.732013
    103          1           0       -2.871031   -3.894182   -0.924154
    104          1           0       -4.281968   -1.517622   -1.471950
    105          1           0       -6.421792   -5.174995   -1.500117
    106          1           0       -6.995610   -4.368121   -0.158178
    107          1           0       -5.335133   -4.995248   -0.097005
    108          1           0       -6.982354   -2.804448   -2.911518
    109          1           0       -6.129715   -1.295455   -2.230116
    110          1           0       -7.986006   -2.280759   -0.383217
    111          1           0       -8.690688   -2.241538   -2.086157
    112          1           0       -7.238928    0.315533   -1.654811
    113          1           0       -8.099107    0.006607   -0.200470
    114          1           0      -10.059343   -0.418833   -2.181331
    115          1           0       -9.954675    2.247263   -2.753641
    116          1           0       -9.331945    1.016411   -3.830719
    117          1           0       -8.257109    1.941709   -2.752776
    118          1           0      -10.586267    1.938730   -0.695866
    119          1           0       -9.876761    0.805454    0.380528
    120          1           0      -11.632166    0.025368    0.722969
    121          1           0      -11.339615   -1.095386   -0.670211
    122          1           0      -12.994861   -0.662916   -1.830859
    123          1           0      -12.497917    1.008656   -1.955486
    124          1           0      -13.961183    0.167765    0.507990
    125          1           0      -16.069421    0.824237   -0.348002
    126          1           0      -15.464158   -0.288686   -1.609732
    127          1           0      -15.249789    1.539852   -1.748063
    128          1           0      -14.638764    2.840227   -0.113163
    129          1           0      -12.974226    2.852632   -0.615521
    130          1           0      -12.259926    2.973607    1.467244
    131          1           0      -13.036375    1.401097    1.849438
    132          1           0      -14.914735    3.666329    1.791001
    133          1           0      -13.969698    3.821867    3.228624
    134          1           0      -14.698669    0.961933    2.752507
    135          1           0      -15.091918    0.913965    4.985958
    136          1           0      -15.200350    2.653398    5.177171
    137          1           0      -13.686181    1.828419    4.652124
    138          1           0      -17.094984    2.454619    3.523389
    139          1           0      -16.823394    0.968696    2.522134
    140          1           0      -16.691811    2.575731    1.806613
 ---------------------------------------------------------------------

 SCF Done:  E(RPBE1PBE) =  -3005.34261318     A.U. after   16 cycles

 Excitation energies and oscillator strengths:

 Excited State   1:      Singlet-A      1.8736 eV  661.74 nm  f=0.3723  <S**2>=0.000
     245 -> 248        0.18052
     246 -> 247        0.68981
     246 <- 247       -0.10197
 This state for optimization and/or second-order correction.
 Total Energy, E(TD-HF/TD-DFT) =  -3005.27375906
 Copying the excited state density for this state as the 1-particle RhoCI density.

 Excited State   2:      Singlet-A      2.2597 eV  548.68 nm  f=0.0814  <S**2>=0.000
     245 -> 247        0.63766
     246 -> 248       -0.29419

 Excited State   3:      Singlet-A      3.0528 eV  406.14 nm  f=0.0034  <S**2>=0.000
     242 -> 247        0.11919
     243 -> 247        0.64814
     243 -> 249       -0.12696
     246 -> 248       -0.12130

 Excited State   4:      Singlet-A      3.2011 eV  387.31 nm  f=0.0002  <S**2>=0.000
     240 -> 247       -0.19855
     241 -> 247       -0.45769
     242 -> 247        0.46060

 Excited State   5:      Singlet-A      3.2543 eV  380.99 nm  f=0.0984  <S**2>=0.000
     240 -> 247        0.11523
     241 -> 247        0.37021
     242 -> 247        0.43916
     245 -> 247        0.12628
     246 -> 248        0.34065

 The electronic state is 1-A.
 Alpha  occ. eigenvalues --  -46.92528 -19.26977 -19.26449 -19.20513 -19.19632
 Alpha  occ. eigenvalues --  -19.18939 -19.18857 -14.41822 -14.41473 -14.39577
 Alpha  occ. eigenvalues --  -14.39185 -10.36926 -10.35454 -10.32092 -10.32053
 Alpha  occ. eigenvalues --  -10.30285 -10.29267 -10.29192 -10.28945 -10.28692
 Alpha  occ. eigenvalues --  -10.28617 -10.28549 -10.28257 -10.27321 -10.27223
 Alpha  occ. eigenvalues --  -10.26824 -10.26496 -10.26328 -10.26022 -10.25934
 Alpha  occ. eigenvalues --  -10.25605 -10.25527 -10.25241 -10.25200 -10.24941
 Alpha  occ. eigenvalues --  -10.24926 -10.24851 -10.24609 -10.24559 -10.24521
 Alpha  occ. eigenvalues --  -10.24408 -10.24061 -10.23997 -10.23703 -10.23680
 Alpha  occ. eigenvalues --  -10.23504 -10.23442 -10.23400 -10.23306 -10.23117
 Alpha  occ. eigenvalues --  -10.22950 -10.22949 -10.22874 -10.22827 -10.22679
 Alpha  occ. eigenvalues --  -10.22600 -10.22553 -10.22443 -10.22216 -10.22116
 Alpha  occ. eigenvalues --  -10.22089 -10.21926 -10.21727 -10.21634 -10.21507
 Alpha  occ. eigenvalues --  -10.21362  -3.14541  -1.87394  -1.86885  -1.86785
 Alpha  occ. eigenvalues --   -1.13229  -1.11978  -1.07830  -1.03804  -1.03307
 Alpha  occ. eigenvalues --   -1.01426  -0.99869  -0.97981  -0.96581  -0.95773
 Alpha  occ. eigenvalues --   -0.86984  -0.84636  -0.84115  -0.83530  -0.83337
 Alpha  occ. eigenvalues --   -0.82789  -0.82460  -0.81740  -0.81451  -0.81049
 Alpha  occ. eigenvalues --   -0.80108  -0.80097  -0.78488  -0.77937  -0.77267
 Alpha  occ. eigenvalues --   -0.76447  -0.75925  -0.75290  -0.75125  -0.74552
 Alpha  occ. eigenvalues --   -0.74065  -0.72524  -0.72283  -0.71475  -0.70812
 Alpha  occ. eigenvalues --   -0.70241  -0.69837  -0.69463  -0.69012  -0.68119
 Alpha  occ. eigenvalues --   -0.67644  -0.67184  -0.66337  -0.65215  -0.64339
 Alpha  occ. eigenvalues --   -0.63217  -0.61634  -0.61334  -0.60487  -0.59796
 Alpha  occ. eigenvalues --   -0.59774  -0.59417  -0.59207  -0.58942  -0.58646
 Alpha  occ. eigenvalues --   -0.58190  -0.57581  -0.57415  -0.56491  -0.54432
 Alpha  occ. eigenvalues --   -0.54140  -0.54033  -0.53705  -0.53081  -0.52982
 Alpha  occ. eigenvalues --   -0.52513  -0.51535  -0.50943  -0.50561  -0.49954
 Alpha  occ. eigenvalues --   -0.49739  -0.49444  -0.49115  -0.49079  -0.48617
 Alpha  occ. eigenvalues --   -0.48522  -0.48104  -0.47748  -0.47332  -0.47219
 Alpha  occ. eigenvalues --   -0.46783  -0.46709  -0.46461  -0.46332  -0.46132
 Alpha  occ. eigenvalues --   -0.46101  -0.45863  -0.45736  -0.45601  -0.45394
 Alpha  occ. eigenvalues --   -0.44874  -0.44658  -0.44621  -0.44436  -0.44082
 Alpha  occ. eigenvalues --   -0.43979  -0.43823  -0.43710  -0.43597  -0.43422
 Alpha  occ. eigenvalues --   -0.43071  -0.42810  -0.42688  -0.42510  -0.42244
 Alpha  occ. eigenvalues --   -0.41995  -0.41798  -0.41683  -0.41503  -0.41445
 Alpha  occ. eigenvalues --   -0.41044  -0.40860  -0.40810  -0.40672  -0.40532
 Alpha  occ. eigenvalues --   -0.40465  -0.40293  -0.40135  -0.39951  -0.39721
 Alpha  occ. eigenvalues --   -0.39690  -0.39533  -0.39413  -0.39029  -0.38862
 Alpha  occ. eigenvalues --   -0.38710  -0.38619  -0.38501  -0.38287  -0.38187
 Alpha  occ. eigenvalues --   -0.37736  -0.37707  -0.37549  -0.37273  -0.37022
 Alpha  occ. eigenvalues --   -0.36707  -0.36556  -0.36492  -0.36301  -0.36102
 Alpha  occ. eigenvalues --   -0.35870  -0.35400  -0.35243  -0.34854  -0.34731
 Alpha  occ. eigenvalues --   -0.34638  -0.33992  -0.33539  -0.33512  -0.33386
 Alpha  occ. eigenvalues --   -0.33325  -0.32681  -0.32436  -0.32419  -0.32386
 Alpha  occ. eigenvalues --   -0.32298  -0.32044  -0.31832  -0.31602  -0.31469
 Alpha  occ. eigenvalues --   -0.31163  -0.30478  -0.29850  -0.29656  -0.29483
 Alpha  occ. eigenvalues --   -0.28831  -0.28622  -0.28229  -0.26817  -0.26528
 Alpha  occ. eigenvalues --   -0.26033  -0.25766  -0.25240  -0.24841  -0.20926
 Alpha  occ. eigenvalues --   -0.18627
 Alpha virt. eigenvalues --   -0.10903  -0.05492  -0.03655  -0.02169  -0.00442
 Alpha virt. eigenvalues --    0.00163   0.00738   0.01358   0.01678   0.03017
 Alpha virt. eigenvalues --    0.04024   0.04555   0.04960   0.05435   0.05672

 Mulliken charges:
               1
     1  Mg   0.972838
     2  C   -0.054960
     3  C   -0.039765
     4  C   -0.035436
     5  C   -0.097916
     6  N   -0.393924
     7  C    0.060597
     8  C   -0.086096
     9  C   -0.125612
    10  C    0.023498
    11  C    0.005262
    12  C   -0.026409
    13  C    0.006020
    14  C    0.180286
    15  O   -0.294004
    16  O   -0.335154
    17  N   -0.525943
    18  C    0.194498
    19  C   -0.157915
    20  C   -0.082353
    21  C    0.153531
    22  C    0.035727
    23  C    0.042022
    24  O   -0.252768
    25  C   -0.024881
    26  N   -0.424336
    27  C    0.084909
    28  C   -0.131158
    29  C   -0.076269
    30  C    0.052810
    31  C    0.003235
    32  C   -0.043178
    33  C   -0.073967
    34  N   -0.405508
    35  C    0.190599
    36  C   -0.183890
    37  C   -0.059170
    38  C    0.160879
    39  C    0.055473
    40  C    0.125266
    41  O   -0.159347
    42  C   -0.096988
    43  C    0.276299
    44  O   -0.250812
    45  O   -0.349412
    46  C    0.126160
    47  C    0.250232
    48  C   -0.186532
    49  C   -0.185247
    50  C    0.005478
    51  C   -0.011917
    52  C   -0.060282
    53  C    0.014487
    54  C   -0.209200
    55  C    0.010054
    56  C   -0.017973
    57  C   -0.085508
    58  C    0.009025
    59  C   -0.237336
    60  C    0.002344
    61  C   -0.016656
    62  C   -0.076316
    63  C    0.019570
    64  C   -0.265211
    65  C   -0.023543
    66  C    0.002854
    67  H   -0.005113
    68  H    0.033414
    69  H    0.012955
    70  H    0.053195
    71  H    0.059397
    72  H    0.036868
    73  H    0.054698
    74  H    0.055333
    75  H    0.057651
    76  H    0.075361
    77  H    0.053827
    78  H    0.062290
    79  H    0.054401
    80  H    0.032998
    81  H    0.058807
    82  H    0.054895
    83  H    0.074629
    84  H    0.052448
    85  H    0.049962
    86  H    0.046366
    87  H    0.051614
    88  H    0.041984
    89  H    0.045566
    90  H    0.038896
    91  H    0.028222
    92  H    0.044813
    93  H    0.072931
    94  H    0.037112
    95  H    0.062484
    96  H    0.050779
    97  H    0.044604
    98  H    0.080970
    99  H    0.056674
   100  H    0.052324
   101  H    0.059341
   102  H    0.100109
   103  H    0.065932
   104  H    0.033285
   105  H    0.046527
   106  H    0.039282
   107  H    0.040235
   108  H    0.038535
   109  H    0.027918
   110  H    0.046486
   111  H    0.037782
   112  H    0.026967
   113  H    0.024103
   114  H    0.033679
   115  H    0.023493
   116  H    0.036215
   117  H    0.030661
   118  H    0.024045
   119  H    0.018741
   120  H    0.030577
   121  H    0.036905
   122  H    0.018374
   123  H    0.020186
   124  H    0.034680
   125  H    0.037028
   126  H    0.039511
   127  H    0.037734
   128  H    0.021356
   129  H    0.034192
   130  H    0.026721
   131  H    0.052257
   132  H    0.017323
   133  H    0.029052
   134  H    0.037778
   135  H    0.025776
   136  H    0.037776
   137  H    0.029840
   138  H    0.032079
   139  H    0.032535
   140  H    0.030562
 Sum of Mulliken charges =  -0.00000

 Dipole moment (field-independent basis, Debye):
    X=             -2.8917    Y=              1.5573    Z=             -0.5047  Tot=              3.3229
 Quadrupole moment (field-independent basis, Debye-Ang):
   XX=           -384.3757   YY=           -411.8686   ZZ=           -410.0796
   XY=             -0.7845   XZ=             28.1800   YZ=              7.6907

 Normal termination of Gaussian 16 at Thu May  5 12:59:59 2022.
