 Gaussian 16, Revision A.03,
 Gaussian 16:  ES64L-G16RevA.03 25-Dec-2016

 --------------------------------
 #p wB97XD/Def2SVP td=(nstates=5)
 --------------------------------

 ----------------------------------------------------
 step_901_chromophore_16 TDDFT with wB97XD functional
 ----------------------------------------------------
 Symbolic Z-matrix:
 Charge =  0 Multiplicity = 1

                         Standard orientation:
 ---------------------------------------------------------------------
 Center     Atomic      Atomic             Coordinates (Angstroms)
 Number     Number       Type             X           Y           Z
 ---------------------------------------------------------------------
      1         12           0        6.119458    0.753644    0.295342
      2          6           0        4.050990   -2.164133    0.103856
      3          6           0        3.474808    2.561650   -0.998446
      4          6           0        8.198778    3.336355    0.301011
      5          6           0        8.719949   -1.559297    1.007615
      6          7           0        3.977030    0.235352   -0.361768
      7          6           0        3.366308   -1.011757   -0.297135
      8          6           0        1.849214   -0.872754   -0.648731
      9          6           0        1.702919    0.663890   -1.047888
     10          6           0        3.113018    1.226688   -0.803642
     11          6           0        1.110802    0.984262   -2.459905
     12          6           0        0.899077   -1.397107    0.506307
     13          6           0       -0.514902   -0.816379    0.506979
     14          6           0       -1.517963   -1.820899    0.828511
     15          8           0       -1.833235   -2.363642    1.894384
     16          8           0       -2.222498   -1.996682   -0.261602
     17          7           0        5.882287    2.715219   -0.279171
     18          6           0        4.706325    3.282939   -0.754378
     19          6           0        4.989697    4.721032   -1.002732
     20          6           0        6.358998    4.964588   -0.648481
     21          6           0        6.893101    3.668640   -0.193942
     22          6           0        3.837825    5.698842   -1.485398
     23          6           0        7.187977    6.225218   -0.695224
     24          8           0        8.422172    6.252869   -0.634668
     25          6           0        6.458306    7.519508   -1.031740
     26          7           0        8.193832    0.867452    0.565358
     27          6           0        8.822972    2.065409    0.538553
     28          6           0       10.309907    1.909411    0.757682
     29          6           0       10.442812    0.421490    1.063690
     30          6           0        9.021865   -0.176076    0.924073
     31          6           0       11.203566    2.369486   -0.468078
     32          6           0       11.217014    0.203303    2.372524
     33          6           0       10.365084   -0.341899    3.525408
     34          7           0        6.392933   -1.375566    0.472861
     35          6           0        7.513118   -2.115335    0.743633
     36          6           0        7.182761   -3.526655    0.908246
     37          6           0        5.814468   -3.605235    0.666037
     38          6           0        5.435673   -2.256599    0.332052
     39          6           0        7.974223   -4.747931    1.292128
     40          6           0        4.640033   -4.460626    0.640842
     41          8           0        4.607796   -5.622730    0.810864
     42          6           0        3.447446   -3.585941    0.240503
     43          6           0        2.804253   -4.167842   -0.994642
     44          8           0        3.227051   -3.980347   -2.127199
     45          8           0        1.718057   -4.928634   -0.661008
     46          6           0        1.009747   -5.506393   -1.788244
     47          6           0       -3.193812   -3.123708   -0.224023
     48          6           0       -4.372570   -2.513697   -1.039007
     49          6           0       -5.607776   -3.062205   -1.227628
     50          6           0       -6.072142   -4.494126   -0.723983
     51          6           0       -6.612784   -2.254972   -2.045556
     52          6           0       -8.004826   -1.802778   -1.362853
     53          6           0       -8.093364   -0.237068   -1.262717
     54          6           0       -9.448025    0.394393   -1.789203
     55          6           0       -9.223174    1.443058   -2.833683
     56          6           0      -10.327521    0.883915   -0.609406
     57          6           0      -11.519976   -0.066707   -0.357258
     58          6           0      -12.774940    0.229546   -1.244866
     59          6           0      -13.973961    0.784142   -0.390881
     60          6           0      -15.300604    0.662055   -1.103823
     61          6           0      -13.687200    2.324908    0.017809
     62          6           0      -13.198490    2.421923    1.502493
     63          6           0      -14.264583    3.104870    2.463423
     64          6           0      -15.040205    1.947774    3.067573
     65          6           0      -14.771900    1.864551    4.558005
     66          6           0      -16.523112    1.998679    2.716062
     67          1           0        2.547372    3.073491   -1.263960
     68          1           0        8.856674    4.188615    0.484551
     69          1           0        9.541799   -2.142658    1.427024
     70          1           0        1.623918   -1.526906   -1.491912
     71          1           0        1.070492    1.192952   -0.334029
     72          1           0        0.389057    1.798625   -2.387116
     73          1           0        0.618045    0.110597   -2.885563
     74          1           0        1.915650    1.385779   -3.076513
     75          1           0        1.243152   -1.162460    1.513311
     76          1           0        0.852710   -2.462042    0.278501
     77          1           0       -0.827749   -0.387057   -0.445355
     78          1           0       -0.672413   -0.025417    1.241243
     79          1           0        3.494757    6.374868   -0.702325
     80          1           0        2.862399    5.258031   -1.689382
     81          1           0        4.188538    6.245611   -2.360796
     82          1           0        5.670536    7.510753   -0.278449
     83          1           0        6.140039    7.544701   -2.074400
     84          1           0        7.144503    8.351448   -0.869058
     85          1           0       10.723735    2.482827    1.588076
     86          1           0       11.016119   -0.095764    0.294982
     87          1           0       10.583965    3.096930   -0.993100
     88          1           0       11.415238    1.566141   -1.173029
     89          1           0       12.108112    2.889849   -0.150694
     90          1           0       11.784029    1.105788    2.599565
     91          1           0       11.968035   -0.533013    2.084465
     92          1           0       10.700131   -1.295000    3.935103
     93          1           0        9.283849   -0.348734    3.387761
     94          1           0       10.606032    0.400306    4.287553
     95          1           0        7.354896   -5.638848    1.189179
     96          1           0        8.337953   -4.655814    2.315797
     97          1           0        8.848301   -4.982972    0.685858
     98          1           0        2.700350   -3.624573    1.033403
     99          1           0        1.685464   -6.050671   -2.448920
    100          1           0        0.498715   -4.808414   -2.450308
    101          1           0        0.311234   -6.270824   -1.448483
    102          1           0       -3.583097   -3.472095    0.732013
    103          1           0       -2.871031   -3.894182   -0.924154
    104          1           0       -4.281968   -1.517622   -1.471950
    105          1           0       -6.421792   -5.174995   -1.500117
    106          1           0       -6.995610   -4.368121   -0.158178
    107          1           0       -5.335133   -4.995248   -0.097005
    108          1           0       -6.982354   -2.804448   -2.911518
    109          1           0       -6.129715   -1.295455   -2.230116
    110          1           0       -7.986006   -2.280759   -0.383217
    111          1           0       -8.690688   -2.241538   -2.086157
    112          1           0       -7.238928    0.315533   -1.654811
    113          1           0       -8.099107    0.006607   -0.200470
    114          1           0      -10.059343   -0.418833   -2.181331
    115          1           0       -9.954675    2.247263   -2.753641
    116          1           0       -9.331945    1.016411   -3.830719
    117          1           0       -8.257109    1.941709   -2.752776
    118          1           0      -10.586267    1.938730   -0.695866
    119          1           0       -9.876761    0.805454    0.380528
    120          1           0      -11.632166    0.025368    0.722969
    121          1           0      -11.339615   -1.095386   -0.670211
    122          1           0      -12.994861   -0.662916   -1.830859
    123          1           0      -12.497917    1.008656   -1.955486
    124          1           0      -13.961183    0.167765    0.507990
    125          1           0      -16.069421    0.824237   -0.348002
    126          1           0      -15.464158   -0.288686   -1.609732
    127          1           0      -15.249789    1.539852   -1.748063
    128          1           0      -14.638764    2.840227   -0.113163
    129          1           0      -12.974226    2.852632   -0.615521
    130          1           0      -12.259926    2.973607    1.467244
    131          1           0      -13.036375    1.401097    1.849438
    132          1           0      -14.914735    3.666329    1.791001
    133          1           0      -13.969698    3.821867    3.228624
    134          1           0      -14.698669    0.961933    2.752507
    135          1           0      -15.091918    0.913965    4.985958
    136          1           0      -15.200350    2.653398    5.177171
    137          1           0      -13.686181    1.828419    4.652124
    138          1           0      -17.094984    2.454619    3.523389
    139          1           0      -16.823394    0.968696    2.522134
    140          1           0      -16.691811    2.575731    1.806613
 ---------------------------------------------------------------------

 SCF Done:  E(RwB97XD) =  -3007.85354576     A.U. after   19 cycles

 Excitation energies and oscillator strengths:

 Excited State   1:      Singlet-A      1.6626 eV  745.71 nm  f=0.3810  <S**2>=0.000
     245 -> 248        0.19322
     246 -> 247        0.68106
     245 <- 248        0.11862
 This state for optimization and/or second-order correction.
 Total Energy, E(TD-HF/TD-DFT) =  -3007.79244504
 Copying the excited state density for this state as the 1-particle RhoCI density.

 Excited State   2:      Singlet-A      2.1981 eV  564.05 nm  f=0.0769  <S**2>=0.000
     245 -> 247        0.62175
     246 -> 248       -0.32674

 Excited State   3:      Singlet-A      3.4721 eV  357.09 nm  f=0.5637  <S**2>=0.000
     243 -> 247       -0.30547
     245 -> 247        0.27461
     246 -> 248        0.55028
     245 <- 247       -0.10518

 Excited State   4:      Singlet-A      3.5944 eV  344.94 nm  f=0.1874  <S**2>=0.000
     241 -> 247        0.29634
     242 -> 249       -0.13709
     242 -> 250       -0.13475
     243 -> 247        0.48274
     245 -> 247        0.12760
     246 -> 248        0.24344

 Excited State   5:      Singlet-A      3.6529 eV  339.41 nm  f=0.0135  <S**2>=0.000
     241 -> 247       -0.27678
     242 -> 247        0.47200
     242 -> 248        0.13777
     242 -> 249       -0.22460
     242 -> 250       -0.19029
     243 -> 247       -0.11235
     243 -> 249       -0.10145
     243 -> 250       -0.12197

 The electronic state is 1-A.
 Alpha  occ. eigenvalues --  -46.95454 -19.31626 -19.31008 -19.25307 -19.24653
 Alpha  occ. eigenvalues --  -19.23630 -19.23540 -14.46962 -14.46431 -14.44426
 Alpha  occ. eigenvalues --  -14.44255 -10.43836 -10.42259 -10.39073 -10.38804
 Alpha  occ. eigenvalues --  -10.36786 -10.35833 -10.35629 -10.35284 -10.34819
 Alpha  occ. eigenvalues --  -10.34798 -10.34671 -10.34366 -10.33843 -10.33428
 Alpha  occ. eigenvalues --  -10.33102 -10.33041 -10.32656 -10.32524 -10.32524
 Alpha  occ. eigenvalues --  -10.32010 -10.31789 -10.31590 -10.31396 -10.31217
 Alpha  occ. eigenvalues --  -10.31175 -10.31085 -10.31082 -10.31037 -10.30970
 Alpha  occ. eigenvalues --  -10.30623 -10.30523 -10.30344 -10.30066 -10.30029
 Alpha  occ. eigenvalues --  -10.30018 -10.29856 -10.29704 -10.29665 -10.29453
 Alpha  occ. eigenvalues --  -10.29387 -10.29244 -10.29214 -10.29166 -10.29117
 Alpha  occ. eigenvalues --  -10.29018 -10.28986 -10.28712 -10.28569 -10.28473
 Alpha  occ. eigenvalues --  -10.28429 -10.28266 -10.28155 -10.28071 -10.27944
 Alpha  occ. eigenvalues --  -10.27792  -3.21341  -1.94939  -1.94432  -1.94328
 Alpha  occ. eigenvalues --   -1.20603  -1.19453  -1.15456  -1.11180  -1.10758
 Alpha  occ. eigenvalues --   -1.08788  -1.07358  -1.05380  -1.03915  -1.03040
 Alpha  occ. eigenvalues --   -0.94711  -0.92308  -0.91785  -0.91192  -0.90920
 Alpha  occ. eigenvalues --   -0.90459  -0.90100  -0.89374  -0.89108  -0.88699
 Alpha  occ. eigenvalues --   -0.87705  -0.87672  -0.86140  -0.85576  -0.84877
 Alpha  occ. eigenvalues --   -0.84103  -0.83605  -0.82914  -0.82795  -0.82189
 Alpha  occ. eigenvalues --   -0.81722  -0.80218  -0.79872  -0.79136  -0.78444
 Alpha  occ. eigenvalues --   -0.77932  -0.77533  -0.77053  -0.76674  -0.75781
 Alpha  occ. eigenvalues --   -0.75233  -0.74767  -0.73882  -0.72791  -0.71939
 Alpha  occ. eigenvalues --   -0.70780  -0.69238  -0.68845  -0.68072  -0.67356
 Alpha  occ. eigenvalues --   -0.67237  -0.66892  -0.66762  -0.66445  -0.66330
 Alpha  occ. eigenvalues --   -0.65689  -0.65244  -0.64863  -0.64123  -0.61910
 Alpha  occ. eigenvalues --   -0.61587  -0.61423  -0.61185  -0.60640  -0.60483
 Alpha  occ. eigenvalues --   -0.60018  -0.58855  -0.58450  -0.57986  -0.57321
 Alpha  occ. eigenvalues --   -0.57163  -0.56839  -0.56534  -0.56471  -0.56081
 Alpha  occ. eigenvalues --   -0.55862  -0.55531  -0.55136  -0.54712  -0.54624
 Alpha  occ. eigenvalues --   -0.54199  -0.54158  -0.53822  -0.53633  -0.53606
 Alpha  occ. eigenvalues --   -0.53464  -0.53226  -0.53121  -0.52944  -0.52750
 Alpha  occ. eigenvalues --   -0.52260  -0.52014  -0.51885  -0.51781  -0.51478
 Alpha  occ. eigenvalues --   -0.51235  -0.51117  -0.50991  -0.50918  -0.50716
 Alpha  occ. eigenvalues --   -0.50292  -0.50101  -0.49968  -0.49800  -0.49558
 Alpha  occ. eigenvalues --   -0.49292  -0.49083  -0.48955  -0.48802  -0.48737
 Alpha  occ. eigenvalues --   -0.48357  -0.48086  -0.47979  -0.47919  -0.47829
 Alpha  occ. eigenvalues --   -0.47719  -0.47533  -0.47357  -0.47172  -0.46906
 Alpha  occ. eigenvalues --   -0.46828  -0.46706  -0.46618  -0.46159  -0.45968
 Alpha  occ. eigenvalues --   -0.45862  -0.45762  -0.45622  -0.45386  -0.45338
 Alpha  occ. eigenvalues --   -0.44885  -0.44739  -0.44664  -0.44415  -0.44076
 Alpha  occ. eigenvalues --   -0.43727  -0.43708  -0.43500  -0.43368  -0.43147
 Alpha  occ. eigenvalues --   -0.42997  -0.42382  -0.42310  -0.41842  -0.41709
 Alpha  occ. eigenvalues --   -0.41662  -0.41035  -0.40628  -0.40571  -0.40434
 Alpha  occ. eigenvalues --   -0.40300  -0.39636  -0.39508  -0.39424  -0.39408
 Alpha  occ. eigenvalues --   -0.39315  -0.39047  -0.38879  -0.38624  -0.38363
 Alpha  occ. eigenvalues --   -0.38185  -0.37413  -0.36775  -0.36729  -0.36443
 Alpha  occ. eigenvalues --   -0.35521  -0.35479  -0.35330  -0.33639  -0.33362
 Alpha  occ. eigenvalues --   -0.32860  -0.32551  -0.31953  -0.31557  -0.25909
 Alpha  occ. eigenvalues --   -0.22751
 Alpha virt. eigenvalues --   -0.06730  -0.00105   0.02616   0.04362   0.05502
 Alpha virt. eigenvalues --    0.06861   0.07488   0.08061   0.08481   0.09577
 Alpha virt. eigenvalues --    0.10408   0.11383   0.11735   0.12191   0.12369

 Mulliken charges:
               1
     1  Mg   0.963177
     2  C   -0.061920
     3  C   -0.051848
     4  C   -0.048437
     5  C   -0.121836
     6  N   -0.363913
     7  C    0.031223
     8  C   -0.064088
     9  C   -0.099582
    10  C    0.009148
    11  C    0.016588
    12  C   -0.009893
    13  C    0.022354
    14  C    0.167147
    15  O   -0.290269
    16  O   -0.333312
    17  N   -0.494159
    18  C    0.184469
    19  C   -0.152937
    20  C   -0.073652
    21  C    0.139904
    22  C    0.048710
    23  C    0.037498
    24  O   -0.248172
    25  C   -0.011197
    26  N   -0.387364
    27  C    0.068419
    28  C   -0.103565
    29  C   -0.058379
    30  C    0.043060
    31  C    0.014620
    32  C   -0.028009
    33  C   -0.057331
    34  N   -0.367188
    35  C    0.192630
    36  C   -0.182105
    37  C   -0.055845
    38  C    0.147531
    39  C    0.064906
    40  C    0.106487
    41  O   -0.147893
    42  C   -0.057731
    43  C    0.251744
    44  O   -0.244372
    45  O   -0.347505
    46  C    0.141036
    47  C    0.262952
    48  C   -0.189668
    49  C   -0.179646
    50  C    0.019744
    51  C    0.013274
    52  C   -0.045509
    53  C    0.030208
    54  C   -0.178129
    55  C    0.022564
    56  C   -0.001683
    57  C   -0.063300
    58  C    0.020443
    59  C   -0.201283
    60  C    0.021768
    61  C   -0.009441
    62  C   -0.046870
    63  C    0.034081
    64  C   -0.233882
    65  C   -0.011593
    66  C    0.015460
    67  H   -0.015454
    68  H    0.029402
    69  H    0.009657
    70  H    0.042294
    71  H    0.046983
    72  H    0.031663
    73  H    0.049312
    74  H    0.049145
    75  H    0.052215
    76  H    0.058978
    77  H    0.045708
    78  H    0.057830
    79  H    0.048575
    80  H    0.028593
    81  H    0.052011
    82  H    0.047295
    83  H    0.069982
    84  H    0.050640
    85  H    0.039190
    86  H    0.034500
    87  H    0.043753
    88  H    0.036046
    89  H    0.040515
    90  H    0.031388
    91  H    0.021103
    92  H    0.039864
    93  H    0.063000
    94  H    0.031846
    95  H    0.059260
    96  H    0.046533
    97  H    0.040844
    98  H    0.074837
    99  H    0.052117
   100  H    0.048440
   101  H    0.056453
   102  H    0.096633
   103  H    0.060881
   104  H    0.029562
   105  H    0.041605
   106  H    0.032367
   107  H    0.035264
   108  H    0.031392
   109  H    0.014147
   110  H    0.036621
   111  H    0.030166
   112  H    0.017726
   113  H    0.014565
   114  H    0.015872
   115  H    0.016778
   116  H    0.031086
   117  H    0.024697
   118  H    0.011691
   119  H    0.009399
   120  H    0.021076
   121  H    0.026866
   122  H    0.012030
   123  H    0.006388
   124  H    0.018014
   125  H    0.027638
   126  H    0.034976
   127  H    0.029131
   128  H    0.009092
   129  H    0.026670
   130  H    0.019839
   131  H    0.032989
   132  H    0.005834
   133  H    0.023484
   134  H    0.023180
   135  H    0.020201
   136  H    0.031747
   137  H    0.022051
   138  H    0.026790
   139  H    0.027324
   140  H    0.022071
 Sum of Mulliken charges =  -0.00000

 Dipole moment (field-independent basis, Debye):
    X=             -2.9024    Y=              1.2267    Z=             -0.4261  Tot=              3.1797
 Quadrupole moment (field-independent basis, Debye-Ang):
   XX=           -384.5925   YY=           -410.3580   ZZ=           -409.6921
   XY=             -2.6110   XZ=             28.6459   YZ=              7.7241

 Normal termination of Gaussian 16 at Thu May  5 13:33:49 2022.
