 Gaussian 16, Revision A.03,
 Gaussian 16:  ES64L-G16RevA.03 25-Dec-2016

 --------------------
 #p ZINDO=(nstates=5)
 --------------------

 -----------------------------
 step_901_chromophore_16 ZINDO
 -----------------------------
 Symbolic Z-matrix:
 Charge =  0 Multiplicity = 1

                         Standard orientation:
 ---------------------------------------------------------------------
 Center     Atomic      Atomic             Coordinates (Angstroms)
 Number     Number       Type             X           Y           Z
 ---------------------------------------------------------------------
      1         12           0        6.119458    0.753644    0.295342
      2          6           0        4.050990   -2.164133    0.103856
      3          6           0        3.474808    2.561650   -0.998446
      4          6           0        8.198778    3.336355    0.301011
      5          6           0        8.719949   -1.559297    1.007615
      6          7           0        3.977030    0.235352   -0.361768
      7          6           0        3.366308   -1.011757   -0.297135
      8          6           0        1.849214   -0.872754   -0.648731
      9          6           0        1.702919    0.663890   -1.047888
     10          6           0        3.113018    1.226688   -0.803642
     11          6           0        1.110802    0.984262   -2.459905
     12          6           0        0.899077   -1.397107    0.506307
     13          6           0       -0.514902   -0.816379    0.506979
     14          6           0       -1.517963   -1.820899    0.828511
     15          8           0       -1.833235   -2.363642    1.894384
     16          8           0       -2.222498   -1.996682   -0.261602
     17          7           0        5.882287    2.715219   -0.279171
     18          6           0        4.706325    3.282939   -0.754378
     19          6           0        4.989697    4.721032   -1.002732
     20          6           0        6.358998    4.964588   -0.648481
     21          6           0        6.893101    3.668640   -0.193942
     22          6           0        3.837825    5.698842   -1.485398
     23          6           0        7.187977    6.225218   -0.695224
     24          8           0        8.422172    6.252869   -0.634668
     25          6           0        6.458306    7.519508   -1.031740
     26          7           0        8.193832    0.867452    0.565358
     27          6           0        8.822972    2.065409    0.538553
     28          6           0       10.309907    1.909411    0.757682
     29          6           0       10.442812    0.421490    1.063690
     30          6           0        9.021865   -0.176076    0.924073
     31          6           0       11.203566    2.369486   -0.468078
     32          6           0       11.217014    0.203303    2.372524
     33          6           0       10.365084   -0.341899    3.525408
     34          7           0        6.392933   -1.375566    0.472861
     35          6           0        7.513118   -2.115335    0.743633
     36          6           0        7.182761   -3.526655    0.908246
     37          6           0        5.814468   -3.605235    0.666037
     38          6           0        5.435673   -2.256599    0.332052
     39          6           0        7.974223   -4.747931    1.292128
     40          6           0        4.640033   -4.460626    0.640842
     41          8           0        4.607796   -5.622730    0.810864
     42          6           0        3.447446   -3.585941    0.240503
     43          6           0        2.804253   -4.167842   -0.994642
     44          8           0        3.227051   -3.980347   -2.127199
     45          8           0        1.718057   -4.928634   -0.661008
     46          6           0        1.009747   -5.506393   -1.788244
     47          6           0       -3.193812   -3.123708   -0.224023
     48          6           0       -4.372570   -2.513697   -1.039007
     49          6           0       -5.607776   -3.062205   -1.227628
     50          6           0       -6.072142   -4.494126   -0.723983
     51          6           0       -6.612784   -2.254972   -2.045556
     52          6           0       -8.004826   -1.802778   -1.362853
     53          6           0       -8.093364   -0.237068   -1.262717
     54          6           0       -9.448025    0.394393   -1.789203
     55          6           0       -9.223174    1.443058   -2.833683
     56          6           0      -10.327521    0.883915   -0.609406
     57          6           0      -11.519976   -0.066707   -0.357258
     58          6           0      -12.774940    0.229546   -1.244866
     59          6           0      -13.973961    0.784142   -0.390881
     60          6           0      -15.300604    0.662055   -1.103823
     61          6           0      -13.687200    2.324908    0.017809
     62          6           0      -13.198490    2.421923    1.502493
     63          6           0      -14.264583    3.104870    2.463423
     64          6           0      -15.040205    1.947774    3.067573
     65          6           0      -14.771900    1.864551    4.558005
     66          6           0      -16.523112    1.998679    2.716062
     67          1           0        2.547372    3.073491   -1.263960
     68          1           0        8.856674    4.188615    0.484551
     69          1           0        9.541799   -2.142658    1.427024
     70          1           0        1.623918   -1.526906   -1.491912
     71          1           0        1.070492    1.192952   -0.334029
     72          1           0        0.389057    1.798625   -2.387116
     73          1           0        0.618045    0.110597   -2.885563
     74          1           0        1.915650    1.385779   -3.076513
     75          1           0        1.243152   -1.162460    1.513311
     76          1           0        0.852710   -2.462042    0.278501
     77          1           0       -0.827749   -0.387057   -0.445355
     78          1           0       -0.672413   -0.025417    1.241243
     79          1           0        3.494757    6.374868   -0.702325
     80          1           0        2.862399    5.258031   -1.689382
     81          1           0        4.188538    6.245611   -2.360796
     82          1           0        5.670536    7.510753   -0.278449
     83          1           0        6.140039    7.544701   -2.074400
     84          1           0        7.144503    8.351448   -0.869058
     85          1           0       10.723735    2.482827    1.588076
     86          1           0       11.016119   -0.095764    0.294982
     87          1           0       10.583965    3.096930   -0.993100
     88          1           0       11.415238    1.566141   -1.173029
     89          1           0       12.108112    2.889849   -0.150694
     90          1           0       11.784029    1.105788    2.599565
     91          1           0       11.968035   -0.533013    2.084465
     92          1           0       10.700131   -1.295000    3.935103
     93          1           0        9.283849   -0.348734    3.387761
     94          1           0       10.606032    0.400306    4.287553
     95          1           0        7.354896   -5.638848    1.189179
     96          1           0        8.337953   -4.655814    2.315797
     97          1           0        8.848301   -4.982972    0.685858
     98          1           0        2.700350   -3.624573    1.033403
     99          1           0        1.685464   -6.050671   -2.448920
    100          1           0        0.498715   -4.808414   -2.450308
    101          1           0        0.311234   -6.270824   -1.448483
    102          1           0       -3.583097   -3.472095    0.732013
    103          1           0       -2.871031   -3.894182   -0.924154
    104          1           0       -4.281968   -1.517622   -1.471950
    105          1           0       -6.421792   -5.174995   -1.500117
    106          1           0       -6.995610   -4.368121   -0.158178
    107          1           0       -5.335133   -4.995248   -0.097005
    108          1           0       -6.982354   -2.804448   -2.911518
    109          1           0       -6.129715   -1.295455   -2.230116
    110          1           0       -7.986006   -2.280759   -0.383217
    111          1           0       -8.690688   -2.241538   -2.086157
    112          1           0       -7.238928    0.315533   -1.654811
    113          1           0       -8.099107    0.006607   -0.200470
    114          1           0      -10.059343   -0.418833   -2.181331
    115          1           0       -9.954675    2.247263   -2.753641
    116          1           0       -9.331945    1.016411   -3.830719
    117          1           0       -8.257109    1.941709   -2.752776
    118          1           0      -10.586267    1.938730   -0.695866
    119          1           0       -9.876761    0.805454    0.380528
    120          1           0      -11.632166    0.025368    0.722969
    121          1           0      -11.339615   -1.095386   -0.670211
    122          1           0      -12.994861   -0.662916   -1.830859
    123          1           0      -12.497917    1.008656   -1.955486
    124          1           0      -13.961183    0.167765    0.507990
    125          1           0      -16.069421    0.824237   -0.348002
    126          1           0      -15.464158   -0.288686   -1.609732
    127          1           0      -15.249789    1.539852   -1.748063
    128          1           0      -14.638764    2.840227   -0.113163
    129          1           0      -12.974226    2.852632   -0.615521
    130          1           0      -12.259926    2.973607    1.467244
    131          1           0      -13.036375    1.401097    1.849438
    132          1           0      -14.914735    3.666329    1.791001
    133          1           0      -13.969698    3.821867    3.228624
    134          1           0      -14.698669    0.961933    2.752507
    135          1           0      -15.091918    0.913965    4.985958
    136          1           0      -15.200350    2.653398    5.177171
    137          1           0      -13.686181    1.828419    4.652124
    138          1           0      -17.094984    2.454619    3.523389
    139          1           0      -16.823394    0.968696    2.522134
    140          1           0      -16.691811    2.575731    1.806613
 ---------------------------------------------------------------------

 SCF Done:  E(RZINDO/S) =  -474.149927458     A.U. after   19 cycles

 Excitation energies and oscillator strengths:

 Excited State   1:      Singlet-A      1.2657 eV  979.59 nm  f=0.6003  <S**2>=0.000
     175 ->178         0.19422
     176 ->177         0.66275
 This state for optimization and/or second-order correction.
 Total Energy, E(CIS/TDA) =  -474.103414587
 Copying the excited state density for this state as the 1-particle RhoCI density.

 Excited State   2:      Singlet-A      1.9416 eV  638.56 nm  f=0.0149  <S**2>=0.000
     175 ->177         0.52024
     176 ->178        -0.45739

 Excited State   3:      Singlet-A      2.9694 eV  417.54 nm  f=0.2316  <S**2>=0.000
     169 ->177         0.13760
     169 ->179         0.13255
     169 ->180         0.20638
     169 ->186         0.11051
     170 ->177         0.17658
     170 ->178        -0.10035
     170 ->179         0.16546
     170 ->180         0.28129
     170 ->186         0.13623
     175 ->177        -0.19282
     176 ->178        -0.23410
     176 ->179         0.18269
     176 ->180         0.13142

 Excited State   4:      Singlet-A      2.9887 eV  414.84 nm  f=0.0139  <S**2>=0.000
     168 ->177         0.31697
     168 ->179        -0.41323
     168 ->180         0.18058
     168 ->183         0.11909
     168 ->186        -0.18120
     168 ->187        -0.11050
     168 ->197         0.10156
     171 ->177        -0.12281
     171 ->179         0.10796
     176 ->179         0.13030

 Excited State   5:      Singlet-A      3.0320 eV  408.92 nm  f=0.5694  <S**2>=0.000
     169 ->180         0.18507
     170 ->177         0.11116
     170 ->179         0.10768
     170 ->180         0.14587
     175 ->177         0.28203
     176 ->178         0.33429
     176 ->179        -0.31457
     176 ->180        -0.17967

 The electronic state is 1-A.
 Alpha  occ. eigenvalues --   -1.85608  -1.80093  -1.77923  -1.75685  -1.73230
 Alpha  occ. eigenvalues --   -1.68820  -1.66718  -1.62102  -1.61268  -1.57089
 Alpha  occ. eigenvalues --   -1.53997  -1.50347  -1.50199  -1.47975  -1.46687
 Alpha  occ. eigenvalues --   -1.44380  -1.43570  -1.40078  -1.37067  -1.35781
 Alpha  occ. eigenvalues --   -1.35348  -1.33864  -1.32006  -1.30787  -1.28979
 Alpha  occ. eigenvalues --   -1.28349  -1.24660  -1.22196  -1.20475  -1.18184
 Alpha  occ. eigenvalues --   -1.17573  -1.16798  -1.15824  -1.15078  -1.12400
 Alpha  occ. eigenvalues --   -1.11528  -1.10578  -1.10008  -1.05561  -1.04980
 Alpha  occ. eigenvalues --   -1.03588  -1.01229  -0.99713  -0.98620  -0.96950
 Alpha  occ. eigenvalues --   -0.96944  -0.94379  -0.93453  -0.92610  -0.92225
 Alpha  occ. eigenvalues --   -0.90456  -0.89827  -0.88780  -0.87001  -0.86207
 Alpha  occ. eigenvalues --   -0.85336  -0.84709  -0.83780  -0.81690  -0.80730
 Alpha  occ. eigenvalues --   -0.79602  -0.79238  -0.77599  -0.77147  -0.76938
 Alpha  occ. eigenvalues --   -0.75408  -0.75220  -0.74497  -0.74132  -0.73478
 Alpha  occ. eigenvalues --   -0.73281  -0.71968  -0.71754  -0.70662  -0.69856
 Alpha  occ. eigenvalues --   -0.69269  -0.69020  -0.68679  -0.68145  -0.67753
 Alpha  occ. eigenvalues --   -0.67146  -0.66938  -0.66321  -0.66127  -0.65860
 Alpha  occ. eigenvalues --   -0.65719  -0.64678  -0.64069  -0.63861  -0.63582
 Alpha  occ. eigenvalues --   -0.63326  -0.63113  -0.62909  -0.61859  -0.61645
 Alpha  occ. eigenvalues --   -0.61413  -0.61021  -0.60620  -0.60355  -0.59920
 Alpha  occ. eigenvalues --   -0.59827  -0.58976  -0.58818  -0.58523  -0.58400
 Alpha  occ. eigenvalues --   -0.58144  -0.57985  -0.57182  -0.56960  -0.56500
 Alpha  occ. eigenvalues --   -0.56333  -0.55775  -0.55621  -0.55545  -0.54924
 Alpha  occ. eigenvalues --   -0.54743  -0.54241  -0.53999  -0.53872  -0.53470
 Alpha  occ. eigenvalues --   -0.52877  -0.52209  -0.51824  -0.51677  -0.51458
 Alpha  occ. eigenvalues --   -0.51052  -0.50772  -0.50586  -0.50464  -0.50277
 Alpha  occ. eigenvalues --   -0.49723  -0.49716  -0.49388  -0.49098  -0.48902
 Alpha  occ. eigenvalues --   -0.48571  -0.48403  -0.48193  -0.47874  -0.47731
 Alpha  occ. eigenvalues --   -0.47542  -0.47259  -0.47013  -0.46826  -0.46597
 Alpha  occ. eigenvalues --   -0.46395  -0.46173  -0.45940  -0.45354  -0.45020
 Alpha  occ. eigenvalues --   -0.44934  -0.44713  -0.44699  -0.44452  -0.44212
 Alpha  occ. eigenvalues --   -0.43317  -0.43161  -0.42679  -0.42590  -0.42187
 Alpha  occ. eigenvalues --   -0.42077  -0.41372  -0.41047  -0.39322  -0.38712
 Alpha  occ. eigenvalues --   -0.38291  -0.37189  -0.35587  -0.35235  -0.34605
 Alpha  occ. eigenvalues --   -0.33943  -0.32584  -0.32292  -0.32082  -0.26749
 Alpha  occ. eigenvalues --   -0.21625
 Alpha virt. eigenvalues --   -0.08288  -0.02259  -0.00586   0.01131   0.01943
 Alpha virt. eigenvalues --    0.02167   0.02353   0.02809   0.04807   0.04827
 Alpha virt. eigenvalues --    0.06268   0.06673   0.07454   0.07607   0.07747

 Mulliken charges:
               1
     1  Mg   0.429278
     2  C   -0.067820
     3  C   -0.083954
     4  C   -0.050765
     5  C   -0.050224
     6  N   -0.311402
     7  C    0.139949
     8  C    0.000808
     9  C    0.002034
    10  C    0.114533
    11  C   -0.050684
    12  C   -0.018154
    13  C    0.008749
    14  C    0.479601
    15  O   -0.553781
    16  O   -0.255209
    17  N   -0.315166
    18  C    0.093913
    19  C   -0.019184
    20  C   -0.040743
    21  C    0.109477
    22  C   -0.050196
    23  C    0.326403
    24  O   -0.530037
    25  C   -0.034779
    26  N   -0.252015
    27  C    0.117095
    28  C    0.004171
    29  C    0.002242
    30  C    0.123836
    31  C   -0.057938
    32  C   -0.027765
    33  C   -0.058639
    34  N   -0.314889
    35  C    0.119991
    36  C    0.045595
    37  C   -0.063305
    38  C    0.147933
    39  C   -0.036015
    40  C    0.352902
    41  O   -0.493638
    42  C    0.051041
    43  C    0.490429
    44  O   -0.522504
    45  O   -0.254077
    46  C    0.076012
    47  C    0.095515
    48  C   -0.093965
    49  C   -0.028321
    50  C   -0.050209
    51  C   -0.042725
    52  C   -0.045096
    53  C   -0.040663
    54  C   -0.010170
    55  C   -0.050368
    56  C   -0.040848
    57  C   -0.046985
    58  C   -0.041525
    59  C   -0.015503
    60  C   -0.059123
    61  C   -0.042094
    62  C   -0.041432
    63  C   -0.035863
    64  C   -0.008006
    65  C   -0.055578
    66  C   -0.058448
    67  H    0.021094
    68  H    0.045637
    69  H    0.032330
    70  H    0.038585
    71  H    0.026907
    72  H    0.016950
    73  H    0.026761
    74  H    0.029190
    75  H    0.037258
    76  H    0.032856
    77  H    0.032964
    78  H    0.041381
    79  H    0.025131
    80  H    0.023480
    81  H    0.028760
    82  H    0.034449
    83  H    0.048016
    84  H    0.033984
    85  H    0.033800
    86  H    0.025225
    87  H    0.024139
    88  H    0.024860
    89  H    0.024477
    90  H    0.028804
    91  H    0.009739
    92  H    0.023024
    93  H    0.033435
    94  H    0.010177
    95  H    0.036048
    96  H    0.030395
    97  H    0.028439
    98  H    0.053555
    99  H    0.041124
   100  H    0.041867
   101  H    0.031512
   102  H    0.080600
   103  H    0.050855
   104  H    0.039790
   105  H    0.028343
   106  H    0.022901
   107  H    0.025171
   108  H    0.028632
   109  H    0.025954
   110  H    0.032105
   111  H    0.028743
   112  H    0.028101
   113  H    0.014017
   114  H    0.021990
   115  H    0.012994
   116  H    0.015501
   117  H    0.018813
   118  H    0.023961
   119  H    0.010530
   120  H    0.023174
   121  H    0.020872
   122  H    0.017932
   123  H    0.015140
   124  H    0.020328
   125  H    0.014990
   126  H    0.024593
   127  H    0.023414
   128  H    0.018259
   129  H    0.025136
   130  H    0.013603
   131  H    0.028636
   132  H    0.013354
   133  H    0.029068
   134  H    0.021412
   135  H    0.007861
   136  H    0.022099
   137  H    0.009704
   138  H    0.020952
   139  H    0.015494
   140  H    0.016924
 Sum of Mulliken charges =  -0.00000

 Dipole moment (field-independent basis, Debye):
    X=             -3.2965    Y=              1.5322    Z=              0.2445  Tot=              3.6434
 N-N= 4.206514046881D+03 E-N= 0.000000000000D+00  KE=-9.087116887890D+03
 Leave Link  601 at Thu May  5 13:45:36 2022, MaxMem=  6710886400 cpu:               1.7 elap:               0.1
 (Enter /sw/apps/gaussian-16.0/g16/l9999.exe)
 1\1\GINC-BP1-COMPUTE215\SP\RZINDO CIS\STO-3G\C55H74Mg1N4O6\OF15641\05-
 May-2022\0\\#p ZINDO=(nstates=5)\\step_901_chromophore_16 ZINDO\\0,1\M
 g,0,40.478,41.694,27.078\C,0,39.677,44.091,29.616\C,0,41.315,39.487,29
 .601\C,0,41.407,39.643,24.644\C,0,40.106,44.439,24.854\N,0,40.475,41.7
 92,29.376\C,0,40.063,42.862,30.162\C,0,40.031,42.429,31.664\C,0,40.613
 ,40.945,31.632\C,0,40.829,40.684,30.132\C,0,41.858,40.644,32.53\C,0,38
 .604,42.615,32.328\C,0,38.331,41.741,33.552\C,0,37.611,42.464,34.59\O,

 Normal termination of Gaussian 16 at Thu May  5 13:45:36 2022.
