 Gaussian 16, Revision A.03,
 Gaussian 16:  ES64L-G16RevA.03 25-Dec-2016

 ------------------------------
 #p blyp/Def2SVP td=(nstates=5)
 ------------------------------

 ---------------------------------------------------
 step_1501_chromophore_16 TDDFT with blyp functional
 ---------------------------------------------------
 Symbolic Z-matrix:
 Charge =  0 Multiplicity = 1

                         Standard orientation:
 ---------------------------------------------------------------------
 Center     Atomic      Atomic             Coordinates (Angstroms)
 Number     Number       Type             X           Y           Z
 ---------------------------------------------------------------------
      1         12           0        5.994066    0.539994    0.149854
      2          6           0        3.775041   -2.281429   -0.295855
      3          6           0        3.644448    2.472015   -0.905620
      4          6           0        8.276851    2.902618    0.330158
      5          6           0        8.443665   -1.935599    0.991339
      6          7           0        4.008355    0.013939   -0.759500
      7          6           0        3.245841   -1.051800   -0.634365
      8          6           0        1.771520   -0.769571   -0.798882
      9          6           0        1.825378    0.781512   -1.162505
     10          6           0        3.306231    1.145455   -0.893131
     11          6           0        1.240947    1.239724   -2.507791
     12          6           0        0.822059   -1.194500    0.311730
     13          6           0       -0.627332   -0.764556    0.169233
     14          6           0       -1.720617   -1.840509    0.039057
     15          8           0       -1.995772   -2.312706   -1.075770
     16          8           0       -2.535319   -1.742868    1.100729
     17          7           0        5.975792    2.504626   -0.207282
     18          6           0        4.861939    3.127174   -0.678485
     19          6           0        5.197258    4.521842   -0.836400
     20          6           0        6.593873    4.623716   -0.600329
     21          6           0        7.016580    3.313333   -0.124110
     22          6           0        4.263373    5.589078   -1.320479
     23          6           0        7.500599    5.830039   -0.798470
     24          8           0        8.742099    5.701930   -0.679986
     25          6           0        6.945586    7.191503   -1.278551
     26          7           0        8.014409    0.477692    0.626230
     27          6           0        8.695424    1.644148    0.744928
     28          6           0       10.090759    1.378516    1.237882
     29          6           0       10.061212   -0.068542    1.806904
     30          6           0        8.814685   -0.561307    1.057391
     31          6           0       11.147191    1.747135    0.140396
     32          6           0       10.001358   -0.140184    3.341508
     33          6           0        8.826734    0.695249    3.886211
     34          7           0        6.150692   -1.584846    0.324063
     35          6           0        7.209815   -2.448078    0.598905
     36          6           0        6.871394   -3.848721    0.468854
     37          6           0        5.509672   -3.825361    0.183977
     38          6           0        5.126462   -2.472578    0.091094
     39          6           0        7.800660   -5.050055    0.705179
     40          6           0        4.347051   -4.634908   -0.005299
     41          8           0        4.152062   -5.858737    0.085318
     42          6           0        3.185044   -3.663056   -0.248894
     43          6           0        2.322250   -3.970845   -1.427377
     44          8           0        2.521757   -3.560103   -2.573367
     45          8           0        1.279225   -4.731623   -1.031401
     46          6           0        0.244551   -4.973366   -2.087813
     47          6           0       -3.822231   -2.475139    0.970421
     48          6           0       -4.762217   -1.696468    0.049447
     49          6           0       -5.876109   -2.210532   -0.492187
     50          6           0       -6.592175   -3.532247   -0.167121
     51          6           0       -6.530227   -1.450025   -1.591337
     52          6           0       -6.919495    0.035621   -1.487304
     53          6           0       -7.688803    0.351020   -0.226400
     54          6           0       -8.753102    1.492103   -0.341511
     55          6           0       -8.294193    2.851863    0.155077
     56          6           0      -10.102402    1.099133    0.302084
     57          6           0      -11.149807    0.534434   -0.713559
     58          6           0      -12.229390    1.499405   -1.111167
     59          6           0      -13.559905    0.741543   -1.421791
     60          6           0      -13.962761    1.148933   -2.889666
     61          6           0      -14.646518    1.224836   -0.404703
     62          6           0      -14.788100    0.221462    0.775454
     63          6           0      -13.741423    0.406157    1.879985
     64          6           0      -14.118953    1.531915    2.900169
     65          6           0      -14.781462    0.986328    4.175047
     66          6           0      -12.967771    2.491567    3.221254
     67          1           0        2.847070    3.169299   -1.172437
     68          1           0        9.060665    3.637071    0.528120
     69          1           0        9.237819   -2.670417    1.140935
     70          1           0        1.518668   -1.357386   -1.681585
     71          1           0        1.277896    1.224344   -0.329786
     72          1           0        0.841701    0.346587   -2.987051
     73          1           0        2.037800    1.771723   -3.026058
     74          1           0        0.385948    1.911845   -2.428047
     75          1           0        1.296292   -0.831672    1.223581
     76          1           0        0.766104   -2.281625    0.357786
     77          1           0       -0.795264   -0.101429   -0.679064
     78          1           0       -0.803725   -0.110356    1.023601
     79          1           0        4.566585    5.957923   -2.301190
     80          1           0        4.129024    6.485202   -0.714462
     81          1           0        3.285965    5.135658   -1.482714
     82          1           0        7.805910    7.860356   -1.298814
     83          1           0        6.295928    7.657589   -0.537688
     84          1           0        6.426109    6.973883   -2.211767
     85          1           0       10.409008    1.974988    2.093066
     86          1           0       10.914063   -0.654256    1.463502
     87          1           0       11.673174    0.840935   -0.159813
     88          1           0       11.805199    2.472521    0.619263
     89          1           0       10.645856    2.213012   -0.707793
     90          1           0       10.990343    0.125299    3.716663
     91          1           0        9.981030   -1.193493    3.619791
     92          1           0        8.086929    0.076529    4.394522
     93          1           0        8.468247    1.495494    3.239054
     94          1           0        9.391124    1.312992    4.584886
     95          1           0        7.203909   -5.945829    0.531563
     96          1           0        8.091236   -4.900152    1.744809
     97          1           0        8.646267   -4.992207    0.019687
     98          1           0        2.507352   -3.663304    0.604150
     99          1           0        0.101236   -4.121628   -2.752618
    100          1           0       -0.722258   -5.099181   -1.600716
    101          1           0        0.391338   -5.807733   -2.773595
    102          1           0       -4.272810   -2.519730    1.961938
    103          1           0       -3.784715   -3.523489    0.673307
    104          1           0       -4.487878   -0.675774   -0.215382
    105          1           0       -5.992053   -4.075349    0.563290
    106          1           0       -6.690423   -4.129213   -1.074010
    107          1           0       -7.576981   -3.423971    0.287505
    108          1           0       -7.487132   -1.904257   -1.849405
    109          1           0       -5.893177   -1.375039   -2.471886
    110          1           0       -7.407545    0.431135   -2.378709
    111          1           0       -5.998615    0.619730   -1.480579
    112          1           0       -7.041138    0.635471    0.602655
    113          1           0       -8.179032   -0.552096    0.137020
    114          1           0       -8.980555    1.715337   -1.384339
    115          1           0       -7.376510    3.057935   -0.396667
    116          1           0       -8.007248    2.878415    1.206254
    117          1           0       -8.997014    3.661095   -0.042339
    118          1           0      -10.489503    2.016728    0.745001
    119          1           0      -10.060783    0.326295    1.069775
    120          1           0      -11.612303   -0.303541   -0.192628
    121          1           0      -10.514035    0.168351   -1.520578
    122          1           0      -11.772157    2.066199   -1.922613
    123          1           0      -12.300588    2.265661   -0.338620
    124          1           0      -13.379148   -0.331142   -1.488592
    125          1           0      -14.388197    0.346377   -3.492499
    126          1           0      -13.037809    1.333060   -3.434890
    127          1           0      -14.569243    2.048364   -2.992272
    128          1           0      -15.572960    1.494643   -0.910836
    129          1           0      -14.462362    2.179394    0.087833
    130          1           0      -14.721220   -0.785782    0.363262
    131          1           0      -15.806351    0.226177    1.164792
    132          1           0      -12.798070    0.684699    1.411495
    133          1           0      -13.554142   -0.564753    2.338045
    134          1           0      -14.986746    2.134442    2.633093
    135          1           0      -15.305989    0.044463    4.012086
    136          1           0      -15.615852    1.624785    4.466042
    137          1           0      -13.960266    0.867032    4.882133
    138          1           0      -12.904483    3.428705    2.668463
    139          1           0      -11.985108    2.019996    3.258731
    140          1           0      -13.183113    2.890114    4.211889
 ---------------------------------------------------------------------

 SCF Done:  E(RB-LYP) =  -3007.37425612     A.U. after   22 cycles

 Excitation energies and oscillator strengths:

 Excited State   1:      Singlet-A      1.8112 eV  684.53 nm  f=0.2769  <S**2>=0.000
     244 -> 247       -0.10296
     245 -> 247        0.13128
     245 -> 248        0.16460
     246 -> 247        0.66815
     246 <- 247       -0.14242
 This state for optimization and/or second-order correction.
 Total Energy, E(TD-HF/TD-DFT) =  -3007.30769415
 Copying the excited state density for this state as the 1-particle RhoCI density.

 Excited State   2:      Singlet-A      1.8965 eV  653.76 nm  f=0.0507  <S**2>=0.000
     243 -> 247       -0.11102
     244 -> 247        0.57236
     245 -> 247       -0.34907
     246 -> 247        0.16181

 Excited State   3:      Singlet-A      1.9623 eV  631.82 nm  f=0.0466  <S**2>=0.000
     243 -> 247        0.35997
     244 -> 247        0.38381
     245 -> 247        0.43855
     246 -> 248       -0.12878

 Excited State   4:      Singlet-A      2.0606 eV  601.70 nm  f=0.0238  <S**2>=0.000
     243 -> 247        0.59242
     244 -> 247       -0.11266
     245 -> 247       -0.32581
     246 -> 248        0.13754

 Excited State   5:      Singlet-A      2.3702 eV  523.10 nm  f=0.0001  <S**2>=0.000
     242 -> 247        0.70702

 The electronic state is 1-A.
 Alpha  occ. eigenvalues --  -46.26864 -18.84136 -18.82575 -18.77531 -18.76165
 Alpha  occ. eigenvalues --  -18.75425 -18.75246 -14.02882 -14.02736 -14.00904
 Alpha  occ. eigenvalues --  -14.00557 -10.04983 -10.03507  -9.99870  -9.99395
 Alpha  occ. eigenvalues --   -9.99203  -9.96986  -9.96291  -9.96028  -9.95916
 Alpha  occ. eigenvalues --   -9.95633  -9.95418  -9.95363  -9.94896  -9.94196
 Alpha  occ. eigenvalues --   -9.93634  -9.93591  -9.93552  -9.93452  -9.93326
 Alpha  occ. eigenvalues --   -9.93287  -9.93236  -9.93130  -9.93118  -9.93092
 Alpha  occ. eigenvalues --   -9.93036  -9.92930  -9.92836  -9.92739  -9.92739
 Alpha  occ. eigenvalues --   -9.92605  -9.92465  -9.92345  -9.92328  -9.92315
 Alpha  occ. eigenvalues --   -9.92196  -9.92196  -9.91904  -9.91860  -9.91777
 Alpha  occ. eigenvalues --   -9.91697  -9.91670  -9.91652  -9.91615  -9.91196
 Alpha  occ. eigenvalues --   -9.91153  -9.91073  -9.91036  -9.90964  -9.90875
 Alpha  occ. eigenvalues --   -9.90829  -9.90762  -9.90578  -9.90560  -9.90529
 Alpha  occ. eigenvalues --   -9.90454  -2.91616  -1.72027  -1.71514  -1.71322
 Alpha  occ. eigenvalues --   -0.99281  -0.97493  -0.90276  -0.90126  -0.89678
 Alpha  occ. eigenvalues --   -0.88984  -0.87600  -0.86830  -0.85800  -0.84830
 Alpha  occ. eigenvalues --   -0.75802  -0.74224  -0.73284  -0.73054  -0.72533
 Alpha  occ. eigenvalues --   -0.72079  -0.72062  -0.71029  -0.70874  -0.70279
 Alpha  occ. eigenvalues --   -0.69927  -0.69328  -0.68251  -0.67443  -0.67347
 Alpha  occ. eigenvalues --   -0.66705  -0.65907  -0.65381  -0.64939  -0.64591
 Alpha  occ. eigenvalues --   -0.64497  -0.62741  -0.62603  -0.61748  -0.61118
 Alpha  occ. eigenvalues --   -0.60873  -0.60254  -0.59724  -0.59371  -0.59217
 Alpha  occ. eigenvalues --   -0.58826  -0.57967  -0.56783  -0.56184  -0.55513
 Alpha  occ. eigenvalues --   -0.54152  -0.53714  -0.52829  -0.52602  -0.51622
 Alpha  occ. eigenvalues --   -0.51211  -0.50967  -0.50598  -0.50518  -0.50193
 Alpha  occ. eigenvalues --   -0.49912  -0.49387  -0.48507  -0.48132  -0.47040
 Alpha  occ. eigenvalues --   -0.46658  -0.46172  -0.45670  -0.45339  -0.44648
 Alpha  occ. eigenvalues --   -0.44226  -0.43907  -0.42881  -0.42558  -0.42239
 Alpha  occ. eigenvalues --   -0.42140  -0.41877  -0.41703  -0.41461  -0.41374
 Alpha  occ. eigenvalues --   -0.40772  -0.40608  -0.40511  -0.40152  -0.40034
 Alpha  occ. eigenvalues --   -0.39924  -0.39813  -0.39537  -0.39359  -0.39048
 Alpha  occ. eigenvalues --   -0.38901  -0.38703  -0.38484  -0.38396  -0.38252
 Alpha  occ. eigenvalues --   -0.38011  -0.37914  -0.37662  -0.37590  -0.37125
 Alpha  occ. eigenvalues --   -0.37093  -0.37026  -0.36783  -0.36581  -0.36483
 Alpha  occ. eigenvalues --   -0.36291  -0.36070  -0.35876  -0.35797  -0.35682
 Alpha  occ. eigenvalues --   -0.35516  -0.35254  -0.35046  -0.34887  -0.34628
 Alpha  occ. eigenvalues --   -0.34503  -0.34413  -0.34241  -0.34077  -0.33975
 Alpha  occ. eigenvalues --   -0.33901  -0.33786  -0.33683  -0.33535  -0.33414
 Alpha  occ. eigenvalues --   -0.32970  -0.32940  -0.32850  -0.32560  -0.32403
 Alpha  occ. eigenvalues --   -0.32109  -0.32000  -0.31853  -0.31720  -0.31341
 Alpha  occ. eigenvalues --   -0.31164  -0.31013  -0.30782  -0.30666  -0.30552
 Alpha  occ. eigenvalues --   -0.30180  -0.30050  -0.29918  -0.29777  -0.29691
 Alpha  occ. eigenvalues --   -0.29535  -0.29469  -0.29265  -0.29213  -0.29118
 Alpha  occ. eigenvalues --   -0.28859  -0.28589  -0.28503  -0.27886  -0.27619
 Alpha  occ. eigenvalues --   -0.27379  -0.27046  -0.27014  -0.26619  -0.26381
 Alpha  occ. eigenvalues --   -0.26297  -0.26050  -0.25954  -0.25807  -0.25098
 Alpha  occ. eigenvalues --   -0.25086  -0.24983  -0.24373  -0.23844  -0.23617
 Alpha  occ. eigenvalues --   -0.23264  -0.22438  -0.21914  -0.21329  -0.20884
 Alpha  occ. eigenvalues --   -0.20472  -0.20092  -0.18684  -0.18333  -0.16988
 Alpha  occ. eigenvalues --   -0.15699
 Alpha virt. eigenvalues --   -0.11382  -0.06681  -0.06049  -0.05038  -0.04622
 Alpha virt. eigenvalues --   -0.02733  -0.02427  -0.02093  -0.01208   0.00383
 Alpha virt. eigenvalues --    0.01635   0.01828   0.02216   0.02489   0.02964

 Mulliken charges:
               1
     1  Mg   0.680833
     2  C    0.016590
     3  C   -0.071976
     4  C   -0.056845
     5  C   -0.104631
     6  N   -0.144950
     7  C   -0.133343
     8  C    0.000731
     9  C   -0.026170
    10  C    0.036909
    11  C    0.157971
    12  C    0.117596
    13  C    0.136010
    14  C    0.092732
    15  O   -0.216630
    16  O   -0.237334
    17  N   -0.303453
    18  C    0.133733
    19  C   -0.126600
    20  C    0.058182
    21  C    0.114810
    22  C    0.167719
    23  C   -0.089934
    24  O   -0.195886
    25  C    0.136956
    26  N   -0.224529
    27  C    0.035316
    28  C   -0.033109
    29  C    0.024342
    30  C    0.033579
    31  C    0.145402
    32  C    0.102989
    33  C    0.077048
    34  N   -0.231236
    35  C    0.131540
    36  C   -0.228987
    37  C    0.117570
    38  C    0.038887
    39  C    0.188726
    40  C   -0.045001
    41  O   -0.145867
    42  C    0.107262
    43  C    0.102892
    44  O   -0.194425
    45  O   -0.253953
    46  C    0.214658
    47  C    0.302805
    48  C   -0.106828
    49  C   -0.112913
    50  C    0.138413
    51  C    0.129135
    52  C    0.048147
    53  C    0.134566
    54  C   -0.051108
    55  C    0.098355
    56  C    0.073237
    57  C    0.025862
    58  C    0.124689
    59  C   -0.028816
    60  C    0.089496
    61  C    0.126690
    62  C    0.069209
    63  C    0.139769
    64  C   -0.091163
    65  C    0.093248
    66  C    0.107605
    67  H   -0.068508
    68  H   -0.044272
    69  H   -0.064568
    70  H   -0.009145
    71  H   -0.034103
    72  H    0.002134
    73  H   -0.000164
    74  H   -0.017072
    75  H   -0.027311
    76  H   -0.005497
    77  H   -0.001275
    78  H   -0.018814
    79  H   -0.003640
    80  H    0.001544
    81  H   -0.028565
    82  H   -0.006610
    83  H    0.001093
    84  H    0.016263
    85  H   -0.034540
    86  H   -0.050213
    87  H   -0.010621
    88  H   -0.004796
    89  H    0.008730
    90  H   -0.022689
    91  H   -0.033316
    92  H    0.011025
    93  H    0.016342
    94  H   -0.021607
    95  H    0.015456
    96  H    0.010524
    97  H    0.008023
    98  H    0.004718
    99  H    0.018069
   100  H    0.012722
   101  H    0.017323
   102  H    0.003351
   103  H    0.015488
   104  H   -0.025750
   105  H   -0.031771
   106  H    0.008107
   107  H    0.009361
   108  H   -0.035943
   109  H   -0.011842
   110  H   -0.031547
   111  H   -0.038816
   112  H   -0.040781
   113  H   -0.041394
   114  H   -0.044540
   115  H   -0.030971
   116  H   -0.019925
   117  H   -0.011435
   118  H   -0.041818
   119  H   -0.034476
   120  H   -0.034957
   121  H   -0.029915
   122  H   -0.045349
   123  H   -0.036973
   124  H   -0.022638
   125  H   -0.025278
   126  H   -0.034258
   127  H   -0.011238
   128  H   -0.045317
   129  H   -0.038906
   130  H   -0.048907
   131  H   -0.043352
   132  H   -0.038359
   133  H   -0.037999
   134  H   -0.037327
   135  H   -0.026291
   136  H   -0.019006
   137  H   -0.012851
   138  H   -0.016304
   139  H   -0.003497
   140  H   -0.039740
 Sum of Mulliken charges =  -0.00000

 Dipole moment (field-independent basis, Debye):
    X=             -3.8992    Y=              2.8384    Z=              3.2822  Tot=              5.8337
 Quadrupole moment (field-independent basis, Debye-Ang):
   XX=           -389.3451   YY=           -424.8935   ZZ=           -407.5233
   XY=             -0.2727   XZ=             22.7924   YZ=             -6.5298

 Normal termination of Gaussian 16 at Wed May  4 08:26:24 2022.
