 Gaussian 16, Revision A.03,
 Gaussian 16:  ES64L-G16RevA.03 25-Dec-2016

 -----------------------------------
 #p cam-b3lyp/Def2SVP td=(nstates=5)
 -----------------------------------

 --------------------------------------------------------
 step_1501_chromophore_16 TDDFT with cam-b3lyp functional
 --------------------------------------------------------
 Symbolic Z-matrix:
 Charge =  0 Multiplicity = 1

                         Standard orientation:
 ---------------------------------------------------------------------
 Center     Atomic      Atomic             Coordinates (Angstroms)
 Number     Number       Type             X           Y           Z
 ---------------------------------------------------------------------
      1         12           0        5.994066    0.539994    0.149854
      2          6           0        3.775041   -2.281429   -0.295855
      3          6           0        3.644448    2.472015   -0.905620
      4          6           0        8.276851    2.902618    0.330158
      5          6           0        8.443665   -1.935599    0.991339
      6          7           0        4.008355    0.013939   -0.759500
      7          6           0        3.245841   -1.051800   -0.634365
      8          6           0        1.771520   -0.769571   -0.798882
      9          6           0        1.825378    0.781512   -1.162505
     10          6           0        3.306231    1.145455   -0.893131
     11          6           0        1.240947    1.239724   -2.507791
     12          6           0        0.822059   -1.194500    0.311730
     13          6           0       -0.627332   -0.764556    0.169233
     14          6           0       -1.720617   -1.840509    0.039057
     15          8           0       -1.995772   -2.312706   -1.075770
     16          8           0       -2.535319   -1.742868    1.100729
     17          7           0        5.975792    2.504626   -0.207282
     18          6           0        4.861939    3.127174   -0.678485
     19          6           0        5.197258    4.521842   -0.836400
     20          6           0        6.593873    4.623716   -0.600329
     21          6           0        7.016580    3.313333   -0.124110
     22          6           0        4.263373    5.589078   -1.320479
     23          6           0        7.500599    5.830039   -0.798470
     24          8           0        8.742099    5.701930   -0.679986
     25          6           0        6.945586    7.191503   -1.278551
     26          7           0        8.014409    0.477692    0.626230
     27          6           0        8.695424    1.644148    0.744928
     28          6           0       10.090759    1.378516    1.237882
     29          6           0       10.061212   -0.068542    1.806904
     30          6           0        8.814685   -0.561307    1.057391
     31          6           0       11.147191    1.747135    0.140396
     32          6           0       10.001358   -0.140184    3.341508
     33          6           0        8.826734    0.695249    3.886211
     34          7           0        6.150692   -1.584846    0.324063
     35          6           0        7.209815   -2.448078    0.598905
     36          6           0        6.871394   -3.848721    0.468854
     37          6           0        5.509672   -3.825361    0.183977
     38          6           0        5.126462   -2.472578    0.091094
     39          6           0        7.800660   -5.050055    0.705179
     40          6           0        4.347051   -4.634908   -0.005299
     41          8           0        4.152062   -5.858737    0.085318
     42          6           0        3.185044   -3.663056   -0.248894
     43          6           0        2.322250   -3.970845   -1.427377
     44          8           0        2.521757   -3.560103   -2.573367
     45          8           0        1.279225   -4.731623   -1.031401
     46          6           0        0.244551   -4.973366   -2.087813
     47          6           0       -3.822231   -2.475139    0.970421
     48          6           0       -4.762217   -1.696468    0.049447
     49          6           0       -5.876109   -2.210532   -0.492187
     50          6           0       -6.592175   -3.532247   -0.167121
     51          6           0       -6.530227   -1.450025   -1.591337
     52          6           0       -6.919495    0.035621   -1.487304
     53          6           0       -7.688803    0.351020   -0.226400
     54          6           0       -8.753102    1.492103   -0.341511
     55          6           0       -8.294193    2.851863    0.155077
     56          6           0      -10.102402    1.099133    0.302084
     57          6           0      -11.149807    0.534434   -0.713559
     58          6           0      -12.229390    1.499405   -1.111167
     59          6           0      -13.559905    0.741543   -1.421791
     60          6           0      -13.962761    1.148933   -2.889666
     61          6           0      -14.646518    1.224836   -0.404703
     62          6           0      -14.788100    0.221462    0.775454
     63          6           0      -13.741423    0.406157    1.879985
     64          6           0      -14.118953    1.531915    2.900169
     65          6           0      -14.781462    0.986328    4.175047
     66          6           0      -12.967771    2.491567    3.221254
     67          1           0        2.847070    3.169299   -1.172437
     68          1           0        9.060665    3.637071    0.528120
     69          1           0        9.237819   -2.670417    1.140935
     70          1           0        1.518668   -1.357386   -1.681585
     71          1           0        1.277896    1.224344   -0.329786
     72          1           0        0.841701    0.346587   -2.987051
     73          1           0        2.037800    1.771723   -3.026058
     74          1           0        0.385948    1.911845   -2.428047
     75          1           0        1.296292   -0.831672    1.223581
     76          1           0        0.766104   -2.281625    0.357786
     77          1           0       -0.795264   -0.101429   -0.679064
     78          1           0       -0.803725   -0.110356    1.023601
     79          1           0        4.566585    5.957923   -2.301190
     80          1           0        4.129024    6.485202   -0.714462
     81          1           0        3.285965    5.135658   -1.482714
     82          1           0        7.805910    7.860356   -1.298814
     83          1           0        6.295928    7.657589   -0.537688
     84          1           0        6.426109    6.973883   -2.211767
     85          1           0       10.409008    1.974988    2.093066
     86          1           0       10.914063   -0.654256    1.463502
     87          1           0       11.673174    0.840935   -0.159813
     88          1           0       11.805199    2.472521    0.619263
     89          1           0       10.645856    2.213012   -0.707793
     90          1           0       10.990343    0.125299    3.716663
     91          1           0        9.981030   -1.193493    3.619791
     92          1           0        8.086929    0.076529    4.394522
     93          1           0        8.468247    1.495494    3.239054
     94          1           0        9.391124    1.312992    4.584886
     95          1           0        7.203909   -5.945829    0.531563
     96          1           0        8.091236   -4.900152    1.744809
     97          1           0        8.646267   -4.992207    0.019687
     98          1           0        2.507352   -3.663304    0.604150
     99          1           0        0.101236   -4.121628   -2.752618
    100          1           0       -0.722258   -5.099181   -1.600716
    101          1           0        0.391338   -5.807733   -2.773595
    102          1           0       -4.272810   -2.519730    1.961938
    103          1           0       -3.784715   -3.523489    0.673307
    104          1           0       -4.487878   -0.675774   -0.215382
    105          1           0       -5.992053   -4.075349    0.563290
    106          1           0       -6.690423   -4.129213   -1.074010
    107          1           0       -7.576981   -3.423971    0.287505
    108          1           0       -7.487132   -1.904257   -1.849405
    109          1           0       -5.893177   -1.375039   -2.471886
    110          1           0       -7.407545    0.431135   -2.378709
    111          1           0       -5.998615    0.619730   -1.480579
    112          1           0       -7.041138    0.635471    0.602655
    113          1           0       -8.179032   -0.552096    0.137020
    114          1           0       -8.980555    1.715337   -1.384339
    115          1           0       -7.376510    3.057935   -0.396667
    116          1           0       -8.007248    2.878415    1.206254
    117          1           0       -8.997014    3.661095   -0.042339
    118          1           0      -10.489503    2.016728    0.745001
    119          1           0      -10.060783    0.326295    1.069775
    120          1           0      -11.612303   -0.303541   -0.192628
    121          1           0      -10.514035    0.168351   -1.520578
    122          1           0      -11.772157    2.066199   -1.922613
    123          1           0      -12.300588    2.265661   -0.338620
    124          1           0      -13.379148   -0.331142   -1.488592
    125          1           0      -14.388197    0.346377   -3.492499
    126          1           0      -13.037809    1.333060   -3.434890
    127          1           0      -14.569243    2.048364   -2.992272
    128          1           0      -15.572960    1.494643   -0.910836
    129          1           0      -14.462362    2.179394    0.087833
    130          1           0      -14.721220   -0.785782    0.363262
    131          1           0      -15.806351    0.226177    1.164792
    132          1           0      -12.798070    0.684699    1.411495
    133          1           0      -13.554142   -0.564753    2.338045
    134          1           0      -14.986746    2.134442    2.633093
    135          1           0      -15.305989    0.044463    4.012086
    136          1           0      -15.615852    1.624785    4.466042
    137          1           0      -13.960266    0.867032    4.882133
    138          1           0      -12.904483    3.428705    2.668463
    139          1           0      -11.985108    2.019996    3.258731
    140          1           0      -13.183113    2.890114    4.211889
 ---------------------------------------------------------------------

 SCF Done:  E(RCAM-B3LYP) =  -3007.17874471     A.U. after   18 cycles

 Excitation energies and oscillator strengths:

 Excited State   1:      Singlet-A      1.7259 eV  718.36 nm  f=0.3893  <S**2>=0.000
     245 -> 248       -0.18109
     246 -> 247        0.68479
     245 <- 248       -0.10651
 This state for optimization and/or second-order correction.
 Total Energy, E(TD-HF/TD-DFT) =  -3007.11531778
 Copying the excited state density for this state as the 1-particle RhoCI density.

 Excited State   2:      Singlet-A      2.2105 eV  560.88 nm  f=0.1230  <S**2>=0.000
     245 -> 247        0.64524
     246 -> 248        0.27574

 Excited State   3:      Singlet-A      3.4359 eV  360.85 nm  f=0.0724  <S**2>=0.000
     239 -> 247        0.23893
     239 -> 249       -0.15991
     240 -> 247        0.32122
     240 -> 249       -0.19194
     242 -> 247        0.20388
     243 -> 247       -0.18774
     244 -> 247       -0.28461
     246 -> 248       -0.27163

 Excited State   4:      Singlet-A      3.4897 eV  355.29 nm  f=0.0034  <S**2>=0.000
     239 -> 247        0.19114
     239 -> 249       -0.12751
     240 -> 247        0.32275
     240 -> 249       -0.18721
     242 -> 247       -0.21775
     243 -> 247        0.24989
     244 -> 247        0.38693

 Excited State   5:      Singlet-A      3.5469 eV  349.55 nm  f=0.3301  <S**2>=0.000
     239 -> 247        0.11252
     241 -> 247        0.23609
     241 -> 249        0.10785
     241 -> 250        0.13163
     242 -> 247       -0.10378
     243 -> 247       -0.16923
     244 -> 247       -0.25255
     245 -> 247       -0.19830
     246 -> 248        0.47858

 The electronic state is 1-A.
 Alpha  occ. eigenvalues --  -46.88365 -19.27047 -19.25583 -19.20451 -19.19288
 Alpha  occ. eigenvalues --  -19.18830 -19.18384 -14.41678 -14.41597 -14.39245
 Alpha  occ. eigenvalues --  -14.39061 -10.40259 -10.39001 -10.35071 -10.34926
 Alpha  occ. eigenvalues --  -10.33324 -10.31058 -10.30873 -10.30442 -10.30295
 Alpha  occ. eigenvalues --  -10.29891 -10.29515 -10.29478 -10.29322 -10.28710
 Alpha  occ. eigenvalues --  -10.28397 -10.27976 -10.27632 -10.27539 -10.27401
 Alpha  occ. eigenvalues --  -10.27282 -10.27244 -10.27200 -10.27055 -10.26914
 Alpha  occ. eigenvalues --  -10.26863 -10.26813 -10.26784 -10.26673 -10.26652
 Alpha  occ. eigenvalues --  -10.26620 -10.26500 -10.26472 -10.26338 -10.26287
 Alpha  occ. eigenvalues --  -10.26206 -10.25839 -10.25593 -10.25560 -10.25417
 Alpha  occ. eigenvalues --  -10.25396 -10.25343 -10.25310 -10.25296 -10.25262
 Alpha  occ. eigenvalues --  -10.24861 -10.24807 -10.24726 -10.24677 -10.24464
 Alpha  occ. eigenvalues --  -10.24425 -10.24340 -10.24197 -10.24174 -10.24156
 Alpha  occ. eigenvalues --  -10.24142  -3.17026  -1.91912  -1.91498  -1.91331
 Alpha  occ. eigenvalues --   -1.17711  -1.16062  -1.08681  -1.08117  -1.07935
 Alpha  occ. eigenvalues --   -1.06967  -1.05368  -1.04383  -1.03467  -1.02474
 Alpha  occ. eigenvalues --   -0.93077  -0.91125  -0.90118  -0.89865  -0.89225
 Alpha  occ. eigenvalues --   -0.88766  -0.88660  -0.87666  -0.87418  -0.86844
 Alpha  occ. eigenvalues --   -0.86570  -0.85615  -0.84511  -0.83665  -0.83465
 Alpha  occ. eigenvalues --   -0.82770  -0.81878  -0.81292  -0.80818  -0.80545
 Alpha  occ. eigenvalues --   -0.80405  -0.78474  -0.78266  -0.77231  -0.76548
 Alpha  occ. eigenvalues --   -0.76256  -0.75592  -0.74968  -0.74570  -0.74453
 Alpha  occ. eigenvalues --   -0.73965  -0.73105  -0.71685  -0.71026  -0.70162
 Alpha  occ. eigenvalues --   -0.68875  -0.68217  -0.67231  -0.67014  -0.65760
 Alpha  occ. eigenvalues --   -0.65403  -0.65149  -0.64680  -0.64417  -0.63991
 Alpha  occ. eigenvalues --   -0.63881  -0.63372  -0.62334  -0.61895  -0.60679
 Alpha  occ. eigenvalues --   -0.60226  -0.59794  -0.59303  -0.58708  -0.58124
 Alpha  occ. eigenvalues --   -0.57790  -0.57370  -0.56090  -0.55811  -0.55653
 Alpha  occ. eigenvalues --   -0.55160  -0.54744  -0.54674  -0.54571  -0.54162
 Alpha  occ. eigenvalues --   -0.53903  -0.53416  -0.53245  -0.53036  -0.52637
 Alpha  occ. eigenvalues --   -0.52541  -0.52266  -0.52209  -0.51896  -0.51762
 Alpha  occ. eigenvalues --   -0.51494  -0.51233  -0.51059  -0.50949  -0.50765
 Alpha  occ. eigenvalues --   -0.50519  -0.50313  -0.49912  -0.49793  -0.49608
 Alpha  occ. eigenvalues --   -0.49217  -0.49193  -0.48977  -0.48821  -0.48620
 Alpha  occ. eigenvalues --   -0.48488  -0.48381  -0.48198  -0.47976  -0.47805
 Alpha  occ. eigenvalues --   -0.47611  -0.47432  -0.47269  -0.46974  -0.46786
 Alpha  occ. eigenvalues --   -0.46525  -0.46250  -0.46153  -0.45945  -0.45844
 Alpha  occ. eigenvalues --   -0.45659  -0.45509  -0.45328  -0.45288  -0.45209
 Alpha  occ. eigenvalues --   -0.44860  -0.44559  -0.44448  -0.44289  -0.44224
 Alpha  occ. eigenvalues --   -0.43816  -0.43621  -0.43533  -0.43345  -0.43188
 Alpha  occ. eigenvalues --   -0.42678  -0.42555  -0.42419  -0.42156  -0.41985
 Alpha  occ. eigenvalues --   -0.41783  -0.41460  -0.41371  -0.41104  -0.40965
 Alpha  occ. eigenvalues --   -0.40784  -0.40558  -0.40500  -0.40431  -0.40200
 Alpha  occ. eigenvalues --   -0.39864  -0.39516  -0.39487  -0.38771  -0.38423
 Alpha  occ. eigenvalues --   -0.38404  -0.38109  -0.37962  -0.37893  -0.37284
 Alpha  occ. eigenvalues --   -0.37060  -0.36790  -0.36682  -0.36513  -0.36318
 Alpha  occ. eigenvalues --   -0.36025  -0.35710  -0.34834  -0.34551  -0.34162
 Alpha  occ. eigenvalues --   -0.34004  -0.33994  -0.33129  -0.31202  -0.30973
 Alpha  occ. eigenvalues --   -0.30533  -0.30246  -0.29780  -0.29771  -0.23766
 Alpha  occ. eigenvalues --   -0.21018
 Alpha virt. eigenvalues --   -0.08489  -0.01406   0.00319   0.02310   0.02553
 Alpha virt. eigenvalues --    0.02944   0.04693   0.05400   0.05937   0.06904
 Alpha virt. eigenvalues --    0.08211   0.08407   0.08696   0.09110   0.09259

 Mulliken charges:
               1
     1  Mg   0.817723
     2  C   -0.012942
     3  C   -0.079445
     4  C   -0.066020
     5  C   -0.109017
     6  N   -0.217917
     7  C   -0.075468
     8  C   -0.046682
     9  C   -0.079903
    10  C    0.048865
    11  C    0.094974
    12  C    0.064444
    13  C    0.067881
    14  C    0.168238
    15  O   -0.256416
    16  O   -0.302170
    17  N   -0.396950
    18  C    0.137968
    19  C   -0.132814
    20  C   -0.012415
    21  C    0.135777
    22  C    0.110591
    23  C   -0.011569
    24  O   -0.237572
    25  C    0.059713
    26  N   -0.295228
    27  C    0.040989
    28  C   -0.090779
    29  C   -0.027603
    30  C    0.050912
    31  C    0.089509
    32  C    0.053679
    33  C    0.004407
    34  N   -0.316564
    35  C    0.131063
    36  C   -0.209222
    37  C    0.026934
    38  C    0.075521
    39  C    0.138083
    40  C    0.057773
    41  O   -0.182644
    42  C    0.026843
    43  C    0.187972
    44  O   -0.231999
    45  O   -0.317159
    46  C    0.176929
    47  C    0.270875
    48  C   -0.124029
    49  C   -0.146228
    50  C    0.082238
    51  C    0.072117
    52  C   -0.003053
    53  C    0.080272
    54  C   -0.107349
    55  C    0.044530
    56  C    0.021696
    57  C   -0.023964
    58  C    0.071382
    59  C   -0.094862
    60  C    0.036178
    61  C    0.073286
    62  C    0.014494
    63  C    0.087806
    64  C   -0.151970
    65  C    0.036191
    66  C    0.046565
    67  H   -0.034438
    68  H   -0.004170
    69  H   -0.028055
    70  H    0.025300
    71  H   -0.000126
    72  H    0.026803
    73  H    0.025927
    74  H    0.007453
    75  H    0.004914
    76  H    0.018672
    77  H    0.029614
    78  H    0.018680
    79  H    0.021961
    80  H    0.027575
    81  H   -0.001119
    82  H    0.028911
    83  H    0.029123
    84  H    0.040481
    85  H    0.001961
    86  H   -0.013384
    87  H    0.012939
    88  H    0.018456
    89  H    0.035005
    90  H    0.006377
    91  H   -0.003645
    92  H    0.035891
    93  H    0.039102
    94  H    0.003661
    95  H    0.043860
    96  H    0.035460
    97  H    0.033878
    98  H    0.048940
    99  H    0.043063
   100  H    0.036192
   101  H    0.040194
   102  H    0.032820
   103  H    0.043224
   104  H    0.007163
   105  H   -0.008422
   106  H    0.032720
   107  H    0.033109
   108  H   -0.007046
   109  H    0.019251
   110  H   -0.001233
   111  H   -0.013232
   112  H   -0.011435
   113  H   -0.014612
   114  H   -0.014049
   115  H   -0.006782
   116  H    0.003816
   117  H    0.012370
   118  H   -0.015384
   119  H   -0.005670
   120  H   -0.008161
   121  H   -0.003848
   122  H   -0.015479
   123  H   -0.010145
   124  H    0.009882
   125  H    0.000017
   126  H   -0.009734
   127  H    0.011695
   128  H   -0.013506
   129  H   -0.011299
   130  H   -0.018799
   131  H   -0.014228
   132  H   -0.018180
   133  H   -0.007301
   134  H   -0.005601
   135  H   -0.001495
   136  H    0.005220
   137  H    0.010704
   138  H    0.007824
   139  H    0.018360
   140  H   -0.012454
 Sum of Mulliken charges =  -0.00000

 Dipole moment (field-independent basis, Debye):
    X=             -3.9877    Y=              2.9905    Z=              3.3916  Tot=              6.0289
 Quadrupole moment (field-independent basis, Debye-Ang):
   XX=           -387.8063   YY=           -420.0177   ZZ=           -407.7016
   XY=             -0.4600   XZ=             23.9352   YZ=             -7.5756

 Normal termination of Gaussian 16 at Wed May  4 07:26:26 2022.
