 Gaussian 16, Revision A.03,
 Gaussian 16:  ES64L-G16RevA.03 25-Dec-2016

 ---------------------------------
 #p PBE1PBE/Def2SVP td=(nstates=5)
 ---------------------------------

 ------------------------------------------------------
 step_1501_chromophore_16 TDDFT with PBE1PBE functional
 ------------------------------------------------------
 Symbolic Z-matrix:
 Charge =  0 Multiplicity = 1

                         Standard orientation:
 ---------------------------------------------------------------------
 Center     Atomic      Atomic             Coordinates (Angstroms)
 Number     Number       Type             X           Y           Z
 ---------------------------------------------------------------------
      1         12           0        5.994066    0.539994    0.149854
      2          6           0        3.775041   -2.281429   -0.295855
      3          6           0        3.644448    2.472015   -0.905620
      4          6           0        8.276851    2.902618    0.330158
      5          6           0        8.443665   -1.935599    0.991339
      6          7           0        4.008355    0.013939   -0.759500
      7          6           0        3.245841   -1.051800   -0.634365
      8          6           0        1.771520   -0.769571   -0.798882
      9          6           0        1.825378    0.781512   -1.162505
     10          6           0        3.306231    1.145455   -0.893131
     11          6           0        1.240947    1.239724   -2.507791
     12          6           0        0.822059   -1.194500    0.311730
     13          6           0       -0.627332   -0.764556    0.169233
     14          6           0       -1.720617   -1.840509    0.039057
     15          8           0       -1.995772   -2.312706   -1.075770
     16          8           0       -2.535319   -1.742868    1.100729
     17          7           0        5.975792    2.504626   -0.207282
     18          6           0        4.861939    3.127174   -0.678485
     19          6           0        5.197258    4.521842   -0.836400
     20          6           0        6.593873    4.623716   -0.600329
     21          6           0        7.016580    3.313333   -0.124110
     22          6           0        4.263373    5.589078   -1.320479
     23          6           0        7.500599    5.830039   -0.798470
     24          8           0        8.742099    5.701930   -0.679986
     25          6           0        6.945586    7.191503   -1.278551
     26          7           0        8.014409    0.477692    0.626230
     27          6           0        8.695424    1.644148    0.744928
     28          6           0       10.090759    1.378516    1.237882
     29          6           0       10.061212   -0.068542    1.806904
     30          6           0        8.814685   -0.561307    1.057391
     31          6           0       11.147191    1.747135    0.140396
     32          6           0       10.001358   -0.140184    3.341508
     33          6           0        8.826734    0.695249    3.886211
     34          7           0        6.150692   -1.584846    0.324063
     35          6           0        7.209815   -2.448078    0.598905
     36          6           0        6.871394   -3.848721    0.468854
     37          6           0        5.509672   -3.825361    0.183977
     38          6           0        5.126462   -2.472578    0.091094
     39          6           0        7.800660   -5.050055    0.705179
     40          6           0        4.347051   -4.634908   -0.005299
     41          8           0        4.152062   -5.858737    0.085318
     42          6           0        3.185044   -3.663056   -0.248894
     43          6           0        2.322250   -3.970845   -1.427377
     44          8           0        2.521757   -3.560103   -2.573367
     45          8           0        1.279225   -4.731623   -1.031401
     46          6           0        0.244551   -4.973366   -2.087813
     47          6           0       -3.822231   -2.475139    0.970421
     48          6           0       -4.762217   -1.696468    0.049447
     49          6           0       -5.876109   -2.210532   -0.492187
     50          6           0       -6.592175   -3.532247   -0.167121
     51          6           0       -6.530227   -1.450025   -1.591337
     52          6           0       -6.919495    0.035621   -1.487304
     53          6           0       -7.688803    0.351020   -0.226400
     54          6           0       -8.753102    1.492103   -0.341511
     55          6           0       -8.294193    2.851863    0.155077
     56          6           0      -10.102402    1.099133    0.302084
     57          6           0      -11.149807    0.534434   -0.713559
     58          6           0      -12.229390    1.499405   -1.111167
     59          6           0      -13.559905    0.741543   -1.421791
     60          6           0      -13.962761    1.148933   -2.889666
     61          6           0      -14.646518    1.224836   -0.404703
     62          6           0      -14.788100    0.221462    0.775454
     63          6           0      -13.741423    0.406157    1.879985
     64          6           0      -14.118953    1.531915    2.900169
     65          6           0      -14.781462    0.986328    4.175047
     66          6           0      -12.967771    2.491567    3.221254
     67          1           0        2.847070    3.169299   -1.172437
     68          1           0        9.060665    3.637071    0.528120
     69          1           0        9.237819   -2.670417    1.140935
     70          1           0        1.518668   -1.357386   -1.681585
     71          1           0        1.277896    1.224344   -0.329786
     72          1           0        0.841701    0.346587   -2.987051
     73          1           0        2.037800    1.771723   -3.026058
     74          1           0        0.385948    1.911845   -2.428047
     75          1           0        1.296292   -0.831672    1.223581
     76          1           0        0.766104   -2.281625    0.357786
     77          1           0       -0.795264   -0.101429   -0.679064
     78          1           0       -0.803725   -0.110356    1.023601
     79          1           0        4.566585    5.957923   -2.301190
     80          1           0        4.129024    6.485202   -0.714462
     81          1           0        3.285965    5.135658   -1.482714
     82          1           0        7.805910    7.860356   -1.298814
     83          1           0        6.295928    7.657589   -0.537688
     84          1           0        6.426109    6.973883   -2.211767
     85          1           0       10.409008    1.974988    2.093066
     86          1           0       10.914063   -0.654256    1.463502
     87          1           0       11.673174    0.840935   -0.159813
     88          1           0       11.805199    2.472521    0.619263
     89          1           0       10.645856    2.213012   -0.707793
     90          1           0       10.990343    0.125299    3.716663
     91          1           0        9.981030   -1.193493    3.619791
     92          1           0        8.086929    0.076529    4.394522
     93          1           0        8.468247    1.495494    3.239054
     94          1           0        9.391124    1.312992    4.584886
     95          1           0        7.203909   -5.945829    0.531563
     96          1           0        8.091236   -4.900152    1.744809
     97          1           0        8.646267   -4.992207    0.019687
     98          1           0        2.507352   -3.663304    0.604150
     99          1           0        0.101236   -4.121628   -2.752618
    100          1           0       -0.722258   -5.099181   -1.600716
    101          1           0        0.391338   -5.807733   -2.773595
    102          1           0       -4.272810   -2.519730    1.961938
    103          1           0       -3.784715   -3.523489    0.673307
    104          1           0       -4.487878   -0.675774   -0.215382
    105          1           0       -5.992053   -4.075349    0.563290
    106          1           0       -6.690423   -4.129213   -1.074010
    107          1           0       -7.576981   -3.423971    0.287505
    108          1           0       -7.487132   -1.904257   -1.849405
    109          1           0       -5.893177   -1.375039   -2.471886
    110          1           0       -7.407545    0.431135   -2.378709
    111          1           0       -5.998615    0.619730   -1.480579
    112          1           0       -7.041138    0.635471    0.602655
    113          1           0       -8.179032   -0.552096    0.137020
    114          1           0       -8.980555    1.715337   -1.384339
    115          1           0       -7.376510    3.057935   -0.396667
    116          1           0       -8.007248    2.878415    1.206254
    117          1           0       -8.997014    3.661095   -0.042339
    118          1           0      -10.489503    2.016728    0.745001
    119          1           0      -10.060783    0.326295    1.069775
    120          1           0      -11.612303   -0.303541   -0.192628
    121          1           0      -10.514035    0.168351   -1.520578
    122          1           0      -11.772157    2.066199   -1.922613
    123          1           0      -12.300588    2.265661   -0.338620
    124          1           0      -13.379148   -0.331142   -1.488592
    125          1           0      -14.388197    0.346377   -3.492499
    126          1           0      -13.037809    1.333060   -3.434890
    127          1           0      -14.569243    2.048364   -2.992272
    128          1           0      -15.572960    1.494643   -0.910836
    129          1           0      -14.462362    2.179394    0.087833
    130          1           0      -14.721220   -0.785782    0.363262
    131          1           0      -15.806351    0.226177    1.164792
    132          1           0      -12.798070    0.684699    1.411495
    133          1           0      -13.554142   -0.564753    2.338045
    134          1           0      -14.986746    2.134442    2.633093
    135          1           0      -15.305989    0.044463    4.012086
    136          1           0      -15.615852    1.624785    4.466042
    137          1           0      -13.960266    0.867032    4.882133
    138          1           0      -12.904483    3.428705    2.668463
    139          1           0      -11.985108    2.019996    3.258731
    140          1           0      -13.183113    2.890114    4.211889
 ---------------------------------------------------------------------

 SCF Done:  E(RPBE1PBE) =  -3005.36847624     A.U. after   15 cycles

 Excitation energies and oscillator strengths:

 Excited State   1:      Singlet-A      1.8733 eV  661.84 nm  f=0.3750  <S**2>=0.000
     245 -> 248       -0.17002
     246 -> 247        0.69205
     246 <- 247       -0.10584
 This state for optimization and/or second-order correction.
 Total Energy, E(TD-HF/TD-DFT) =  -3005.29963233
 Copying the excited state density for this state as the 1-particle RhoCI density.

 Excited State   2:      Singlet-A      2.2052 eV  562.24 nm  f=0.1189  <S**2>=0.000
     245 -> 247        0.65725
     246 -> 248        0.24186

 Excited State   3:      Singlet-A      3.0262 eV  409.70 nm  f=0.0014  <S**2>=0.000
     241 -> 247        0.61673
     241 -> 249       -0.18938
     243 -> 247        0.21208

 Excited State   4:      Singlet-A      3.0516 eV  406.29 nm  f=0.0012  <S**2>=0.000
     241 -> 247       -0.16754
     242 -> 247        0.25480
     243 -> 247        0.59102
     243 -> 249        0.12825
     243 -> 250        0.10962

 Excited State   5:      Singlet-A      3.1593 eV  392.44 nm  f=0.0009  <S**2>=0.000
     241 -> 247        0.15442
     242 -> 247        0.63199
     243 -> 247       -0.24319

 The electronic state is 1-A.
 Alpha  occ. eigenvalues --  -46.91761 -19.27738 -19.26184 -19.20746 -19.19495
 Alpha  occ. eigenvalues --  -19.18947 -19.18696 -14.41148 -14.41137 -14.38934
 Alpha  occ. eigenvalues --  -14.38706 -10.37303 -10.35960 -10.32308 -10.31936
 Alpha  occ. eigenvalues --  -10.30720 -10.28572 -10.28258 -10.28087 -10.28055
 Alpha  occ. eigenvalues --  -10.27716 -10.27313 -10.27281 -10.26917 -10.26304
 Alpha  occ. eigenvalues --  -10.25922 -10.25763 -10.25173 -10.25121 -10.25031
 Alpha  occ. eigenvalues --  -10.25031 -10.24957 -10.24880 -10.24843 -10.24632
 Alpha  occ. eigenvalues --  -10.24531 -10.24449 -10.24408 -10.24342 -10.24261
 Alpha  occ. eigenvalues --  -10.24198 -10.24059 -10.24004 -10.23939 -10.23878
 Alpha  occ. eigenvalues --  -10.23614 -10.23328 -10.23270 -10.23254 -10.23113
 Alpha  occ. eigenvalues --  -10.22898 -10.22856 -10.22856 -10.22846 -10.22840
 Alpha  occ. eigenvalues --  -10.22384 -10.22368 -10.22256 -10.22197 -10.21841
 Alpha  occ. eigenvalues --  -10.21804 -10.21737 -10.21724 -10.21722 -10.21718
 Alpha  occ. eigenvalues --  -10.21587  -3.14002  -1.86830  -1.86392  -1.86231
 Alpha  occ. eigenvalues --   -1.12540  -1.10785  -1.03291  -1.02970  -1.02719
 Alpha  occ. eigenvalues --   -1.01731  -1.00010  -0.99146  -0.98085  -0.97087
 Alpha  occ. eigenvalues --   -0.87384  -0.85244  -0.84281  -0.83955  -0.83577
 Alpha  occ. eigenvalues --   -0.83000  -0.82859  -0.82002  -0.81530  -0.81174
 Alpha  occ. eigenvalues --   -0.80857  -0.79855  -0.78736  -0.77936  -0.77733
 Alpha  occ. eigenvalues --   -0.76970  -0.76132  -0.75505  -0.75083  -0.74794
 Alpha  occ. eigenvalues --   -0.74540  -0.72739  -0.72574  -0.71544  -0.70822
 Alpha  occ. eigenvalues --   -0.70452  -0.69675  -0.69330  -0.68775  -0.68589
 Alpha  occ. eigenvalues --   -0.68221  -0.67495  -0.66088  -0.65357  -0.64522
 Alpha  occ. eigenvalues --   -0.63351  -0.62476  -0.61651  -0.61328  -0.60204
 Alpha  occ. eigenvalues --   -0.59749  -0.59558  -0.58979  -0.58802  -0.58450
 Alpha  occ. eigenvalues --   -0.58359  -0.57486  -0.56528  -0.56457  -0.55250
 Alpha  occ. eigenvalues --   -0.54593  -0.54352  -0.53813  -0.53300  -0.52590
 Alpha  occ. eigenvalues --   -0.52228  -0.51885  -0.50645  -0.50382  -0.50209
 Alpha  occ. eigenvalues --   -0.49648  -0.49356  -0.49171  -0.49068  -0.48549
 Alpha  occ. eigenvalues --   -0.48437  -0.47885  -0.47734  -0.47633  -0.47105
 Alpha  occ. eigenvalues --   -0.46952  -0.46795  -0.46755  -0.46399  -0.46277
 Alpha  occ. eigenvalues --   -0.46035  -0.45729  -0.45564  -0.45454  -0.45333
 Alpha  occ. eigenvalues --   -0.45125  -0.44883  -0.44478  -0.44395  -0.44156
 Alpha  occ. eigenvalues --   -0.43883  -0.43762  -0.43595  -0.43398  -0.43197
 Alpha  occ. eigenvalues --   -0.43114  -0.42981  -0.42835  -0.42627  -0.42372
 Alpha  occ. eigenvalues --   -0.42217  -0.42066  -0.41963  -0.41603  -0.41460
 Alpha  occ. eigenvalues --   -0.41194  -0.40949  -0.40834  -0.40632  -0.40536
 Alpha  occ. eigenvalues --   -0.40302  -0.40132  -0.40092  -0.40012  -0.39876
 Alpha  occ. eigenvalues --   -0.39509  -0.39224  -0.39191  -0.39085  -0.38934
 Alpha  occ. eigenvalues --   -0.38602  -0.38360  -0.38330  -0.38106  -0.37962
 Alpha  occ. eigenvalues --   -0.37522  -0.37225  -0.37197  -0.36986  -0.36729
 Alpha  occ. eigenvalues --   -0.36584  -0.36284  -0.36116  -0.36044  -0.35817
 Alpha  occ. eigenvalues --   -0.35567  -0.35485  -0.35370  -0.35293  -0.34935
 Alpha  occ. eigenvalues --   -0.34727  -0.34436  -0.34245  -0.33528  -0.33354
 Alpha  occ. eigenvalues --   -0.33260  -0.33064  -0.32962  -0.32770  -0.32163
 Alpha  occ. eigenvalues --   -0.31859  -0.31717  -0.31663  -0.31329  -0.31322
 Alpha  occ. eigenvalues --   -0.31092  -0.30498  -0.29709  -0.29492  -0.29207
 Alpha  occ. eigenvalues --   -0.29086  -0.28944  -0.28356  -0.26771  -0.25890
 Alpha  occ. eigenvalues --   -0.25754  -0.25445  -0.25348  -0.25042  -0.20699
 Alpha  occ. eigenvalues --   -0.18645
 Alpha virt. eigenvalues --   -0.10970  -0.04944  -0.03854  -0.02110  -0.01772
 Alpha virt. eigenvalues --   -0.00064   0.00254   0.00824   0.01615   0.03266
 Alpha virt. eigenvalues --    0.04470   0.04754   0.05179   0.05391   0.05950

 Mulliken charges:
               1
     1  Mg   0.970345
     2  C   -0.019776
     3  C   -0.067511
     4  C   -0.050192
     5  C   -0.093254
     6  N   -0.330023
     7  C    0.001979
     8  C   -0.106988
     9  C   -0.153387
    10  C    0.073487
    11  C    0.032806
    12  C   -0.000514
    13  C   -0.005846
    14  C    0.234080
    15  O   -0.285671
    16  O   -0.333357
    17  N   -0.525308
    18  C    0.168637
    19  C   -0.161618
    20  C   -0.066802
    21  C    0.174100
    22  C    0.052847
    23  C    0.040427
    24  O   -0.271185
    25  C   -0.014337
    26  N   -0.398364
    27  C    0.059240
    28  C   -0.162577
    29  C   -0.103465
    30  C    0.090119
    31  C    0.033323
    32  C   -0.003396
    33  C   -0.073021
    34  N   -0.435497
    35  C    0.135543
    36  C   -0.205873
    37  C   -0.024866
    38  C    0.121277
    39  C    0.079184
    40  C    0.150079
    41  O   -0.231040
    42  C   -0.084659
    43  C    0.275648
    44  O   -0.266680
    45  O   -0.349856
    46  C    0.121918
    47  C    0.228513
    48  C   -0.134215
    49  C   -0.191035
    50  C    0.017418
    51  C    0.007599
    52  C   -0.066935
    53  C    0.029550
    54  C   -0.195391
    55  C   -0.018484
    56  C   -0.028574
    57  C   -0.092527
    58  C    0.021682
    59  C   -0.186777
    60  C   -0.020413
    61  C    0.023293
    62  C   -0.051657
    63  C    0.017462
    64  C   -0.237943
    65  C   -0.024434
    66  C   -0.017180
    67  H   -0.001170
    68  H    0.027531
    69  H    0.002804
    70  H    0.066557
    71  H    0.040502
    72  H    0.054048
    73  H    0.053641
    74  H    0.034597
    75  H    0.037999
    76  H    0.057926
    77  H    0.063126
    78  H    0.050696
    79  H    0.050533
    80  H    0.055186
    81  H    0.028635
    82  H    0.056363
    83  H    0.056116
    84  H    0.067004
    85  H    0.040321
    86  H    0.023520
    87  H    0.041349
    88  H    0.045595
    89  H    0.062858
    90  H    0.038643
    91  H    0.029810
    92  H    0.063877
    93  H    0.069829
    94  H    0.032398
    95  H    0.071359
    96  H    0.062398
    97  H    0.060651
    98  H    0.086878
    99  H    0.063782
   100  H    0.057776
   101  H    0.062003
   102  H    0.059754
   103  H    0.068927
   104  H    0.036487
   105  H    0.019926
   106  H    0.059918
   107  H    0.059851
   108  H    0.026051
   109  H    0.053380
   110  H    0.029971
   111  H    0.019677
   112  H    0.021454
   113  H    0.019491
   114  H    0.024745
   115  H    0.023130
   116  H    0.031934
   117  H    0.040006
   118  H    0.017903
   119  H    0.025719
   120  H    0.023605
   121  H    0.030787
   122  H    0.016869
   123  H    0.020233
   124  H    0.044816
   125  H    0.028155
   126  H    0.018636
   127  H    0.038281
   128  H    0.018380
   129  H    0.022177
   130  H    0.015078
   131  H    0.018807
   132  H    0.030503
   133  H    0.024522
   134  H    0.031324
   135  H    0.026589
   136  H    0.032638
   137  H    0.038458
   138  H    0.034942
   139  H    0.045597
   140  H    0.016214
 Sum of Mulliken charges =  -0.00000

 Dipole moment (field-independent basis, Debye):
    X=             -3.9361    Y=              3.2298    Z=              3.4322  Tot=              6.1404
 Quadrupole moment (field-independent basis, Debye-Ang):
   XX=           -381.6315   YY=           -417.5063   ZZ=           -404.9718
   XY=              0.4161   XZ=             25.1815   YZ=             -7.8401

 Normal termination of Gaussian 16 at Wed May  4 07:45:12 2022.
