 Gaussian 16, Revision A.03,
 Gaussian 16:  ES64L-G16RevA.03 25-Dec-2016

 --------------------------------
 #p wB97XD/Def2SVP td=(nstates=5)
 --------------------------------

 -----------------------------------------------------
 step_1501_chromophore_16 TDDFT with wB97XD functional
 -----------------------------------------------------
 Symbolic Z-matrix:
 Charge =  0 Multiplicity = 1

                         Standard orientation:
 ---------------------------------------------------------------------
 Center     Atomic      Atomic             Coordinates (Angstroms)
 Number     Number       Type             X           Y           Z
 ---------------------------------------------------------------------
      1         12           0        5.994066    0.539994    0.149854
      2          6           0        3.775041   -2.281429   -0.295855
      3          6           0        3.644448    2.472015   -0.905620
      4          6           0        8.276851    2.902618    0.330158
      5          6           0        8.443665   -1.935599    0.991339
      6          7           0        4.008355    0.013939   -0.759500
      7          6           0        3.245841   -1.051800   -0.634365
      8          6           0        1.771520   -0.769571   -0.798882
      9          6           0        1.825378    0.781512   -1.162505
     10          6           0        3.306231    1.145455   -0.893131
     11          6           0        1.240947    1.239724   -2.507791
     12          6           0        0.822059   -1.194500    0.311730
     13          6           0       -0.627332   -0.764556    0.169233
     14          6           0       -1.720617   -1.840509    0.039057
     15          8           0       -1.995772   -2.312706   -1.075770
     16          8           0       -2.535319   -1.742868    1.100729
     17          7           0        5.975792    2.504626   -0.207282
     18          6           0        4.861939    3.127174   -0.678485
     19          6           0        5.197258    4.521842   -0.836400
     20          6           0        6.593873    4.623716   -0.600329
     21          6           0        7.016580    3.313333   -0.124110
     22          6           0        4.263373    5.589078   -1.320479
     23          6           0        7.500599    5.830039   -0.798470
     24          8           0        8.742099    5.701930   -0.679986
     25          6           0        6.945586    7.191503   -1.278551
     26          7           0        8.014409    0.477692    0.626230
     27          6           0        8.695424    1.644148    0.744928
     28          6           0       10.090759    1.378516    1.237882
     29          6           0       10.061212   -0.068542    1.806904
     30          6           0        8.814685   -0.561307    1.057391
     31          6           0       11.147191    1.747135    0.140396
     32          6           0       10.001358   -0.140184    3.341508
     33          6           0        8.826734    0.695249    3.886211
     34          7           0        6.150692   -1.584846    0.324063
     35          6           0        7.209815   -2.448078    0.598905
     36          6           0        6.871394   -3.848721    0.468854
     37          6           0        5.509672   -3.825361    0.183977
     38          6           0        5.126462   -2.472578    0.091094
     39          6           0        7.800660   -5.050055    0.705179
     40          6           0        4.347051   -4.634908   -0.005299
     41          8           0        4.152062   -5.858737    0.085318
     42          6           0        3.185044   -3.663056   -0.248894
     43          6           0        2.322250   -3.970845   -1.427377
     44          8           0        2.521757   -3.560103   -2.573367
     45          8           0        1.279225   -4.731623   -1.031401
     46          6           0        0.244551   -4.973366   -2.087813
     47          6           0       -3.822231   -2.475139    0.970421
     48          6           0       -4.762217   -1.696468    0.049447
     49          6           0       -5.876109   -2.210532   -0.492187
     50          6           0       -6.592175   -3.532247   -0.167121
     51          6           0       -6.530227   -1.450025   -1.591337
     52          6           0       -6.919495    0.035621   -1.487304
     53          6           0       -7.688803    0.351020   -0.226400
     54          6           0       -8.753102    1.492103   -0.341511
     55          6           0       -8.294193    2.851863    0.155077
     56          6           0      -10.102402    1.099133    0.302084
     57          6           0      -11.149807    0.534434   -0.713559
     58          6           0      -12.229390    1.499405   -1.111167
     59          6           0      -13.559905    0.741543   -1.421791
     60          6           0      -13.962761    1.148933   -2.889666
     61          6           0      -14.646518    1.224836   -0.404703
     62          6           0      -14.788100    0.221462    0.775454
     63          6           0      -13.741423    0.406157    1.879985
     64          6           0      -14.118953    1.531915    2.900169
     65          6           0      -14.781462    0.986328    4.175047
     66          6           0      -12.967771    2.491567    3.221254
     67          1           0        2.847070    3.169299   -1.172437
     68          1           0        9.060665    3.637071    0.528120
     69          1           0        9.237819   -2.670417    1.140935
     70          1           0        1.518668   -1.357386   -1.681585
     71          1           0        1.277896    1.224344   -0.329786
     72          1           0        0.841701    0.346587   -2.987051
     73          1           0        2.037800    1.771723   -3.026058
     74          1           0        0.385948    1.911845   -2.428047
     75          1           0        1.296292   -0.831672    1.223581
     76          1           0        0.766104   -2.281625    0.357786
     77          1           0       -0.795264   -0.101429   -0.679064
     78          1           0       -0.803725   -0.110356    1.023601
     79          1           0        4.566585    5.957923   -2.301190
     80          1           0        4.129024    6.485202   -0.714462
     81          1           0        3.285965    5.135658   -1.482714
     82          1           0        7.805910    7.860356   -1.298814
     83          1           0        6.295928    7.657589   -0.537688
     84          1           0        6.426109    6.973883   -2.211767
     85          1           0       10.409008    1.974988    2.093066
     86          1           0       10.914063   -0.654256    1.463502
     87          1           0       11.673174    0.840935   -0.159813
     88          1           0       11.805199    2.472521    0.619263
     89          1           0       10.645856    2.213012   -0.707793
     90          1           0       10.990343    0.125299    3.716663
     91          1           0        9.981030   -1.193493    3.619791
     92          1           0        8.086929    0.076529    4.394522
     93          1           0        8.468247    1.495494    3.239054
     94          1           0        9.391124    1.312992    4.584886
     95          1           0        7.203909   -5.945829    0.531563
     96          1           0        8.091236   -4.900152    1.744809
     97          1           0        8.646267   -4.992207    0.019687
     98          1           0        2.507352   -3.663304    0.604150
     99          1           0        0.101236   -4.121628   -2.752618
    100          1           0       -0.722258   -5.099181   -1.600716
    101          1           0        0.391338   -5.807733   -2.773595
    102          1           0       -4.272810   -2.519730    1.961938
    103          1           0       -3.784715   -3.523489    0.673307
    104          1           0       -4.487878   -0.675774   -0.215382
    105          1           0       -5.992053   -4.075349    0.563290
    106          1           0       -6.690423   -4.129213   -1.074010
    107          1           0       -7.576981   -3.423971    0.287505
    108          1           0       -7.487132   -1.904257   -1.849405
    109          1           0       -5.893177   -1.375039   -2.471886
    110          1           0       -7.407545    0.431135   -2.378709
    111          1           0       -5.998615    0.619730   -1.480579
    112          1           0       -7.041138    0.635471    0.602655
    113          1           0       -8.179032   -0.552096    0.137020
    114          1           0       -8.980555    1.715337   -1.384339
    115          1           0       -7.376510    3.057935   -0.396667
    116          1           0       -8.007248    2.878415    1.206254
    117          1           0       -8.997014    3.661095   -0.042339
    118          1           0      -10.489503    2.016728    0.745001
    119          1           0      -10.060783    0.326295    1.069775
    120          1           0      -11.612303   -0.303541   -0.192628
    121          1           0      -10.514035    0.168351   -1.520578
    122          1           0      -11.772157    2.066199   -1.922613
    123          1           0      -12.300588    2.265661   -0.338620
    124          1           0      -13.379148   -0.331142   -1.488592
    125          1           0      -14.388197    0.346377   -3.492499
    126          1           0      -13.037809    1.333060   -3.434890
    127          1           0      -14.569243    2.048364   -2.992272
    128          1           0      -15.572960    1.494643   -0.910836
    129          1           0      -14.462362    2.179394    0.087833
    130          1           0      -14.721220   -0.785782    0.363262
    131          1           0      -15.806351    0.226177    1.164792
    132          1           0      -12.798070    0.684699    1.411495
    133          1           0      -13.554142   -0.564753    2.338045
    134          1           0      -14.986746    2.134442    2.633093
    135          1           0      -15.305989    0.044463    4.012086
    136          1           0      -15.615852    1.624785    4.466042
    137          1           0      -13.960266    0.867032    4.882133
    138          1           0      -12.904483    3.428705    2.668463
    139          1           0      -11.985108    2.019996    3.258731
    140          1           0      -13.183113    2.890114    4.211889
 ---------------------------------------------------------------------

 SCF Done:  E(RwB97XD) =  -3007.88156469     A.U. after   19 cycles

 Excitation energies and oscillator strengths:

 Excited State   1:      Singlet-A      1.6697 eV  742.56 nm  f=0.3874  <S**2>=0.000
     245 -> 248       -0.18687
     246 -> 247        0.68256
     245 <- 248       -0.11590
 This state for optimization and/or second-order correction.
 Total Energy, E(TD-HF/TD-DFT) =  -3007.82020482
 Copying the excited state density for this state as the 1-particle RhoCI density.

 Excited State   2:      Singlet-A      2.1542 eV  575.56 nm  f=0.1195  <S**2>=0.000
     245 -> 247        0.64314
     246 -> 248        0.27908

 Excited State   3:      Singlet-A      3.4443 eV  359.97 nm  f=0.0904  <S**2>=0.000
     239 -> 247       -0.11717
     240 -> 247       -0.31838
     240 -> 249        0.20912
     240 -> 250       -0.10427
     241 -> 247        0.18708
     242 -> 247       -0.19408
     243 -> 247        0.34896
     246 -> 248        0.30306

 Excited State   4:      Singlet-A      3.5028 eV  353.96 nm  f=0.0051  <S**2>=0.000
     239 -> 247        0.10061
     240 -> 247        0.41194
     240 -> 249       -0.26595
     240 -> 250        0.12648
     241 -> 247        0.20892
     242 -> 247       -0.14235
     243 -> 247        0.36205

 Excited State   5:      Singlet-A      3.5718 eV  347.12 nm  f=0.3424  <S**2>=0.000
     241 -> 247        0.19489
     241 -> 249        0.10816
     241 -> 250        0.11778
     243 -> 247       -0.36051
     245 -> 247       -0.20040
     246 -> 248        0.46324

 The electronic state is 1-A.
 Alpha  occ. eigenvalues --  -46.94696 -19.32297 -19.30810 -19.25397 -19.24255
 Alpha  occ. eigenvalues --  -19.23940 -19.23389 -14.46229 -14.46196 -14.43802
 Alpha  occ. eigenvalues --  -14.43710 -10.44080 -10.42860 -10.39027 -10.38983
 Alpha  occ. eigenvalues --  -10.37223 -10.34927 -10.34814 -10.34459 -10.34274
 Alpha  occ. eigenvalues --  -10.33875 -10.33477 -10.33451 -10.33391 -10.32769
 Alpha  occ. eigenvalues --  -10.32591 -10.32069 -10.31693 -10.31467 -10.31380
 Alpha  occ. eigenvalues --  -10.31322 -10.31243 -10.31237 -10.31115 -10.30981
 Alpha  occ. eigenvalues --  -10.30826 -10.30812 -10.30673 -10.30652 -10.30602
 Alpha  occ. eigenvalues --  -10.30557 -10.30547 -10.30514 -10.30277 -10.30207
 Alpha  occ. eigenvalues --  -10.30134 -10.29687 -10.29586 -10.29540 -10.29400
 Alpha  occ. eigenvalues --  -10.29346 -10.29234 -10.29228 -10.29218 -10.29189
 Alpha  occ. eigenvalues --  -10.28777 -10.28726 -10.28645 -10.28577 -10.28273
 Alpha  occ. eigenvalues --  -10.28248 -10.28151 -10.28105 -10.28084 -10.28071
 Alpha  occ. eigenvalues --  -10.28005  -3.20783  -1.94363  -1.93927  -1.93757
 Alpha  occ. eigenvalues --   -1.19918  -1.18247  -1.10957  -1.10312  -1.10110
 Alpha  occ. eigenvalues --   -1.09167  -1.07364  -1.06388  -1.05484  -1.04540
 Alpha  occ. eigenvalues --   -0.95092  -0.92920  -0.91938  -0.91629  -0.91124
 Alpha  occ. eigenvalues --   -0.90544  -0.90526  -0.89592  -0.89188  -0.88776
 Alpha  occ. eigenvalues --   -0.88533  -0.87484  -0.86368  -0.85588  -0.85338
 Alpha  occ. eigenvalues --   -0.84610  -0.83772  -0.83171  -0.82745  -0.82465
 Alpha  occ. eigenvalues --   -0.82218  -0.80406  -0.80173  -0.79143  -0.78479
 Alpha  occ. eigenvalues --   -0.78119  -0.77368  -0.76893  -0.76419  -0.76262
 Alpha  occ. eigenvalues --   -0.75847  -0.75107  -0.73622  -0.72954  -0.72077
 Alpha  occ. eigenvalues --   -0.70901  -0.70094  -0.69154  -0.68925  -0.67699
 Alpha  occ. eigenvalues --   -0.67284  -0.67117  -0.66484  -0.66408  -0.65943
 Alpha  occ. eigenvalues --   -0.65831  -0.65169  -0.64153  -0.63891  -0.62641
 Alpha  occ. eigenvalues --   -0.62119  -0.61783  -0.61280  -0.60662  -0.60076
 Alpha  occ. eigenvalues --   -0.59751  -0.59357  -0.58041  -0.57775  -0.57638
 Alpha  occ. eigenvalues --   -0.57076  -0.56733  -0.56597  -0.56496  -0.56024
 Alpha  occ. eigenvalues --   -0.55876  -0.55286  -0.55116  -0.54979  -0.54513
 Alpha  occ. eigenvalues --   -0.54425  -0.54141  -0.54117  -0.53805  -0.53646
 Alpha  occ. eigenvalues --   -0.53379  -0.53142  -0.53011  -0.52813  -0.52708
 Alpha  occ. eigenvalues --   -0.52443  -0.52214  -0.51797  -0.51676  -0.51551
 Alpha  occ. eigenvalues --   -0.51118  -0.51073  -0.50906  -0.50716  -0.50500
 Alpha  occ. eigenvalues --   -0.50399  -0.50299  -0.50099  -0.49884  -0.49662
 Alpha  occ. eigenvalues --   -0.49501  -0.49332  -0.49209  -0.48862  -0.48686
 Alpha  occ. eigenvalues --   -0.48501  -0.48123  -0.48063  -0.47884  -0.47766
 Alpha  occ. eigenvalues --   -0.47541  -0.47355  -0.47241  -0.47188  -0.47073
 Alpha  occ. eigenvalues --   -0.46785  -0.46405  -0.46341  -0.46240  -0.46118
 Alpha  occ. eigenvalues --   -0.45714  -0.45559  -0.45414  -0.45242  -0.45094
 Alpha  occ. eigenvalues --   -0.44632  -0.44407  -0.44383  -0.44082  -0.43853
 Alpha  occ. eigenvalues --   -0.43722  -0.43442  -0.43214  -0.42999  -0.42878
 Alpha  occ. eigenvalues --   -0.42641  -0.42490  -0.42420  -0.42326  -0.42024
 Alpha  occ. eigenvalues --   -0.41761  -0.41440  -0.41311  -0.40612  -0.40304
 Alpha  occ. eigenvalues --   -0.40263  -0.40027  -0.39863  -0.39795  -0.39188
 Alpha  occ. eigenvalues --   -0.38885  -0.38783  -0.38635  -0.38371  -0.38356
 Alpha  occ. eigenvalues --   -0.37943  -0.37528  -0.36656  -0.36473  -0.36136
 Alpha  occ. eigenvalues --   -0.36022  -0.35819  -0.35312  -0.33369  -0.33017
 Alpha  occ. eigenvalues --   -0.32486  -0.32389  -0.31948  -0.31792  -0.25688
 Alpha  occ. eigenvalues --   -0.22824
 Alpha virt. eigenvalues --   -0.06842   0.00520   0.02354   0.04433   0.05060
 Alpha virt. eigenvalues --    0.05812   0.06949   0.07543   0.08370   0.09645
 Alpha virt. eigenvalues --    0.10961   0.11613   0.11901   0.12140   0.12652

 Mulliken charges:
               1
     1  Mg   0.959236
     2  C   -0.023447
     3  C   -0.085229
     4  C   -0.072295
     5  C   -0.113757
     6  N   -0.291513
     7  C   -0.031022
     8  C   -0.082995
     9  C   -0.127989
    10  C    0.064383
    11  C    0.044267
    12  C    0.021107
    13  C    0.009923
    14  C    0.220186
    15  O   -0.282830
    16  O   -0.332983
    17  N   -0.487839
    18  C    0.155788
    19  C   -0.151648
    20  C   -0.058573
    21  C    0.161798
    22  C    0.064181
    23  C    0.033499
    24  O   -0.267083
    25  C   -0.000098
    26  N   -0.368551
    27  C    0.056364
    28  C   -0.141338
    29  C   -0.072360
    30  C    0.073029
    31  C    0.043194
    32  C    0.005968
    33  C   -0.054092
    34  N   -0.401682
    35  C    0.136600
    36  C   -0.207620
    37  C   -0.022760
    38  C    0.110310
    39  C    0.091074
    40  C    0.134618
    41  O   -0.218771
    42  C   -0.046323
    43  C    0.252651
    44  O   -0.260789
    45  O   -0.348036
    46  C    0.136363
    47  C    0.244626
    48  C   -0.144361
    49  C   -0.179436
    50  C    0.033185
    51  C    0.026450
    52  C   -0.049821
    53  C    0.043099
    54  C   -0.162561
    55  C   -0.004243
    56  C   -0.012187
    57  C   -0.068420
    58  C    0.038490
    59  C   -0.159573
    60  C   -0.007832
    61  C    0.038837
    62  C   -0.034040
    63  C    0.051381
    64  C   -0.213405
    65  C   -0.013487
    66  C   -0.002604
    67  H   -0.010799
    68  H    0.023087
    69  H   -0.001239
    70  H    0.050518
    71  H    0.026234
    72  H    0.048625
    73  H    0.047301
    74  H    0.029487
    75  H    0.030780
    76  H    0.040640
    77  H    0.055334
    78  H    0.046296
    79  H    0.043811
    80  H    0.050097
    81  H    0.023360
    82  H    0.054788
    83  H    0.050984
    84  H    0.060033
    85  H    0.027987
    86  H    0.014697
    87  H    0.034994
    88  H    0.040505
    89  H    0.056393
    90  H    0.031508
    91  H    0.021962
    92  H    0.059744
    93  H    0.058403
    94  H    0.026450
    95  H    0.068996
    96  H    0.057462
    97  H    0.056700
    98  H    0.079070
    99  H    0.060162
   100  H    0.055643
   101  H    0.058744
   102  H    0.055825
   103  H    0.063378
   104  H    0.032121
   105  H    0.013210
   106  H    0.054766
   107  H    0.055093
   108  H    0.017037
   109  H    0.046390
   110  H    0.023352
   111  H    0.009859
   112  H    0.012363
   113  H    0.005866
   114  H    0.009116
   115  H    0.015737
   116  H    0.025591
   117  H    0.034403
   118  H    0.003789
   119  H    0.018297
   120  H    0.012716
   121  H    0.019303
   122  H    0.007607
   123  H    0.007602
   124  H    0.034112
   125  H    0.023059
   126  H    0.010653
   127  H    0.032595
   128  H    0.011703
   129  H    0.009450
   130  H    0.006117
   131  H    0.010668
   132  H   -0.004123
   133  H    0.018469
   134  H    0.019783
   135  H    0.020247
   136  H    0.027645
   137  H    0.031857
   138  H    0.029765
   139  H    0.039199
   140  H    0.009605
 Sum of Mulliken charges =  -0.00000

 Dipole moment (field-independent basis, Debye):
    X=             -4.0121    Y=              2.9721    Z=              3.4612  Tot=              6.0753
 Quadrupole moment (field-independent basis, Debye-Ang):
   XX=           -382.6171   YY=           -415.5814   ZZ=           -404.6711
   XY=             -0.8991   XZ=             24.9137   YZ=             -7.9665

 Normal termination of Gaussian 16 at Wed May  4 08:14:25 2022.
