 Gaussian 16, Revision A.03,
 Gaussian 16:  ES64L-G16RevA.03 25-Dec-2016

 --------------------
 #p ZINDO=(nstates=5)
 --------------------

 ------------------------------
 step_1501_chromophore_16 ZINDO
 ------------------------------
 Symbolic Z-matrix:
 Charge =  0 Multiplicity = 1

                         Standard orientation:
 ---------------------------------------------------------------------
 Center     Atomic      Atomic             Coordinates (Angstroms)
 Number     Number       Type             X           Y           Z
 ---------------------------------------------------------------------
      1         12           0        5.994066    0.539994    0.149854
      2          6           0        3.775041   -2.281429   -0.295855
      3          6           0        3.644448    2.472015   -0.905620
      4          6           0        8.276851    2.902618    0.330158
      5          6           0        8.443665   -1.935599    0.991339
      6          7           0        4.008355    0.013939   -0.759500
      7          6           0        3.245841   -1.051800   -0.634365
      8          6           0        1.771520   -0.769571   -0.798882
      9          6           0        1.825378    0.781512   -1.162505
     10          6           0        3.306231    1.145455   -0.893131
     11          6           0        1.240947    1.239724   -2.507791
     12          6           0        0.822059   -1.194500    0.311730
     13          6           0       -0.627332   -0.764556    0.169233
     14          6           0       -1.720617   -1.840509    0.039057
     15          8           0       -1.995772   -2.312706   -1.075770
     16          8           0       -2.535319   -1.742868    1.100729
     17          7           0        5.975792    2.504626   -0.207282
     18          6           0        4.861939    3.127174   -0.678485
     19          6           0        5.197258    4.521842   -0.836400
     20          6           0        6.593873    4.623716   -0.600329
     21          6           0        7.016580    3.313333   -0.124110
     22          6           0        4.263373    5.589078   -1.320479
     23          6           0        7.500599    5.830039   -0.798470
     24          8           0        8.742099    5.701930   -0.679986
     25          6           0        6.945586    7.191503   -1.278551
     26          7           0        8.014409    0.477692    0.626230
     27          6           0        8.695424    1.644148    0.744928
     28          6           0       10.090759    1.378516    1.237882
     29          6           0       10.061212   -0.068542    1.806904
     30          6           0        8.814685   -0.561307    1.057391
     31          6           0       11.147191    1.747135    0.140396
     32          6           0       10.001358   -0.140184    3.341508
     33          6           0        8.826734    0.695249    3.886211
     34          7           0        6.150692   -1.584846    0.324063
     35          6           0        7.209815   -2.448078    0.598905
     36          6           0        6.871394   -3.848721    0.468854
     37          6           0        5.509672   -3.825361    0.183977
     38          6           0        5.126462   -2.472578    0.091094
     39          6           0        7.800660   -5.050055    0.705179
     40          6           0        4.347051   -4.634908   -0.005299
     41          8           0        4.152062   -5.858737    0.085318
     42          6           0        3.185044   -3.663056   -0.248894
     43          6           0        2.322250   -3.970845   -1.427377
     44          8           0        2.521757   -3.560103   -2.573367
     45          8           0        1.279225   -4.731623   -1.031401
     46          6           0        0.244551   -4.973366   -2.087813
     47          6           0       -3.822231   -2.475139    0.970421
     48          6           0       -4.762217   -1.696468    0.049447
     49          6           0       -5.876109   -2.210532   -0.492187
     50          6           0       -6.592175   -3.532247   -0.167121
     51          6           0       -6.530227   -1.450025   -1.591337
     52          6           0       -6.919495    0.035621   -1.487304
     53          6           0       -7.688803    0.351020   -0.226400
     54          6           0       -8.753102    1.492103   -0.341511
     55          6           0       -8.294193    2.851863    0.155077
     56          6           0      -10.102402    1.099133    0.302084
     57          6           0      -11.149807    0.534434   -0.713559
     58          6           0      -12.229390    1.499405   -1.111167
     59          6           0      -13.559905    0.741543   -1.421791
     60          6           0      -13.962761    1.148933   -2.889666
     61          6           0      -14.646518    1.224836   -0.404703
     62          6           0      -14.788100    0.221462    0.775454
     63          6           0      -13.741423    0.406157    1.879985
     64          6           0      -14.118953    1.531915    2.900169
     65          6           0      -14.781462    0.986328    4.175047
     66          6           0      -12.967771    2.491567    3.221254
     67          1           0        2.847070    3.169299   -1.172437
     68          1           0        9.060665    3.637071    0.528120
     69          1           0        9.237819   -2.670417    1.140935
     70          1           0        1.518668   -1.357386   -1.681585
     71          1           0        1.277896    1.224344   -0.329786
     72          1           0        0.841701    0.346587   -2.987051
     73          1           0        2.037800    1.771723   -3.026058
     74          1           0        0.385948    1.911845   -2.428047
     75          1           0        1.296292   -0.831672    1.223581
     76          1           0        0.766104   -2.281625    0.357786
     77          1           0       -0.795264   -0.101429   -0.679064
     78          1           0       -0.803725   -0.110356    1.023601
     79          1           0        4.566585    5.957923   -2.301190
     80          1           0        4.129024    6.485202   -0.714462
     81          1           0        3.285965    5.135658   -1.482714
     82          1           0        7.805910    7.860356   -1.298814
     83          1           0        6.295928    7.657589   -0.537688
     84          1           0        6.426109    6.973883   -2.211767
     85          1           0       10.409008    1.974988    2.093066
     86          1           0       10.914063   -0.654256    1.463502
     87          1           0       11.673174    0.840935   -0.159813
     88          1           0       11.805199    2.472521    0.619263
     89          1           0       10.645856    2.213012   -0.707793
     90          1           0       10.990343    0.125299    3.716663
     91          1           0        9.981030   -1.193493    3.619791
     92          1           0        8.086929    0.076529    4.394522
     93          1           0        8.468247    1.495494    3.239054
     94          1           0        9.391124    1.312992    4.584886
     95          1           0        7.203909   -5.945829    0.531563
     96          1           0        8.091236   -4.900152    1.744809
     97          1           0        8.646267   -4.992207    0.019687
     98          1           0        2.507352   -3.663304    0.604150
     99          1           0        0.101236   -4.121628   -2.752618
    100          1           0       -0.722258   -5.099181   -1.600716
    101          1           0        0.391338   -5.807733   -2.773595
    102          1           0       -4.272810   -2.519730    1.961938
    103          1           0       -3.784715   -3.523489    0.673307
    104          1           0       -4.487878   -0.675774   -0.215382
    105          1           0       -5.992053   -4.075349    0.563290
    106          1           0       -6.690423   -4.129213   -1.074010
    107          1           0       -7.576981   -3.423971    0.287505
    108          1           0       -7.487132   -1.904257   -1.849405
    109          1           0       -5.893177   -1.375039   -2.471886
    110          1           0       -7.407545    0.431135   -2.378709
    111          1           0       -5.998615    0.619730   -1.480579
    112          1           0       -7.041138    0.635471    0.602655
    113          1           0       -8.179032   -0.552096    0.137020
    114          1           0       -8.980555    1.715337   -1.384339
    115          1           0       -7.376510    3.057935   -0.396667
    116          1           0       -8.007248    2.878415    1.206254
    117          1           0       -8.997014    3.661095   -0.042339
    118          1           0      -10.489503    2.016728    0.745001
    119          1           0      -10.060783    0.326295    1.069775
    120          1           0      -11.612303   -0.303541   -0.192628
    121          1           0      -10.514035    0.168351   -1.520578
    122          1           0      -11.772157    2.066199   -1.922613
    123          1           0      -12.300588    2.265661   -0.338620
    124          1           0      -13.379148   -0.331142   -1.488592
    125          1           0      -14.388197    0.346377   -3.492499
    126          1           0      -13.037809    1.333060   -3.434890
    127          1           0      -14.569243    2.048364   -2.992272
    128          1           0      -15.572960    1.494643   -0.910836
    129          1           0      -14.462362    2.179394    0.087833
    130          1           0      -14.721220   -0.785782    0.363262
    131          1           0      -15.806351    0.226177    1.164792
    132          1           0      -12.798070    0.684699    1.411495
    133          1           0      -13.554142   -0.564753    2.338045
    134          1           0      -14.986746    2.134442    2.633093
    135          1           0      -15.305989    0.044463    4.012086
    136          1           0      -15.615852    1.624785    4.466042
    137          1           0      -13.960266    0.867032    4.882133
    138          1           0      -12.904483    3.428705    2.668463
    139          1           0      -11.985108    2.019996    3.258731
    140          1           0      -13.183113    2.890114    4.211889
 ---------------------------------------------------------------------

 SCF Done:  E(RZINDO/S) =  -474.617453215     A.U. after   19 cycles

 Excitation energies and oscillator strengths:

 Excited State   1:      Singlet-A      1.2512 eV  990.92 nm  f=0.6017  <S**2>=0.000
     175 ->178         0.19790
     176 ->177         0.66182
 This state for optimization and/or second-order correction.
 Total Energy, E(CIS/TDA) =  -474.571472274
 Copying the excited state density for this state as the 1-particle RhoCI density.

 Excited State   2:      Singlet-A      1.8947 eV  654.38 nm  f=0.0594  <S**2>=0.000
     175 ->177         0.56262
     176 ->178        -0.40179

 Excited State   3:      Singlet-A      2.9276 eV  423.51 nm  f=0.1644  <S**2>=0.000
     168 ->177         0.30390
     168 ->179        -0.35564
     168 ->181         0.17501
     168 ->186        -0.15151
     169 ->177        -0.15388
     169 ->179         0.14306
     175 ->177         0.14279
     176 ->178         0.22827
     176 ->179         0.11376

 Excited State   4:      Singlet-A      2.9872 eV  415.05 nm  f=0.5818  <S**2>=0.000
     168 ->177        -0.16394
     168 ->179         0.17823
     168 ->181        -0.12002
     170 ->181        -0.10812
     175 ->177         0.26923
     176 ->178         0.41625
     176 ->179         0.28368

 Excited State   5:      Singlet-A      3.0075 eV  412.26 nm  f=0.0190  <S**2>=0.000
     169 ->177         0.11433
     169 ->179         0.12456
     169 ->181         0.18079
     170 ->177         0.23708
     170 ->179         0.24262
     170 ->181         0.38762
     170 ->186         0.17356
     170 ->187         0.14173
     176 ->179         0.20657

 The electronic state is 1-A.
 Alpha  occ. eigenvalues --   -1.85571  -1.84097  -1.82601  -1.74190  -1.73134
 Alpha  occ. eigenvalues --   -1.71907  -1.66837  -1.61343  -1.58772  -1.55730
 Alpha  occ. eigenvalues --   -1.54884  -1.51560  -1.49834  -1.48817  -1.46561
 Alpha  occ. eigenvalues --   -1.44561  -1.43158  -1.40396  -1.39537  -1.38351
 Alpha  occ. eigenvalues --   -1.36532  -1.34208  -1.33793  -1.31898  -1.29877
 Alpha  occ. eigenvalues --   -1.29119  -1.25347  -1.22575  -1.20532  -1.19035
 Alpha  occ. eigenvalues --   -1.17874  -1.15721  -1.15449  -1.14552  -1.13513
 Alpha  occ. eigenvalues --   -1.11569  -1.11060  -1.10606  -1.05011  -1.04567
 Alpha  occ. eigenvalues --   -1.03578  -1.01261  -0.99256  -0.99171  -0.97288
 Alpha  occ. eigenvalues --   -0.96572  -0.94805  -0.94083  -0.93005  -0.92795
 Alpha  occ. eigenvalues --   -0.91329  -0.90634  -0.90378  -0.88300  -0.86183
 Alpha  occ. eigenvalues --   -0.85825  -0.84093  -0.82835  -0.81762  -0.80170
 Alpha  occ. eigenvalues --   -0.79183  -0.78158  -0.77496  -0.77060  -0.76515
 Alpha  occ. eigenvalues --   -0.75568  -0.75183  -0.74717  -0.74635  -0.74100
 Alpha  occ. eigenvalues --   -0.73165  -0.72596  -0.72039  -0.71791  -0.71217
 Alpha  occ. eigenvalues --   -0.70323  -0.68983  -0.68665  -0.68027  -0.67658
 Alpha  occ. eigenvalues --   -0.67363  -0.66819  -0.66340  -0.66184  -0.65486
 Alpha  occ. eigenvalues --   -0.64842  -0.64571  -0.64366  -0.64036  -0.63754
 Alpha  occ. eigenvalues --   -0.63150  -0.62801  -0.62320  -0.62248  -0.62017
 Alpha  occ. eigenvalues --   -0.61498  -0.61011  -0.60288  -0.60244  -0.59699
 Alpha  occ. eigenvalues --   -0.59260  -0.59169  -0.58767  -0.58598  -0.58049
 Alpha  occ. eigenvalues --   -0.57801  -0.57538  -0.57046  -0.56569  -0.56440
 Alpha  occ. eigenvalues --   -0.56220  -0.55292  -0.55133  -0.54687  -0.54412
 Alpha  occ. eigenvalues --   -0.54292  -0.54106  -0.53436  -0.53175  -0.52711
 Alpha  occ. eigenvalues --   -0.52550  -0.52107  -0.51809  -0.51665  -0.51257
 Alpha  occ. eigenvalues --   -0.50894  -0.50796  -0.50588  -0.50337  -0.49962
 Alpha  occ. eigenvalues --   -0.49807  -0.49727  -0.49305  -0.49148  -0.48864
 Alpha  occ. eigenvalues --   -0.48539  -0.48453  -0.48237  -0.47808  -0.47620
 Alpha  occ. eigenvalues --   -0.47326  -0.47092  -0.46836  -0.46545  -0.46435
 Alpha  occ. eigenvalues --   -0.46294  -0.45729  -0.45426  -0.45343  -0.44971
 Alpha  occ. eigenvalues --   -0.44893  -0.44357  -0.43925  -0.43804  -0.43531
 Alpha  occ. eigenvalues --   -0.43021  -0.42664  -0.42505  -0.42240  -0.42078
 Alpha  occ. eigenvalues --   -0.41590  -0.41441  -0.41078  -0.39299  -0.38694
 Alpha  occ. eigenvalues --   -0.38269  -0.37111  -0.35720  -0.34985  -0.34734
 Alpha  occ. eigenvalues --   -0.33673  -0.32422  -0.32123  -0.32085  -0.26318
 Alpha  occ. eigenvalues --   -0.21621
 Alpha virt. eigenvalues --   -0.08358  -0.01781  -0.00529  -0.00113   0.01412
 Alpha virt. eigenvalues --    0.02472   0.02788   0.03104   0.04638   0.05134
 Alpha virt. eigenvalues --    0.06593   0.07210   0.07800   0.08106   0.08443

 Mulliken charges:
               1
     1  Mg   0.432845
     2  C   -0.060058
     3  C   -0.067137
     4  C   -0.065469
     5  C   -0.076494
     6  N   -0.264711
     7  C    0.161440
     8  C   -0.003943
     9  C   -0.009664
    10  C    0.116205
    11  C   -0.048485
    12  C   -0.012026
    13  C    0.004839
    14  C    0.466310
    15  O   -0.514898
    16  O   -0.251196
    17  N   -0.304692
    18  C    0.083168
    19  C   -0.003269
    20  C   -0.057284
    21  C    0.141705
    22  C   -0.044437
    23  C    0.312920
    24  O   -0.541447
    25  C   -0.033721
    26  N   -0.273256
    27  C    0.134509
    28  C   -0.001419
    29  C    0.004684
    30  C    0.135524
    31  C   -0.053039
    32  C   -0.019612
    33  C   -0.061268
    34  N   -0.350713
    35  C    0.115253
    36  C    0.041584
    37  C   -0.040292
    38  C    0.116955
    39  C   -0.037368
    40  C    0.341607
    41  O   -0.527017
    42  C    0.059451
    43  C    0.493212
    44  O   -0.532589
    45  O   -0.251728
    46  C    0.070573
    47  C    0.102777
    48  C   -0.076709
    49  C   -0.002370
    50  C   -0.040683
    51  C   -0.022063
    52  C   -0.027172
    53  C   -0.028450
    54  C   -0.012112
    55  C   -0.053039
    56  C   -0.046800
    57  C   -0.043181
    58  C   -0.031651
    59  C   -0.004650
    60  C   -0.068633
    61  C   -0.032612
    62  C   -0.033636
    63  C   -0.027240
    64  C   -0.014878
    65  C   -0.059712
    66  C   -0.057799
    67  H    0.022019
    68  H    0.042571
    69  H    0.024439
    70  H    0.042002
    71  H    0.014945
    72  H    0.030015
    73  H    0.031251
    74  H    0.017842
    75  H    0.022637
    76  H    0.024341
    77  H    0.043570
    78  H    0.024302
    79  H    0.026274
    80  H    0.030941
    81  H    0.015641
    82  H    0.039537
    83  H    0.033405
    84  H    0.047444
    85  H    0.022169
    86  H    0.019448
    87  H    0.022095
    88  H    0.024033
    89  H    0.034646
    90  H    0.019322
    91  H    0.014788
    92  H    0.033441
    93  H    0.040787
    94  H    0.009971
    95  H    0.041057
    96  H    0.037650
    97  H    0.037585
    98  H    0.054169
    99  H    0.044952
   100  H    0.032241
   101  H    0.048827
   102  H    0.031560
   103  H    0.057686
   104  H    0.043356
   105  H    0.013539
   106  H    0.031327
   107  H    0.032977
   108  H    0.010923
   109  H    0.026771
   110  H    0.022711
   111  H    0.008954
   112  H    0.017174
   113  H    0.014752
   114  H    0.017280
   115  H    0.005853
   116  H    0.016513
   117  H    0.019699
   118  H    0.014141
   119  H    0.017956
   120  H    0.011890
   121  H    0.022127
   122  H    0.016534
   123  H    0.020860
   124  H    0.038329
   125  H    0.014246
   126  H    0.008158
   127  H    0.024240
   128  H    0.016358
   129  H    0.018608
   130  H    0.007803
   131  H    0.014389
   132  H    0.020427
   133  H    0.019667
   134  H    0.022744
   135  H    0.011945
   136  H    0.019632
   137  H    0.023942
   138  H    0.019892
   139  H    0.022998
   140  H    0.006750
 Sum of Mulliken charges =  -0.00000

 Dipole moment (field-independent basis, Debye):
    X=             -4.3867    Y=              3.6772    Z=              5.7635  Tot=              8.1230
 N-N= 4.291557087831D+03 E-N= 0.000000000000D+00  KE=-9.257899688553D+03
 Leave Link  601 at Wed May  4 08:26:32 2022, MaxMem=  6710886400 cpu:               1.3 elap:               0.1
 (Enter /sw/apps/gaussian-16.0/g16/l9999.exe)
 1\1\GINC-BP1-COMPUTE062\SP\RZINDO CIS\STO-3G\C55H74Mg1N4O6\OF15641\04-
 May-2022\0\\#p ZINDO=(nstates=5)\\step_1501_chromophore_16 ZINDO\\0,1\
 Mg,0,40.24,41.604,27.102\C,0,39.561,44.057,29.672\C,0,41.245,39.577,29
 .393\C,0,41.075,39.659,24.583\C,0,39.329,44.216,24.825\N,0,40.593,41.9
 77,29.289\C,0,40.072,42.855,30.12\C,0,40.008,42.377,31.551\C,0,40.733,
 40.965,31.404\C,0,40.852,40.799,29.869\C,0,42.008,40.707,32.222\C,0,38
 .665,42.402,32.266\C,0,38.62,41.781,33.651\C,0,38.275,42.668,34.861\O,

 Normal termination of Gaussian 16 at Wed May  4 08:26:32 2022.
