 Gaussian 16, Revision A.03,
 Gaussian 16:  ES64L-G16RevA.03 25-Dec-2016

 ------------------------------
 #p blyp/Def2SVP td=(nstates=5)
 ------------------------------

 -------------------------------------------------
 step_101_chromophore_2 TDDFT with blyp functional
 -------------------------------------------------
 Symbolic Z-matrix:
 Charge =  0 Multiplicity = 1

                         Standard orientation:
 ---------------------------------------------------------------------
 Center     Atomic      Atomic             Coordinates (Angstroms)
 Number     Number       Type             X           Y           Z
 ---------------------------------------------------------------------
      1         12           0        4.699591    1.313430   -0.416995
      2          6           0        5.237041   -2.040068   -0.662168
      3          6           0        2.478477    1.055876   -3.119760
      4          6           0        3.548512    4.469345    0.277245
      5          6           0        6.647788    1.384093    2.458248
      6          7           0        3.860405   -0.411396   -1.654290
      7          6           0        4.248897   -1.653340   -1.600441
      8          6           0        3.463031   -2.585800   -2.540148
      9          6           0        2.918132   -1.499059   -3.552341
     10          6           0        3.080065   -0.177990   -2.741101
     11          6           0        3.569358   -1.486035   -4.868469
     12          6           0        2.419787   -3.492364   -1.873735
     13          6           0        1.661283   -3.085934   -0.574615
     14          6           0        0.430677   -4.043794   -0.225534
     15          8           0        0.064097   -5.023737   -0.871083
     16          8           0       -0.121257   -3.703856    0.989816
     17          7           0        3.220058    2.646783   -1.296318
     18          6           0        2.564875    2.357930   -2.533815
     19          6           0        1.864187    3.566303   -2.955868
     20          6           0        2.165040    4.527569   -2.029648
     21          6           0        3.058853    3.928571   -0.949313
     22          6           0        0.928229    3.591447   -4.208756
     23          6           0        1.799022    6.093644   -2.101664
     24          8           0        1.193795    6.455818   -3.075783
     25          6           0        2.183165    7.144728   -1.050910
     26          7           0        4.837066    2.583610    1.252231
     27          6           0        4.316850    3.866462    1.300493
     28          6           0        4.921029    4.680635    2.530508
     29          6           0        5.859956    3.635430    3.257152
     30          6           0        5.848100    2.506913    2.223268
     31          6           0        5.473855    6.037785    2.218535
     32          6           0        5.362858    3.270623    4.691633
     33          6           0        6.577159    3.126700    5.553141
     34          7           0        5.952989    0.041471    0.570841
     35          6           0        6.785219    0.255256    1.651851
     36          6           0        7.492620   -0.977450    1.941356
     37          6           0        6.978882   -1.890473    0.969720
     38          6           0        5.962793   -1.233791    0.247654
     39          6           0        8.456578   -1.204619    3.060298
     40          6           0        7.002436   -3.247102    0.487104
     41          8           0        7.712255   -4.157411    0.913824
     42          6           0        5.862901   -3.408823   -0.579297
     43          6           0        6.422089   -3.986529   -1.835121
     44          8           0        6.694103   -5.149594   -2.056511
     45          8           0        6.594407   -2.997513   -2.740378
     46          6           0        7.260730   -3.495710   -3.992954
     47          6           0       -1.411385   -4.415709    1.364801
     48          6           0       -2.472309   -3.359344    1.677003
     49          6           0       -3.450881   -3.263373    2.595286
     50          6           0       -3.827231   -4.421988    3.532051
     51          6           0       -4.409724   -2.057722    2.587261
     52          6           0       -5.437081   -2.047291    1.448577
     53          6           0       -6.874849   -2.380100    2.079077
     54          6           0       -7.554903   -1.085984    2.722733
     55          6           0       -7.519428   -1.314075    4.226813
     56          6           0       -8.932204   -0.896170    2.196948
     57          6           0       -9.328494    0.546030    1.807566
     58          6           0       -9.364267    0.800843    0.270931
     59          6           0      -10.656731    0.217667   -0.501616
     60          6           0      -10.353385   -0.055431   -1.943624
     61          6           0      -11.838897    1.246864   -0.193314
     62          6           0      -13.303163    0.610332   -0.285297
     63          6           0      -14.112974    0.846950   -1.568891
     64          6           0      -15.590539    1.304585   -1.116898
     65          6           0      -16.547097    0.213491   -0.669206
     66          6           0      -16.212107    2.211481   -2.126907
     67          1           0        1.836571    0.911214   -3.990501
     68          1           0        3.119408    5.411470    0.624692
     69          1           0        7.290272    1.394769    3.341076
     70          1           0        4.073433   -3.362613   -3.000034
     71          1           0        1.837149   -1.608935   -3.646997
     72          1           0        4.454289   -2.094157   -5.057344
     73          1           0        3.820298   -0.466779   -5.161404
     74          1           0        2.809724   -1.881663   -5.542229
     75          1           0        2.881851   -4.473986   -1.768490
     76          1           0        1.694090   -3.705720   -2.658982
     77          1           0        1.241438   -2.081871   -0.636885
     78          1           0        2.318038   -3.026604    0.293312
     79          1           0        0.189113    4.382643   -4.084213
     80          1           0        0.204604    2.783291   -4.312603
     81          1           0        1.494807    3.802127   -5.115256
     82          1           0        1.696605    8.103842   -1.227607
     83          1           0        3.224183    7.465132   -1.071488
     84          1           0        1.955809    6.868221   -0.021725
     85          1           0        3.997751    4.851802    3.084306
     86          1           0        6.897424    3.965948    3.298816
     87          1           0        4.855072    6.816539    2.665932
     88          1           0        5.517720    6.187507    1.139672
     89          1           0        6.474188    6.118071    2.642051
     90          1           0        4.824540    2.324113    4.744743
     91          1           0        4.755346    4.061169    5.131619
     92          1           0        7.554741    3.289464    5.099292
     93          1           0        6.569875    2.089762    5.887606
     94          1           0        6.378692    3.786606    6.397800
     95          1           0        8.653536   -2.272210    3.158560
     96          1           0        8.069481   -0.796637    3.994600
     97          1           0        9.309389   -0.577091    2.799018
     98          1           0        5.185360   -4.126221   -0.116042
     99          1           0        7.696441   -2.705605   -4.604822
    100          1           0        6.637418   -4.164004   -4.588005
    101          1           0        8.143486   -4.031688   -3.646089
    102          1           0       -1.222923   -5.098000    2.193847
    103          1           0       -1.794589   -5.156019    0.662620
    104          1           0       -2.268862   -2.504940    1.030094
    105          1           0       -4.913050   -4.515025    3.527407
    106          1           0       -3.402799   -4.236901    4.519450
    107          1           0       -3.316573   -5.358464    3.310747
    108          1           0       -3.821215   -1.152100    2.443276
    109          1           0       -4.854646   -1.921809    3.572985
    110          1           0       -5.206842   -2.718720    0.620279
    111          1           0       -5.373899   -1.058421    0.994992
    112          1           0       -6.730594   -3.248715    2.722665
    113          1           0       -7.379525   -2.854286    1.236683
    114          1           0       -6.985881   -0.171343    2.557116
    115          1           0       -6.657684   -0.894423    4.746763
    116          1           0       -7.303982   -2.364649    4.421561
    117          1           0       -8.352807   -0.808090    4.714940
    118          1           0       -9.643845   -1.311874    2.910536
    119          1           0       -9.082418   -1.471420    1.283231
    120          1           0       -8.704686    1.341364    2.214188
    121          1           0      -10.280642    0.850129    2.243035
    122          1           0       -8.487995    0.419459   -0.253266
    123          1           0       -9.372018    1.870916    0.063076
    124          1           0      -10.866132   -0.749234   -0.045466
    125          1           0      -11.240956   -0.283481   -2.534390
    126          1           0       -9.620813   -0.859481   -2.007488
    127          1           0       -9.843457    0.772464   -2.435923
    128          1           0      -11.800283    2.201880   -0.716543
    129          1           0      -11.855954    1.671331    0.810636
    130          1           0      -13.867087    0.761101    0.635106
    131          1           0      -13.092829   -0.451592   -0.156458
    132          1           0      -14.284907   -0.099106   -2.081326
    133          1           0      -13.719201    1.570044   -2.283295
    134          1           0      -15.437494    1.996009   -0.288221
    135          1           0      -15.902990   -0.592381   -0.318748
    136          1           0      -17.170664   -0.070633   -1.517250
    137          1           0      -17.215271    0.531506    0.130573
    138          1           0      -16.228532    3.253839   -1.809787
    139          1           0      -17.251569    1.991734   -2.372911
    140          1           0      -15.611396    2.158404   -3.034546
 ---------------------------------------------------------------------

 SCF Done:  E(RB-LYP) =  -3007.35493171     A.U. after   21 cycles

 Excitation energies and oscillator strengths:

 Excited State   1:      Singlet-A      1.8243 eV  679.63 nm  f=0.2854  <S**2>=0.000
     245 -> 248        0.20182
     246 -> 247        0.68447
     246 <- 247       -0.14419
 This state for optimization and/or second-order correction.
 Total Energy, E(TD-HF/TD-DFT) =  -3007.28789012
 Copying the excited state density for this state as the 1-particle RhoCI density.

 Excited State   2:      Singlet-A      1.8749 eV  661.28 nm  f=0.0030  <S**2>=0.000
     244 -> 247        0.69422
     245 -> 247        0.11819

 Excited State   3:      Singlet-A      1.9963 eV  621.07 nm  f=0.0107  <S**2>=0.000
     243 -> 247        0.65183
     245 -> 247       -0.24882

 Excited State   4:      Singlet-A      2.0305 eV  610.62 nm  f=0.0671  <S**2>=0.000
     243 -> 247        0.27204
     244 -> 247       -0.11000
     245 -> 247        0.58253
     246 -> 248       -0.24312

 Excited State   5:      Singlet-A      2.2371 eV  554.21 nm  f=0.0000  <S**2>=0.000
     242 -> 247        0.70709

 The electronic state is 1-A.
 Alpha  occ. eigenvalues --  -46.27732 -18.82636 -18.82285 -18.76981 -18.76262
 Alpha  occ. eigenvalues --  -18.76088 -18.75325 -14.03556 -14.03383 -14.01368
 Alpha  occ. eigenvalues --  -14.00651 -10.04575 -10.03649 -10.00751  -9.99330
 Alpha  occ. eigenvalues --   -9.98245  -9.98113  -9.96965  -9.96669  -9.96569
 Alpha  occ. eigenvalues --   -9.96542  -9.96404  -9.96095  -9.95322  -9.94428
 Alpha  occ. eigenvalues --   -9.94413  -9.94176  -9.94151  -9.94008  -9.93930
 Alpha  occ. eigenvalues --   -9.93912  -9.93896  -9.93792  -9.93768  -9.93552
 Alpha  occ. eigenvalues --   -9.93138  -9.93126  -9.93111  -9.93019  -9.92883
 Alpha  occ. eigenvalues --   -9.92679  -9.92642  -9.92634  -9.92461  -9.92458
 Alpha  occ. eigenvalues --   -9.92429  -9.92242  -9.92184  -9.92178  -9.91842
 Alpha  occ. eigenvalues --   -9.91797  -9.91775  -9.91765  -9.91697  -9.91442
 Alpha  occ. eigenvalues --   -9.91436  -9.91356  -9.91287  -9.91046  -9.90989
 Alpha  occ. eigenvalues --   -9.90968  -9.90922  -9.90886  -9.90852  -9.90697
 Alpha  occ. eigenvalues --   -9.89839  -2.92287  -1.72695  -1.72185  -1.71994
 Alpha  occ. eigenvalues --   -0.98421  -0.96809  -0.92961  -0.90648  -0.89552
 Alpha  occ. eigenvalues --   -0.89040  -0.87769  -0.86586  -0.84890  -0.84058
 Alpha  occ. eigenvalues --   -0.75793  -0.73501  -0.73015  -0.72921  -0.72387
 Alpha  occ. eigenvalues --   -0.71846  -0.71602  -0.71069  -0.70653  -0.70278
 Alpha  occ. eigenvalues --   -0.69451  -0.68575  -0.68342  -0.67798  -0.66961
 Alpha  occ. eigenvalues --   -0.66313  -0.65845  -0.65202  -0.64876  -0.64581
 Alpha  occ. eigenvalues --   -0.64270  -0.62794  -0.62490  -0.61592  -0.60993
 Alpha  occ. eigenvalues --   -0.60417  -0.60165  -0.60101  -0.59951  -0.58985
 Alpha  occ. eigenvalues --   -0.58126  -0.57532  -0.56835  -0.55962  -0.54307
 Alpha  occ. eigenvalues --   -0.53930  -0.53688  -0.52315  -0.52019  -0.51756
 Alpha  occ. eigenvalues --   -0.51405  -0.51221  -0.50501  -0.50434  -0.50376
 Alpha  occ. eigenvalues --   -0.49574  -0.49425  -0.48727  -0.48535  -0.46564
 Alpha  occ. eigenvalues --   -0.46092  -0.45881  -0.45281  -0.45122  -0.44349
 Alpha  occ. eigenvalues --   -0.44027  -0.43475  -0.43305  -0.43084  -0.42560
 Alpha  occ. eigenvalues --   -0.42273  -0.42032  -0.41627  -0.41382  -0.41070
 Alpha  occ. eigenvalues --   -0.40705  -0.40276  -0.40216  -0.40102  -0.40018
 Alpha  occ. eigenvalues --   -0.39929  -0.39860  -0.39359  -0.39172  -0.39097
 Alpha  occ. eigenvalues --   -0.38859  -0.38738  -0.38653  -0.38553  -0.38268
 Alpha  occ. eigenvalues --   -0.38165  -0.37810  -0.37537  -0.37473  -0.37306
 Alpha  occ. eigenvalues --   -0.37160  -0.37014  -0.36880  -0.36748  -0.36479
 Alpha  occ. eigenvalues --   -0.36370  -0.36178  -0.35867  -0.35694  -0.35410
 Alpha  occ. eigenvalues --   -0.35298  -0.35283  -0.35148  -0.34849  -0.34697
 Alpha  occ. eigenvalues --   -0.34601  -0.34493  -0.34437  -0.34206  -0.33968
 Alpha  occ. eigenvalues --   -0.33774  -0.33661  -0.33613  -0.33449  -0.33384
 Alpha  occ. eigenvalues --   -0.33047  -0.32915  -0.32750  -0.32650  -0.32514
 Alpha  occ. eigenvalues --   -0.32354  -0.32263  -0.31945  -0.31776  -0.31702
 Alpha  occ. eigenvalues --   -0.31575  -0.31216  -0.31074  -0.31063  -0.30796
 Alpha  occ. eigenvalues --   -0.30690  -0.30511  -0.30347  -0.30130  -0.30001
 Alpha  occ. eigenvalues --   -0.29625  -0.29328  -0.29222  -0.28662  -0.28551
 Alpha  occ. eigenvalues --   -0.28439  -0.28263  -0.28024  -0.27671  -0.27620
 Alpha  occ. eigenvalues --   -0.27397  -0.27359  -0.26900  -0.26716  -0.26662
 Alpha  occ. eigenvalues --   -0.26413  -0.26113  -0.25730  -0.25598  -0.25495
 Alpha  occ. eigenvalues --   -0.25367  -0.24795  -0.24605  -0.24067  -0.23641
 Alpha  occ. eigenvalues --   -0.23554  -0.22571  -0.22172  -0.21651  -0.20753
 Alpha  occ. eigenvalues --   -0.20385  -0.19774  -0.18829  -0.18332  -0.17365
 Alpha  occ. eigenvalues --   -0.15924
 Alpha virt. eigenvalues --   -0.11553  -0.06982  -0.06090  -0.04773  -0.03004
 Alpha virt. eigenvalues --   -0.02753  -0.02262  -0.01625  -0.01520   0.00069
 Alpha virt. eigenvalues --    0.00759   0.01209   0.01999   0.02438   0.02661

 Mulliken charges:
               1
     1  Mg   0.681397
     2  C    0.045876
     3  C   -0.036815
     4  C   -0.048628
     5  C   -0.078762
     6  N   -0.153515
     7  C   -0.100113
     8  C    0.056709
     9  C    0.009396
    10  C   -0.029523
    11  C    0.156874
    12  C    0.083617
    13  C    0.097658
    14  C    0.108078
    15  O   -0.192111
    16  O   -0.282989
    17  N   -0.281418
    18  C    0.125684
    19  C   -0.121446
    20  C   -0.001510
    21  C    0.121116
    22  C    0.166960
    23  C   -0.036936
    24  O   -0.139688
    25  C    0.110194
    26  N   -0.265254
    27  C    0.000771
    28  C   -0.005335
    29  C    0.023284
    30  C    0.050427
    31  C    0.158187
    32  C    0.113009
    33  C    0.054162
    34  N   -0.260155
    35  C    0.118575
    36  C   -0.204545
    37  C    0.131888
    38  C    0.035392
    39  C    0.188160
    40  C   -0.112481
    41  O   -0.131865
    42  C    0.055299
    43  C    0.104506
    44  O   -0.165712
    45  O   -0.273855
    46  C    0.218608
    47  C    0.301516
    48  C   -0.085104
    49  C   -0.128405
    50  C    0.136439
    51  C    0.119953
    52  C    0.074301
    53  C    0.072189
    54  C   -0.020431
    55  C    0.116909
    56  C    0.139612
    57  C    0.090670
    58  C    0.059849
    59  C   -0.036036
    60  C    0.124708
    61  C    0.074698
    62  C    0.064226
    63  C    0.120667
    64  C   -0.134743
    65  C    0.129670
    66  C    0.112634
    67  H   -0.057749
    68  H   -0.069770
    69  H   -0.074679
    70  H   -0.037703
    71  H   -0.028021
    72  H   -0.006419
    73  H   -0.012870
    74  H   -0.012235
    75  H   -0.010772
    76  H   -0.019732
    77  H    0.004557
    78  H    0.011833
    79  H   -0.007923
    80  H   -0.007814
    81  H    0.009319
    82  H   -0.015524
    83  H    0.009459
    84  H    0.018373
    85  H   -0.020743
    86  H   -0.021084
    87  H   -0.014136
    88  H   -0.006164
    89  H   -0.014866
    90  H   -0.009326
    91  H   -0.018424
    92  H    0.002999
    93  H   -0.011877
    94  H   -0.009953
    95  H    0.018173
    96  H   -0.003901
    97  H    0.002643
    98  H    0.008099
    99  H    0.011123
   100  H    0.024324
   101  H    0.017329
   102  H   -0.012484
   103  H    0.013961
   104  H   -0.043332
   105  H    0.005268
   106  H   -0.002002
   107  H   -0.024064
   108  H   -0.033739
   109  H   -0.040028
   110  H   -0.028288
   111  H   -0.030963
   112  H   -0.033116
   113  H   -0.040932
   114  H   -0.028044
   115  H   -0.025159
   116  H   -0.021575
   117  H   -0.019267
   118  H   -0.041983
   119  H   -0.030721
   120  H   -0.039622
   121  H   -0.045645
   122  H   -0.043738
   123  H   -0.038482
   124  H   -0.030980
   125  H   -0.010116
   126  H   -0.019613
   127  H   -0.026051
   128  H   -0.041344
   129  H   -0.043112
   130  H   -0.029000
   131  H   -0.048042
   132  H   -0.031910
   133  H   -0.020748
   134  H   -0.037239
   135  H   -0.021012
   136  H   -0.014124
   137  H   -0.012990
   138  H   -0.023368
   139  H   -0.031306
   140  H   -0.028124
 Sum of Mulliken charges =  -0.00000

 Dipole moment (field-independent basis, Debye):
    X=             -1.0481    Y=              5.0709    Z=              2.1645  Tot=              5.6122
 Quadrupole moment (field-independent basis, Debye-Ang):
   XX=           -408.8953   YY=           -441.7992   ZZ=           -383.0262
   XY=             51.1318   XZ=            -11.7052   YZ=             22.8634

 Normal termination of Gaussian 16 at Wed Apr 27 01:02:26 2022.
