 Gaussian 16, Revision A.03,
 Gaussian 16:  ES64L-G16RevA.03 25-Dec-2016

 -----------------------------------
 #p cam-b3lyp/Def2SVP td=(nstates=5)
 -----------------------------------

 ------------------------------------------------------
 step_101_chromophore_2 TDDFT with cam-b3lyp functional
 ------------------------------------------------------
 Symbolic Z-matrix:
 Charge =  0 Multiplicity = 1

                         Standard orientation:
 ---------------------------------------------------------------------
 Center     Atomic      Atomic             Coordinates (Angstroms)
 Number     Number       Type             X           Y           Z
 ---------------------------------------------------------------------
      1         12           0        4.699591    1.313430   -0.416995
      2          6           0        5.237041   -2.040068   -0.662168
      3          6           0        2.478477    1.055876   -3.119760
      4          6           0        3.548512    4.469345    0.277245
      5          6           0        6.647788    1.384093    2.458248
      6          7           0        3.860405   -0.411396   -1.654290
      7          6           0        4.248897   -1.653340   -1.600441
      8          6           0        3.463031   -2.585800   -2.540148
      9          6           0        2.918132   -1.499059   -3.552341
     10          6           0        3.080065   -0.177990   -2.741101
     11          6           0        3.569358   -1.486035   -4.868469
     12          6           0        2.419787   -3.492364   -1.873735
     13          6           0        1.661283   -3.085934   -0.574615
     14          6           0        0.430677   -4.043794   -0.225534
     15          8           0        0.064097   -5.023737   -0.871083
     16          8           0       -0.121257   -3.703856    0.989816
     17          7           0        3.220058    2.646783   -1.296318
     18          6           0        2.564875    2.357930   -2.533815
     19          6           0        1.864187    3.566303   -2.955868
     20          6           0        2.165040    4.527569   -2.029648
     21          6           0        3.058853    3.928571   -0.949313
     22          6           0        0.928229    3.591447   -4.208756
     23          6           0        1.799022    6.093644   -2.101664
     24          8           0        1.193795    6.455818   -3.075783
     25          6           0        2.183165    7.144728   -1.050910
     26          7           0        4.837066    2.583610    1.252231
     27          6           0        4.316850    3.866462    1.300493
     28          6           0        4.921029    4.680635    2.530508
     29          6           0        5.859956    3.635430    3.257152
     30          6           0        5.848100    2.506913    2.223268
     31          6           0        5.473855    6.037785    2.218535
     32          6           0        5.362858    3.270623    4.691633
     33          6           0        6.577159    3.126700    5.553141
     34          7           0        5.952989    0.041471    0.570841
     35          6           0        6.785219    0.255256    1.651851
     36          6           0        7.492620   -0.977450    1.941356
     37          6           0        6.978882   -1.890473    0.969720
     38          6           0        5.962793   -1.233791    0.247654
     39          6           0        8.456578   -1.204619    3.060298
     40          6           0        7.002436   -3.247102    0.487104
     41          8           0        7.712255   -4.157411    0.913824
     42          6           0        5.862901   -3.408823   -0.579297
     43          6           0        6.422089   -3.986529   -1.835121
     44          8           0        6.694103   -5.149594   -2.056511
     45          8           0        6.594407   -2.997513   -2.740378
     46          6           0        7.260730   -3.495710   -3.992954
     47          6           0       -1.411385   -4.415709    1.364801
     48          6           0       -2.472309   -3.359344    1.677003
     49          6           0       -3.450881   -3.263373    2.595286
     50          6           0       -3.827231   -4.421988    3.532051
     51          6           0       -4.409724   -2.057722    2.587261
     52          6           0       -5.437081   -2.047291    1.448577
     53          6           0       -6.874849   -2.380100    2.079077
     54          6           0       -7.554903   -1.085984    2.722733
     55          6           0       -7.519428   -1.314075    4.226813
     56          6           0       -8.932204   -0.896170    2.196948
     57          6           0       -9.328494    0.546030    1.807566
     58          6           0       -9.364267    0.800843    0.270931
     59          6           0      -10.656731    0.217667   -0.501616
     60          6           0      -10.353385   -0.055431   -1.943624
     61          6           0      -11.838897    1.246864   -0.193314
     62          6           0      -13.303163    0.610332   -0.285297
     63          6           0      -14.112974    0.846950   -1.568891
     64          6           0      -15.590539    1.304585   -1.116898
     65          6           0      -16.547097    0.213491   -0.669206
     66          6           0      -16.212107    2.211481   -2.126907
     67          1           0        1.836571    0.911214   -3.990501
     68          1           0        3.119408    5.411470    0.624692
     69          1           0        7.290272    1.394769    3.341076
     70          1           0        4.073433   -3.362613   -3.000034
     71          1           0        1.837149   -1.608935   -3.646997
     72          1           0        4.454289   -2.094157   -5.057344
     73          1           0        3.820298   -0.466779   -5.161404
     74          1           0        2.809724   -1.881663   -5.542229
     75          1           0        2.881851   -4.473986   -1.768490
     76          1           0        1.694090   -3.705720   -2.658982
     77          1           0        1.241438   -2.081871   -0.636885
     78          1           0        2.318038   -3.026604    0.293312
     79          1           0        0.189113    4.382643   -4.084213
     80          1           0        0.204604    2.783291   -4.312603
     81          1           0        1.494807    3.802127   -5.115256
     82          1           0        1.696605    8.103842   -1.227607
     83          1           0        3.224183    7.465132   -1.071488
     84          1           0        1.955809    6.868221   -0.021725
     85          1           0        3.997751    4.851802    3.084306
     86          1           0        6.897424    3.965948    3.298816
     87          1           0        4.855072    6.816539    2.665932
     88          1           0        5.517720    6.187507    1.139672
     89          1           0        6.474188    6.118071    2.642051
     90          1           0        4.824540    2.324113    4.744743
     91          1           0        4.755346    4.061169    5.131619
     92          1           0        7.554741    3.289464    5.099292
     93          1           0        6.569875    2.089762    5.887606
     94          1           0        6.378692    3.786606    6.397800
     95          1           0        8.653536   -2.272210    3.158560
     96          1           0        8.069481   -0.796637    3.994600
     97          1           0        9.309389   -0.577091    2.799018
     98          1           0        5.185360   -4.126221   -0.116042
     99          1           0        7.696441   -2.705605   -4.604822
    100          1           0        6.637418   -4.164004   -4.588005
    101          1           0        8.143486   -4.031688   -3.646089
    102          1           0       -1.222923   -5.098000    2.193847
    103          1           0       -1.794589   -5.156019    0.662620
    104          1           0       -2.268862   -2.504940    1.030094
    105          1           0       -4.913050   -4.515025    3.527407
    106          1           0       -3.402799   -4.236901    4.519450
    107          1           0       -3.316573   -5.358464    3.310747
    108          1           0       -3.821215   -1.152100    2.443276
    109          1           0       -4.854646   -1.921809    3.572985
    110          1           0       -5.206842   -2.718720    0.620279
    111          1           0       -5.373899   -1.058421    0.994992
    112          1           0       -6.730594   -3.248715    2.722665
    113          1           0       -7.379525   -2.854286    1.236683
    114          1           0       -6.985881   -0.171343    2.557116
    115          1           0       -6.657684   -0.894423    4.746763
    116          1           0       -7.303982   -2.364649    4.421561
    117          1           0       -8.352807   -0.808090    4.714940
    118          1           0       -9.643845   -1.311874    2.910536
    119          1           0       -9.082418   -1.471420    1.283231
    120          1           0       -8.704686    1.341364    2.214188
    121          1           0      -10.280642    0.850129    2.243035
    122          1           0       -8.487995    0.419459   -0.253266
    123          1           0       -9.372018    1.870916    0.063076
    124          1           0      -10.866132   -0.749234   -0.045466
    125          1           0      -11.240956   -0.283481   -2.534390
    126          1           0       -9.620813   -0.859481   -2.007488
    127          1           0       -9.843457    0.772464   -2.435923
    128          1           0      -11.800283    2.201880   -0.716543
    129          1           0      -11.855954    1.671331    0.810636
    130          1           0      -13.867087    0.761101    0.635106
    131          1           0      -13.092829   -0.451592   -0.156458
    132          1           0      -14.284907   -0.099106   -2.081326
    133          1           0      -13.719201    1.570044   -2.283295
    134          1           0      -15.437494    1.996009   -0.288221
    135          1           0      -15.902990   -0.592381   -0.318748
    136          1           0      -17.170664   -0.070633   -1.517250
    137          1           0      -17.215271    0.531506    0.130573
    138          1           0      -16.228532    3.253839   -1.809787
    139          1           0      -17.251569    1.991734   -2.372911
    140          1           0      -15.611396    2.158404   -3.034546
 ---------------------------------------------------------------------

 SCF Done:  E(RCAM-B3LYP) =  -3007.14110512     A.U. after   17 cycles

 Excitation energies and oscillator strengths:

 Excited State   1:      Singlet-A      1.7190 eV  721.26 nm  f=0.3588  <S**2>=0.000
     245 -> 248       -0.18883
     246 -> 247        0.68380
     245 <- 248       -0.11045
 This state for optimization and/or second-order correction.
 Total Energy, E(TD-HF/TD-DFT) =  -3007.07793293
 Copying the excited state density for this state as the 1-particle RhoCI density.

 Excited State   2:      Singlet-A      2.2555 eV  549.71 nm  f=0.0909  <S**2>=0.000
     245 -> 247        0.62861
     246 -> 248        0.31374

 Excited State   3:      Singlet-A      3.3406 eV  371.14 nm  f=0.0013  <S**2>=0.000
     241 -> 247        0.28853
     241 -> 249       -0.19259
     241 -> 251        0.10481
     242 -> 247        0.12546
     242 -> 249       -0.11346
     243 -> 247        0.39489
     244 -> 247        0.36527
     246 -> 248       -0.10306

 Excited State   4:      Singlet-A      3.4587 eV  358.47 nm  f=0.0840  <S**2>=0.000
     241 -> 247        0.27721
     241 -> 249       -0.17660
     242 -> 247        0.43692
     243 -> 247       -0.23737
     244 -> 247       -0.21168
     245 -> 247       -0.10952
     246 -> 248        0.24250

 Excited State   5:      Singlet-A      3.5269 eV  351.54 nm  f=0.4438  <S**2>=0.000
     239 -> 247       -0.15467
     241 -> 247        0.14558
     242 -> 247       -0.34499
     245 -> 247       -0.23602
     246 -> 248        0.51283

 The electronic state is 1-A.
 Alpha  occ. eigenvalues --  -46.89358 -19.25634 -19.25110 -19.19884 -19.19429
 Alpha  occ. eigenvalues --  -19.19417 -19.18389 -14.42608 -14.42117 -14.40006
 Alpha  occ. eigenvalues --  -14.38972 -10.39881 -10.39104 -10.36047 -10.34569
 Alpha  occ. eigenvalues --  -10.32365 -10.32219 -10.31682 -10.31254 -10.31128
 Alpha  occ. eigenvalues --  -10.30912 -10.30900 -10.30647 -10.29394 -10.28553
 Alpha  occ. eigenvalues --  -10.28508 -10.28427 -10.28273 -10.28267 -10.28223
 Alpha  occ. eigenvalues --  -10.28141 -10.28055 -10.28008 -10.27976 -10.27967
 Alpha  occ. eigenvalues --  -10.27777 -10.27277 -10.27007 -10.26991 -10.26781
 Alpha  occ. eigenvalues --  -10.26543 -10.26505 -10.26212 -10.26188 -10.26170
 Alpha  occ. eigenvalues --  -10.26149 -10.26115 -10.25894 -10.25878 -10.25672
 Alpha  occ. eigenvalues --  -10.25535 -10.25513 -10.25430 -10.25311 -10.25180
 Alpha  occ. eigenvalues --  -10.25090 -10.25083 -10.24985 -10.24946 -10.24728
 Alpha  occ. eigenvalues --  -10.24665 -10.24511 -10.24455 -10.24413 -10.24268
 Alpha  occ. eigenvalues --  -10.23398  -3.17811  -1.92698  -1.92274  -1.92106
 Alpha  occ. eigenvalues --   -1.17033  -1.15170  -1.11531  -1.08923  -1.07548
 Alpha  occ. eigenvalues --   -1.06784  -1.05620  -1.04111  -1.02583  -1.01584
 Alpha  occ. eigenvalues --   -0.92943  -0.90323  -0.89739  -0.89618  -0.89147
 Alpha  occ. eigenvalues --   -0.88546  -0.88308  -0.87673  -0.87225  -0.86737
 Alpha  occ. eigenvalues --   -0.85973  -0.84976  -0.84589  -0.84035  -0.83125
 Alpha  occ. eigenvalues --   -0.82338  -0.81926  -0.81189  -0.80790  -0.80395
 Alpha  occ. eigenvalues --   -0.80032  -0.78415  -0.78005  -0.77237  -0.76567
 Alpha  occ. eigenvalues --   -0.75754  -0.75478  -0.75469  -0.75275  -0.74210
 Alpha  occ. eigenvalues --   -0.73168  -0.72498  -0.71731  -0.70767  -0.68813
 Alpha  occ. eigenvalues --   -0.68492  -0.68254  -0.66644  -0.66327  -0.65887
 Alpha  occ. eigenvalues --   -0.65647  -0.65378  -0.64662  -0.64448  -0.64380
 Alpha  occ. eigenvalues --   -0.63305  -0.63069  -0.62604  -0.62434  -0.60071
 Alpha  occ. eigenvalues --   -0.59689  -0.59474  -0.58831  -0.58499  -0.57891
 Alpha  occ. eigenvalues --   -0.57638  -0.56916  -0.56612  -0.56354  -0.55688
 Alpha  occ. eigenvalues --   -0.55259  -0.54871  -0.54425  -0.54126  -0.54087
 Alpha  occ. eigenvalues --   -0.53524  -0.53356  -0.53012  -0.52862  -0.52714
 Alpha  occ. eigenvalues --   -0.52544  -0.52464  -0.51907  -0.51823  -0.51717
 Alpha  occ. eigenvalues --   -0.51529  -0.51443  -0.51125  -0.51038  -0.50701
 Alpha  occ. eigenvalues --   -0.50548  -0.50153  -0.50010  -0.49700  -0.49600
 Alpha  occ. eigenvalues --   -0.49592  -0.49351  -0.49131  -0.49075  -0.48767
 Alpha  occ. eigenvalues --   -0.48678  -0.48443  -0.48292  -0.47864  -0.47555
 Alpha  occ. eigenvalues --   -0.47459  -0.47247  -0.47119  -0.46840  -0.46677
 Alpha  occ. eigenvalues --   -0.46537  -0.46351  -0.46286  -0.46053  -0.45794
 Alpha  occ. eigenvalues --   -0.45596  -0.45459  -0.45339  -0.45297  -0.45080
 Alpha  occ. eigenvalues --   -0.44980  -0.44540  -0.44392  -0.44163  -0.43997
 Alpha  occ. eigenvalues --   -0.43833  -0.43768  -0.43683  -0.43610  -0.43309
 Alpha  occ. eigenvalues --   -0.43069  -0.42833  -0.42705  -0.42606  -0.42317
 Alpha  occ. eigenvalues --   -0.42275  -0.42007  -0.41761  -0.41549  -0.41430
 Alpha  occ. eigenvalues --   -0.41099  -0.40552  -0.40281  -0.39725  -0.39626
 Alpha  occ. eigenvalues --   -0.39461  -0.39215  -0.38939  -0.38742  -0.38518
 Alpha  occ. eigenvalues --   -0.38266  -0.38236  -0.37653  -0.37479  -0.37409
 Alpha  occ. eigenvalues --   -0.37190  -0.37104  -0.37040  -0.36899  -0.36688
 Alpha  occ. eigenvalues --   -0.36227  -0.35399  -0.35181  -0.34641  -0.34352
 Alpha  occ. eigenvalues --   -0.34174  -0.33899  -0.33400  -0.31638  -0.30984
 Alpha  occ. eigenvalues --   -0.30499  -0.30144  -0.29452  -0.29447  -0.24203
 Alpha  occ. eigenvalues --   -0.21191
 Alpha virt. eigenvalues --   -0.08592  -0.01956   0.00512   0.01956   0.02389
 Alpha virt. eigenvalues --    0.04836   0.05165   0.05997   0.06107   0.06745
 Alpha virt. eigenvalues --    0.07562   0.07967   0.08510   0.08710   0.08948

 Mulliken charges:
               1
     1  Mg   0.812988
     2  C    0.027676
     3  C   -0.049264
     4  C   -0.079760
     5  C   -0.092886
     6  N   -0.219361
     7  C   -0.062472
     8  C    0.016170
     9  C   -0.048325
    10  C   -0.015298
    11  C    0.096771
    12  C    0.034922
    13  C    0.030576
    14  C    0.190328
    15  O   -0.235790
    16  O   -0.348043
    17  N   -0.363953
    18  C    0.131306
    19  C   -0.129944
    20  C   -0.061207
    21  C    0.149875
    22  C    0.114633
    23  C    0.033783
    24  O   -0.178415
    25  C    0.030870
    26  N   -0.338020
    27  C    0.039423
    28  C   -0.062840
    29  C   -0.032304
    30  C    0.071557
    31  C    0.094411
    32  C    0.058518
    33  C   -0.011600
    34  N   -0.353953
    35  C    0.127768
    36  C   -0.197569
    37  C    0.050940
    38  C    0.070974
    39  C    0.133536
    40  C   -0.012600
    41  O   -0.171700
    42  C   -0.020479
    43  C    0.185845
    44  O   -0.203813
    45  O   -0.334785
    46  C    0.176115
    47  C    0.269927
    48  C   -0.107045
    49  C   -0.150985
    50  C    0.077118
    51  C    0.062200
    52  C    0.020046
    53  C    0.021119
    54  C   -0.078740
    55  C    0.055595
    56  C    0.083038
    57  C    0.035491
    58  C    0.006240
    59  C   -0.092347
    60  C    0.068684
    61  C    0.023172
    62  C    0.007752
    63  C    0.063924
    64  C   -0.191502
    65  C    0.069396
    66  C    0.050854
    67  H   -0.020570
    68  H   -0.038112
    69  H   -0.040242
    70  H   -0.001154
    71  H    0.007583
    72  H    0.017154
    73  H    0.013857
    74  H    0.013051
    75  H    0.017908
    76  H    0.012211
    77  H    0.034121
    78  H    0.042398
    79  H    0.022677
    80  H    0.018668
    81  H    0.036596
    82  H    0.020499
    83  H    0.038007
    84  H    0.043347
    85  H    0.013815
    86  H    0.013693
    87  H    0.010689
    88  H    0.019480
    89  H    0.010980
    90  H    0.021204
    91  H    0.010062
    92  H    0.024200
    93  H    0.011818
    94  H    0.015001
    95  H    0.045460
    96  H    0.019281
    97  H    0.027529
    98  H    0.048980
    99  H    0.036103
   100  H    0.045935
   101  H    0.043305
   102  H    0.014944
   103  H    0.046732
   104  H   -0.010412
   105  H    0.024902
   106  H    0.023517
   107  H    0.000693
   108  H   -0.001376
   109  H   -0.011588
   110  H    0.002084
   111  H   -0.002529
   112  H   -0.009054
   113  H   -0.010417
   114  H    0.003085
   115  H   -0.000496
   116  H    0.002546
   117  H    0.007032
   118  H   -0.010429
   119  H   -0.003924
   120  H   -0.010242
   121  H   -0.015771
   122  H   -0.015437
   123  H   -0.009520
   124  H   -0.002526
   125  H    0.012870
   126  H    0.004573
   127  H   -0.002173
   128  H   -0.012577
   129  H   -0.012995
   130  H   -0.000521
   131  H   -0.018853
   132  H   -0.003252
   133  H    0.006818
   134  H   -0.004958
   135  H    0.001601
   136  H    0.009070
   137  H    0.011952
   138  H    0.001596
   139  H   -0.005268
   140  H   -0.003773
 Sum of Mulliken charges =  -0.00000

 Dipole moment (field-independent basis, Debye):
    X=             -1.3228    Y=              5.6764    Z=              1.7740  Tot=              6.0924
 Quadrupole moment (field-independent basis, Debye-Ang):
   XX=           -410.9688   YY=           -438.9765   ZZ=           -380.6003
   XY=             52.6486   XZ=            -12.9583   YZ=             23.6316

 Normal termination of Gaussian 16 at Wed Apr 27 00:06:37 2022.
