 Gaussian 16, Revision A.03,
 Gaussian 16:  ES64L-G16RevA.03 25-Dec-2016

 ---------------------------------
 #p PBE1PBE/Def2SVP td=(nstates=5)
 ---------------------------------

 ----------------------------------------------------
 step_101_chromophore_2 TDDFT with PBE1PBE functional
 ----------------------------------------------------
 Symbolic Z-matrix:
 Charge =  0 Multiplicity = 1

                         Standard orientation:
 ---------------------------------------------------------------------
 Center     Atomic      Atomic             Coordinates (Angstroms)
 Number     Number       Type             X           Y           Z
 ---------------------------------------------------------------------
      1         12           0        4.699591    1.313430   -0.416995
      2          6           0        5.237041   -2.040068   -0.662168
      3          6           0        2.478477    1.055876   -3.119760
      4          6           0        3.548512    4.469345    0.277245
      5          6           0        6.647788    1.384093    2.458248
      6          7           0        3.860405   -0.411396   -1.654290
      7          6           0        4.248897   -1.653340   -1.600441
      8          6           0        3.463031   -2.585800   -2.540148
      9          6           0        2.918132   -1.499059   -3.552341
     10          6           0        3.080065   -0.177990   -2.741101
     11          6           0        3.569358   -1.486035   -4.868469
     12          6           0        2.419787   -3.492364   -1.873735
     13          6           0        1.661283   -3.085934   -0.574615
     14          6           0        0.430677   -4.043794   -0.225534
     15          8           0        0.064097   -5.023737   -0.871083
     16          8           0       -0.121257   -3.703856    0.989816
     17          7           0        3.220058    2.646783   -1.296318
     18          6           0        2.564875    2.357930   -2.533815
     19          6           0        1.864187    3.566303   -2.955868
     20          6           0        2.165040    4.527569   -2.029648
     21          6           0        3.058853    3.928571   -0.949313
     22          6           0        0.928229    3.591447   -4.208756
     23          6           0        1.799022    6.093644   -2.101664
     24          8           0        1.193795    6.455818   -3.075783
     25          6           0        2.183165    7.144728   -1.050910
     26          7           0        4.837066    2.583610    1.252231
     27          6           0        4.316850    3.866462    1.300493
     28          6           0        4.921029    4.680635    2.530508
     29          6           0        5.859956    3.635430    3.257152
     30          6           0        5.848100    2.506913    2.223268
     31          6           0        5.473855    6.037785    2.218535
     32          6           0        5.362858    3.270623    4.691633
     33          6           0        6.577159    3.126700    5.553141
     34          7           0        5.952989    0.041471    0.570841
     35          6           0        6.785219    0.255256    1.651851
     36          6           0        7.492620   -0.977450    1.941356
     37          6           0        6.978882   -1.890473    0.969720
     38          6           0        5.962793   -1.233791    0.247654
     39          6           0        8.456578   -1.204619    3.060298
     40          6           0        7.002436   -3.247102    0.487104
     41          8           0        7.712255   -4.157411    0.913824
     42          6           0        5.862901   -3.408823   -0.579297
     43          6           0        6.422089   -3.986529   -1.835121
     44          8           0        6.694103   -5.149594   -2.056511
     45          8           0        6.594407   -2.997513   -2.740378
     46          6           0        7.260730   -3.495710   -3.992954
     47          6           0       -1.411385   -4.415709    1.364801
     48          6           0       -2.472309   -3.359344    1.677003
     49          6           0       -3.450881   -3.263373    2.595286
     50          6           0       -3.827231   -4.421988    3.532051
     51          6           0       -4.409724   -2.057722    2.587261
     52          6           0       -5.437081   -2.047291    1.448577
     53          6           0       -6.874849   -2.380100    2.079077
     54          6           0       -7.554903   -1.085984    2.722733
     55          6           0       -7.519428   -1.314075    4.226813
     56          6           0       -8.932204   -0.896170    2.196948
     57          6           0       -9.328494    0.546030    1.807566
     58          6           0       -9.364267    0.800843    0.270931
     59          6           0      -10.656731    0.217667   -0.501616
     60          6           0      -10.353385   -0.055431   -1.943624
     61          6           0      -11.838897    1.246864   -0.193314
     62          6           0      -13.303163    0.610332   -0.285297
     63          6           0      -14.112974    0.846950   -1.568891
     64          6           0      -15.590539    1.304585   -1.116898
     65          6           0      -16.547097    0.213491   -0.669206
     66          6           0      -16.212107    2.211481   -2.126907
     67          1           0        1.836571    0.911214   -3.990501
     68          1           0        3.119408    5.411470    0.624692
     69          1           0        7.290272    1.394769    3.341076
     70          1           0        4.073433   -3.362613   -3.000034
     71          1           0        1.837149   -1.608935   -3.646997
     72          1           0        4.454289   -2.094157   -5.057344
     73          1           0        3.820298   -0.466779   -5.161404
     74          1           0        2.809724   -1.881663   -5.542229
     75          1           0        2.881851   -4.473986   -1.768490
     76          1           0        1.694090   -3.705720   -2.658982
     77          1           0        1.241438   -2.081871   -0.636885
     78          1           0        2.318038   -3.026604    0.293312
     79          1           0        0.189113    4.382643   -4.084213
     80          1           0        0.204604    2.783291   -4.312603
     81          1           0        1.494807    3.802127   -5.115256
     82          1           0        1.696605    8.103842   -1.227607
     83          1           0        3.224183    7.465132   -1.071488
     84          1           0        1.955809    6.868221   -0.021725
     85          1           0        3.997751    4.851802    3.084306
     86          1           0        6.897424    3.965948    3.298816
     87          1           0        4.855072    6.816539    2.665932
     88          1           0        5.517720    6.187507    1.139672
     89          1           0        6.474188    6.118071    2.642051
     90          1           0        4.824540    2.324113    4.744743
     91          1           0        4.755346    4.061169    5.131619
     92          1           0        7.554741    3.289464    5.099292
     93          1           0        6.569875    2.089762    5.887606
     94          1           0        6.378692    3.786606    6.397800
     95          1           0        8.653536   -2.272210    3.158560
     96          1           0        8.069481   -0.796637    3.994600
     97          1           0        9.309389   -0.577091    2.799018
     98          1           0        5.185360   -4.126221   -0.116042
     99          1           0        7.696441   -2.705605   -4.604822
    100          1           0        6.637418   -4.164004   -4.588005
    101          1           0        8.143486   -4.031688   -3.646089
    102          1           0       -1.222923   -5.098000    2.193847
    103          1           0       -1.794589   -5.156019    0.662620
    104          1           0       -2.268862   -2.504940    1.030094
    105          1           0       -4.913050   -4.515025    3.527407
    106          1           0       -3.402799   -4.236901    4.519450
    107          1           0       -3.316573   -5.358464    3.310747
    108          1           0       -3.821215   -1.152100    2.443276
    109          1           0       -4.854646   -1.921809    3.572985
    110          1           0       -5.206842   -2.718720    0.620279
    111          1           0       -5.373899   -1.058421    0.994992
    112          1           0       -6.730594   -3.248715    2.722665
    113          1           0       -7.379525   -2.854286    1.236683
    114          1           0       -6.985881   -0.171343    2.557116
    115          1           0       -6.657684   -0.894423    4.746763
    116          1           0       -7.303982   -2.364649    4.421561
    117          1           0       -8.352807   -0.808090    4.714940
    118          1           0       -9.643845   -1.311874    2.910536
    119          1           0       -9.082418   -1.471420    1.283231
    120          1           0       -8.704686    1.341364    2.214188
    121          1           0      -10.280642    0.850129    2.243035
    122          1           0       -8.487995    0.419459   -0.253266
    123          1           0       -9.372018    1.870916    0.063076
    124          1           0      -10.866132   -0.749234   -0.045466
    125          1           0      -11.240956   -0.283481   -2.534390
    126          1           0       -9.620813   -0.859481   -2.007488
    127          1           0       -9.843457    0.772464   -2.435923
    128          1           0      -11.800283    2.201880   -0.716543
    129          1           0      -11.855954    1.671331    0.810636
    130          1           0      -13.867087    0.761101    0.635106
    131          1           0      -13.092829   -0.451592   -0.156458
    132          1           0      -14.284907   -0.099106   -2.081326
    133          1           0      -13.719201    1.570044   -2.283295
    134          1           0      -15.437494    1.996009   -0.288221
    135          1           0      -15.902990   -0.592381   -0.318748
    136          1           0      -17.170664   -0.070633   -1.517250
    137          1           0      -17.215271    0.531506    0.130573
    138          1           0      -16.228532    3.253839   -1.809787
    139          1           0      -17.251569    1.991734   -2.372911
    140          1           0      -15.611396    2.158404   -3.034546
 ---------------------------------------------------------------------

 SCF Done:  E(RPBE1PBE) =  -3005.32960217     A.U. after   15 cycles

 Excitation energies and oscillator strengths:

 Excited State   1:      Singlet-A      1.8736 eV  661.75 nm  f=0.3488  <S**2>=0.000
     245 -> 248       -0.18252
     246 -> 247        0.69032
     246 <- 247       -0.10324
 This state for optimization and/or second-order correction.
 Total Energy, E(TD-HF/TD-DFT) =  -3005.26074979
 Copying the excited state density for this state as the 1-particle RhoCI density.

 Excited State   2:      Singlet-A      2.2544 eV  549.97 nm  f=0.0942  <S**2>=0.000
     245 -> 247        0.64223
     246 -> 248        0.28500

 Excited State   3:      Singlet-A      2.8675 eV  432.37 nm  f=0.0016  <S**2>=0.000
     240 -> 247       -0.11866
     242 -> 247        0.22252
     243 -> 247        0.63063
     243 -> 249        0.12598

 Excited State   4:      Singlet-A      3.1040 eV  399.43 nm  f=0.0007  <S**2>=0.000
     242 -> 247        0.64785
     243 -> 247       -0.23595

 Excited State   5:      Singlet-A      3.1400 eV  394.85 nm  f=0.0000  <S**2>=0.000
     241 -> 247        0.67434
     241 -> 249       -0.13626
     241 -> 250       -0.12645

 The electronic state is 1-A.
 Alpha  occ. eigenvalues --  -46.92732 -19.26256 -19.25828 -19.20193 -19.19647
 Alpha  occ. eigenvalues --  -19.19544 -19.18692 -14.41941 -14.41781 -14.39583
 Alpha  occ. eigenvalues --  -14.38660 -10.36956 -10.36084 -10.33165 -10.31781
 Alpha  occ. eigenvalues --  -10.29783 -10.29434 -10.29345 -10.28931 -10.28757
 Alpha  occ. eigenvalues --  -10.28699 -10.28642 -10.28273 -10.27226 -10.26322
 Alpha  occ. eigenvalues --  -10.26076 -10.26042 -10.25999 -10.25965 -10.25910
 Alpha  occ. eigenvalues --  -10.25877 -10.25826 -10.25718 -10.25715 -10.25688
 Alpha  occ. eigenvalues --  -10.25405 -10.24931 -10.24764 -10.24619 -10.24301
 Alpha  occ. eigenvalues --  -10.24179 -10.24057 -10.23902 -10.23726 -10.23600
 Alpha  occ. eigenvalues --  -10.23577 -10.23520 -10.23481 -10.23275 -10.23198
 Alpha  occ. eigenvalues --  -10.23161 -10.23081 -10.23007 -10.22805 -10.22778
 Alpha  occ. eigenvalues --  -10.22773 -10.22658 -10.22634 -10.22542 -10.22384
 Alpha  occ. eigenvalues --  -10.22219 -10.22041 -10.21815 -10.21792 -10.21618
 Alpha  occ. eigenvalues --  -10.20759  -3.14768  -1.87594  -1.87150  -1.86984
 Alpha  occ. eigenvalues --   -1.11774  -1.09987  -1.06218  -1.03720  -1.02362
 Alpha  occ. eigenvalues --   -1.01672  -1.00208  -0.98883  -0.97149  -0.96204
 Alpha  occ. eigenvalues --   -0.87303  -0.84406  -0.83996  -0.83911  -0.83243
 Alpha  occ. eigenvalues --   -0.82641  -0.82594  -0.81969  -0.81309  -0.81135
 Alpha  occ. eigenvalues --   -0.80218  -0.79181  -0.78921  -0.78202  -0.77388
 Alpha  occ. eigenvalues --   -0.76516  -0.76119  -0.75328  -0.75032  -0.74647
 Alpha  occ. eigenvalues --   -0.74273  -0.72675  -0.72366  -0.71483  -0.70822
 Alpha  occ. eigenvalues --   -0.69910  -0.69801  -0.69551  -0.69390  -0.68372
 Alpha  occ. eigenvalues --   -0.67584  -0.66841  -0.66154  -0.65105  -0.63261
 Alpha  occ. eigenvalues --   -0.62731  -0.62663  -0.60926  -0.60686  -0.60312
 Alpha  occ. eigenvalues --   -0.59883  -0.59820  -0.59168  -0.58978  -0.58553
 Alpha  occ. eigenvalues --   -0.57865  -0.57649  -0.56775  -0.56602  -0.54435
 Alpha  occ. eigenvalues --   -0.54224  -0.54050  -0.53389  -0.53092  -0.52523
 Alpha  occ. eigenvalues --   -0.52013  -0.51287  -0.51151  -0.50876  -0.50262
 Alpha  occ. eigenvalues --   -0.49686  -0.49418  -0.48859  -0.48722  -0.48546
 Alpha  occ. eigenvalues --   -0.48070  -0.47994  -0.47705  -0.47355  -0.47174
 Alpha  occ. eigenvalues --   -0.47065  -0.46990  -0.46433  -0.46280  -0.46184
 Alpha  occ. eigenvalues --   -0.46054  -0.45938  -0.45723  -0.45558  -0.45270
 Alpha  occ. eigenvalues --   -0.45154  -0.44690  -0.44605  -0.44273  -0.44194
 Alpha  occ. eigenvalues --   -0.44046  -0.43909  -0.43683  -0.43653  -0.43486
 Alpha  occ. eigenvalues --   -0.43355  -0.43062  -0.42847  -0.42510  -0.42245
 Alpha  occ. eigenvalues --   -0.42085  -0.41831  -0.41729  -0.41572  -0.41362
 Alpha  occ. eigenvalues --   -0.41260  -0.41046  -0.40973  -0.40743  -0.40503
 Alpha  occ. eigenvalues --   -0.40281  -0.40192  -0.40059  -0.39926  -0.39844
 Alpha  occ. eigenvalues --   -0.39763  -0.39185  -0.39102  -0.38862  -0.38707
 Alpha  occ. eigenvalues --   -0.38663  -0.38561  -0.38448  -0.38251  -0.38081
 Alpha  occ. eigenvalues --   -0.37903  -0.37622  -0.37451  -0.37433  -0.37161
 Alpha  occ. eigenvalues --   -0.37028  -0.36799  -0.36477  -0.36334  -0.36252
 Alpha  occ. eigenvalues --   -0.36019  -0.35409  -0.35104  -0.34611  -0.34397
 Alpha  occ. eigenvalues --   -0.34383  -0.34003  -0.33714  -0.33623  -0.33313
 Alpha  occ. eigenvalues --   -0.33272  -0.33036  -0.32496  -0.32441  -0.32271
 Alpha  occ. eigenvalues --   -0.32124  -0.32042  -0.31933  -0.31702  -0.31605
 Alpha  occ. eigenvalues --   -0.31304  -0.30181  -0.30117  -0.29700  -0.29423
 Alpha  occ. eigenvalues --   -0.29013  -0.28913  -0.28890  -0.27164  -0.25844
 Alpha  occ. eigenvalues --   -0.25737  -0.25519  -0.24946  -0.24713  -0.21105
 Alpha  occ. eigenvalues --   -0.18846
 Alpha virt. eigenvalues --   -0.11110  -0.05403  -0.03733  -0.02078  -0.00757
 Alpha virt. eigenvalues --    0.00538   0.00589   0.01481   0.01580   0.03121
 Alpha virt. eigenvalues --    0.03388   0.04178   0.04819   0.05459   0.05578

 Mulliken charges:
               1
     1  Mg   0.955547
     2  C    0.016130
     3  C   -0.046946
     4  C   -0.087873
     5  C   -0.089671
     6  N   -0.327900
     7  C    0.021607
     8  C   -0.046202
     9  C   -0.136366
    10  C    0.024516
    11  C    0.042046
    12  C   -0.009520
    13  C   -0.049788
    14  C    0.257397
    15  O   -0.267979
    16  O   -0.376165
    17  N   -0.470024
    18  C    0.151662
    19  C   -0.156198
    20  C   -0.111495
    21  C    0.184075
    22  C    0.058995
    23  C    0.083154
    24  O   -0.211656
    25  C   -0.042291
    26  N   -0.432124
    27  C    0.081106
    28  C   -0.137882
    29  C   -0.108886
    30  C    0.100452
    31  C    0.033417
    32  C    0.002587
    33  C   -0.084151
    34  N   -0.488109
    35  C    0.157646
    36  C   -0.215650
    37  C   -0.000786
    38  C    0.124113
    39  C    0.075419
    40  C    0.088736
    41  O   -0.216236
    42  C   -0.125661
    43  C    0.269776
    44  O   -0.240877
    45  O   -0.363474
    46  C    0.118802
    47  C    0.228218
    48  C   -0.116257
    49  C   -0.198063
    50  C    0.011656
    51  C   -0.002844
    52  C   -0.041010
    53  C   -0.038608
    54  C   -0.163018
    55  C   -0.003237
    56  C    0.029096
    57  C   -0.024182
    58  C   -0.055279
    59  C   -0.180081
    60  C    0.009121
    61  C   -0.023723
    62  C   -0.055014
    63  C    0.006261
    64  C   -0.281256
    65  C    0.004618
    66  C   -0.007733
    67  H    0.009932
    68  H   -0.001723
    69  H   -0.004466
    70  H    0.040420
    71  H    0.044200
    72  H    0.045669
    73  H    0.041959
    74  H    0.040366
    75  H    0.049403
    76  H    0.044833
    77  H    0.067659
    78  H    0.074904
    79  H    0.049857
    80  H    0.043814
    81  H    0.063713
    82  H    0.048386
    83  H    0.064465
    84  H    0.067405
    85  H    0.051528
    86  H    0.051110
    87  H    0.038010
    88  H    0.047605
    89  H    0.038915
    90  H    0.053252
    91  H    0.042847
    92  H    0.049146
    93  H    0.039663
    94  H    0.043609
    95  H    0.073253
    96  H    0.046763
    97  H    0.056787
    98  H    0.086168
    99  H    0.058044
   100  H    0.066807
   101  H    0.065432
   102  H    0.041597
   103  H    0.072546
   104  H    0.020370
   105  H    0.053127
   106  H    0.051698
   107  H    0.028138
   108  H    0.031768
   109  H    0.024717
   110  H    0.034073
   111  H    0.029822
   112  H    0.025987
   113  H    0.021701
   114  H    0.039258
   115  H    0.026864
   116  H    0.029249
   117  H    0.035055
   118  H    0.021829
   119  H    0.029683
   120  H    0.021797
   121  H    0.016688
   122  H    0.018074
   123  H    0.023949
   124  H    0.034748
   125  H    0.041604
   126  H    0.032510
   127  H    0.025605
   128  H    0.019057
   129  H    0.018999
   130  H    0.029646
   131  H    0.014724
   132  H    0.030334
   133  H    0.037162
   134  H    0.034493
   135  H    0.030128
   136  H    0.036436
   137  H    0.039713
   138  H    0.029177
   139  H    0.022065
   140  H    0.023941
 Sum of Mulliken charges =  -0.00000

 Dipole moment (field-independent basis, Debye):
    X=             -1.1751    Y=              5.6333    Z=              2.0213  Tot=              6.0992
 Quadrupole moment (field-independent basis, Debye-Ang):
   XX=           -406.5231   YY=           -436.1068   ZZ=           -376.5306
   XY=             52.7617   XZ=            -10.9670   YZ=             24.8005

 Normal termination of Gaussian 16 at Wed Apr 27 00:22:32 2022.
