 Gaussian 16, Revision A.03,
 Gaussian 16:  ES64L-G16RevA.03 25-Dec-2016

 --------------------------------
 #p wB97XD/Def2SVP td=(nstates=5)
 --------------------------------

 ---------------------------------------------------
 step_101_chromophore_2 TDDFT with wB97XD functional
 ---------------------------------------------------
 Symbolic Z-matrix:
 Charge =  0 Multiplicity = 1

                         Standard orientation:
 ---------------------------------------------------------------------
 Center     Atomic      Atomic             Coordinates (Angstroms)
 Number     Number       Type             X           Y           Z
 ---------------------------------------------------------------------
      1         12           0        4.699591    1.313430   -0.416995
      2          6           0        5.237041   -2.040068   -0.662168
      3          6           0        2.478477    1.055876   -3.119760
      4          6           0        3.548512    4.469345    0.277245
      5          6           0        6.647788    1.384093    2.458248
      6          7           0        3.860405   -0.411396   -1.654290
      7          6           0        4.248897   -1.653340   -1.600441
      8          6           0        3.463031   -2.585800   -2.540148
      9          6           0        2.918132   -1.499059   -3.552341
     10          6           0        3.080065   -0.177990   -2.741101
     11          6           0        3.569358   -1.486035   -4.868469
     12          6           0        2.419787   -3.492364   -1.873735
     13          6           0        1.661283   -3.085934   -0.574615
     14          6           0        0.430677   -4.043794   -0.225534
     15          8           0        0.064097   -5.023737   -0.871083
     16          8           0       -0.121257   -3.703856    0.989816
     17          7           0        3.220058    2.646783   -1.296318
     18          6           0        2.564875    2.357930   -2.533815
     19          6           0        1.864187    3.566303   -2.955868
     20          6           0        2.165040    4.527569   -2.029648
     21          6           0        3.058853    3.928571   -0.949313
     22          6           0        0.928229    3.591447   -4.208756
     23          6           0        1.799022    6.093644   -2.101664
     24          8           0        1.193795    6.455818   -3.075783
     25          6           0        2.183165    7.144728   -1.050910
     26          7           0        4.837066    2.583610    1.252231
     27          6           0        4.316850    3.866462    1.300493
     28          6           0        4.921029    4.680635    2.530508
     29          6           0        5.859956    3.635430    3.257152
     30          6           0        5.848100    2.506913    2.223268
     31          6           0        5.473855    6.037785    2.218535
     32          6           0        5.362858    3.270623    4.691633
     33          6           0        6.577159    3.126700    5.553141
     34          7           0        5.952989    0.041471    0.570841
     35          6           0        6.785219    0.255256    1.651851
     36          6           0        7.492620   -0.977450    1.941356
     37          6           0        6.978882   -1.890473    0.969720
     38          6           0        5.962793   -1.233791    0.247654
     39          6           0        8.456578   -1.204619    3.060298
     40          6           0        7.002436   -3.247102    0.487104
     41          8           0        7.712255   -4.157411    0.913824
     42          6           0        5.862901   -3.408823   -0.579297
     43          6           0        6.422089   -3.986529   -1.835121
     44          8           0        6.694103   -5.149594   -2.056511
     45          8           0        6.594407   -2.997513   -2.740378
     46          6           0        7.260730   -3.495710   -3.992954
     47          6           0       -1.411385   -4.415709    1.364801
     48          6           0       -2.472309   -3.359344    1.677003
     49          6           0       -3.450881   -3.263373    2.595286
     50          6           0       -3.827231   -4.421988    3.532051
     51          6           0       -4.409724   -2.057722    2.587261
     52          6           0       -5.437081   -2.047291    1.448577
     53          6           0       -6.874849   -2.380100    2.079077
     54          6           0       -7.554903   -1.085984    2.722733
     55          6           0       -7.519428   -1.314075    4.226813
     56          6           0       -8.932204   -0.896170    2.196948
     57          6           0       -9.328494    0.546030    1.807566
     58          6           0       -9.364267    0.800843    0.270931
     59          6           0      -10.656731    0.217667   -0.501616
     60          6           0      -10.353385   -0.055431   -1.943624
     61          6           0      -11.838897    1.246864   -0.193314
     62          6           0      -13.303163    0.610332   -0.285297
     63          6           0      -14.112974    0.846950   -1.568891
     64          6           0      -15.590539    1.304585   -1.116898
     65          6           0      -16.547097    0.213491   -0.669206
     66          6           0      -16.212107    2.211481   -2.126907
     67          1           0        1.836571    0.911214   -3.990501
     68          1           0        3.119408    5.411470    0.624692
     69          1           0        7.290272    1.394769    3.341076
     70          1           0        4.073433   -3.362613   -3.000034
     71          1           0        1.837149   -1.608935   -3.646997
     72          1           0        4.454289   -2.094157   -5.057344
     73          1           0        3.820298   -0.466779   -5.161404
     74          1           0        2.809724   -1.881663   -5.542229
     75          1           0        2.881851   -4.473986   -1.768490
     76          1           0        1.694090   -3.705720   -2.658982
     77          1           0        1.241438   -2.081871   -0.636885
     78          1           0        2.318038   -3.026604    0.293312
     79          1           0        0.189113    4.382643   -4.084213
     80          1           0        0.204604    2.783291   -4.312603
     81          1           0        1.494807    3.802127   -5.115256
     82          1           0        1.696605    8.103842   -1.227607
     83          1           0        3.224183    7.465132   -1.071488
     84          1           0        1.955809    6.868221   -0.021725
     85          1           0        3.997751    4.851802    3.084306
     86          1           0        6.897424    3.965948    3.298816
     87          1           0        4.855072    6.816539    2.665932
     88          1           0        5.517720    6.187507    1.139672
     89          1           0        6.474188    6.118071    2.642051
     90          1           0        4.824540    2.324113    4.744743
     91          1           0        4.755346    4.061169    5.131619
     92          1           0        7.554741    3.289464    5.099292
     93          1           0        6.569875    2.089762    5.887606
     94          1           0        6.378692    3.786606    6.397800
     95          1           0        8.653536   -2.272210    3.158560
     96          1           0        8.069481   -0.796637    3.994600
     97          1           0        9.309389   -0.577091    2.799018
     98          1           0        5.185360   -4.126221   -0.116042
     99          1           0        7.696441   -2.705605   -4.604822
    100          1           0        6.637418   -4.164004   -4.588005
    101          1           0        8.143486   -4.031688   -3.646089
    102          1           0       -1.222923   -5.098000    2.193847
    103          1           0       -1.794589   -5.156019    0.662620
    104          1           0       -2.268862   -2.504940    1.030094
    105          1           0       -4.913050   -4.515025    3.527407
    106          1           0       -3.402799   -4.236901    4.519450
    107          1           0       -3.316573   -5.358464    3.310747
    108          1           0       -3.821215   -1.152100    2.443276
    109          1           0       -4.854646   -1.921809    3.572985
    110          1           0       -5.206842   -2.718720    0.620279
    111          1           0       -5.373899   -1.058421    0.994992
    112          1           0       -6.730594   -3.248715    2.722665
    113          1           0       -7.379525   -2.854286    1.236683
    114          1           0       -6.985881   -0.171343    2.557116
    115          1           0       -6.657684   -0.894423    4.746763
    116          1           0       -7.303982   -2.364649    4.421561
    117          1           0       -8.352807   -0.808090    4.714940
    118          1           0       -9.643845   -1.311874    2.910536
    119          1           0       -9.082418   -1.471420    1.283231
    120          1           0       -8.704686    1.341364    2.214188
    121          1           0      -10.280642    0.850129    2.243035
    122          1           0       -8.487995    0.419459   -0.253266
    123          1           0       -9.372018    1.870916    0.063076
    124          1           0      -10.866132   -0.749234   -0.045466
    125          1           0      -11.240956   -0.283481   -2.534390
    126          1           0       -9.620813   -0.859481   -2.007488
    127          1           0       -9.843457    0.772464   -2.435923
    128          1           0      -11.800283    2.201880   -0.716543
    129          1           0      -11.855954    1.671331    0.810636
    130          1           0      -13.867087    0.761101    0.635106
    131          1           0      -13.092829   -0.451592   -0.156458
    132          1           0      -14.284907   -0.099106   -2.081326
    133          1           0      -13.719201    1.570044   -2.283295
    134          1           0      -15.437494    1.996009   -0.288221
    135          1           0      -15.902990   -0.592381   -0.318748
    136          1           0      -17.170664   -0.070633   -1.517250
    137          1           0      -17.215271    0.531506    0.130573
    138          1           0      -16.228532    3.253839   -1.809787
    139          1           0      -17.251569    1.991734   -2.372911
    140          1           0      -15.611396    2.158404   -3.034546
 ---------------------------------------------------------------------

 SCF Done:  E(RwB97XD) =  -3007.83986548     A.U. after   17 cycles

 Excitation energies and oscillator strengths:

 Excited State   1:      Singlet-A      1.6634 eV  745.38 nm  f=0.3576  <S**2>=0.000
     245 -> 248        0.19398
     246 -> 247        0.68180
     245 <- 248        0.11959
 This state for optimization and/or second-order correction.
 Total Energy, E(TD-HF/TD-DFT) =  -3007.77873791
 Copying the excited state density for this state as the 1-particle RhoCI density.

 Excited State   2:      Singlet-A      2.2032 eV  562.73 nm  f=0.0894  <S**2>=0.000
     245 -> 247        0.62722
     246 -> 248       -0.31468

 Excited State   3:      Singlet-A      3.3633 eV  368.64 nm  f=0.0045  <S**2>=0.000
     241 -> 247        0.19127
     241 -> 249       -0.13529
     242 -> 247        0.15311
     242 -> 249       -0.16759
     243 -> 247        0.55870
     243 -> 249       -0.16504
     246 -> 248        0.13033

 Excited State   4:      Singlet-A      3.4833 eV  355.94 nm  f=0.1316  <S**2>=0.000
     241 -> 247        0.13780
     241 -> 249       -0.15757
     242 -> 247        0.50125
     242 -> 249       -0.14297
     243 -> 247       -0.23328
     245 -> 247       -0.13454
     246 -> 248       -0.29132

 Excited State   5:      Singlet-A      3.5402 eV  350.22 nm  f=0.3979  <S**2>=0.000
     239 -> 247        0.14835
     241 -> 247       -0.25266
     242 -> 247        0.33010
     243 -> 247       -0.13303
     245 -> 247        0.21861
     246 -> 248        0.48087

 The electronic state is 1-A.
 Alpha  occ. eigenvalues --  -46.95702 -19.30842 -19.30361 -19.24828 -19.24451
 Alpha  occ. eigenvalues --  -19.24373 -19.23437 -14.47198 -14.46710 -14.44618
 Alpha  occ. eigenvalues --  -14.43555 -10.43710 -10.42948 -10.40052 -10.38584
 Alpha  occ. eigenvalues --  -10.36274 -10.35983 -10.35756 -10.35314 -10.35216
 Alpha  occ. eigenvalues --  -10.34909 -10.34906 -10.34762 -10.33388 -10.32679
 Alpha  occ. eigenvalues --  -10.32522 -10.32355 -10.32343 -10.32339 -10.32314
 Alpha  occ. eigenvalues --  -10.32240 -10.32133 -10.32108 -10.32044 -10.32026
 Alpha  occ. eigenvalues --  -10.31910 -10.31285 -10.31070 -10.30973 -10.30672
 Alpha  occ. eigenvalues --  -10.30522 -10.30411 -10.30201 -10.30126 -10.30046
 Alpha  occ. eigenvalues --  -10.29998 -10.29942 -10.29876 -10.29729 -10.29608
 Alpha  occ. eigenvalues --  -10.29483 -10.29469 -10.29361 -10.29138 -10.29125
 Alpha  occ. eigenvalues --  -10.29021 -10.29016 -10.28989 -10.28907 -10.28655
 Alpha  occ. eigenvalues --  -10.28592 -10.28431 -10.28258 -10.28258 -10.28063
 Alpha  occ. eigenvalues --  -10.27185  -3.21607  -1.95180  -1.94737  -1.94565
 Alpha  occ. eigenvalues --   -1.19198  -1.17351  -1.13767  -1.11149  -1.09751
 Alpha  occ. eigenvalues --   -1.08994  -1.07633  -1.06137  -1.04617  -1.03604
 Alpha  occ. eigenvalues --   -0.94927  -0.92090  -0.91603  -0.91465  -0.90932
 Alpha  occ. eigenvalues --   -0.90309  -0.90241  -0.89579  -0.88989  -0.88677
 Alpha  occ. eigenvalues --   -0.87898  -0.86895  -0.86486  -0.85883  -0.85051
 Alpha  occ. eigenvalues --   -0.84180  -0.83822  -0.83068  -0.82693  -0.82298
 Alpha  occ. eigenvalues --   -0.81925  -0.80314  -0.79930  -0.79193  -0.78513
 Alpha  occ. eigenvalues --   -0.77583  -0.77414  -0.77250  -0.77083  -0.76042
 Alpha  occ. eigenvalues --   -0.75134  -0.74441  -0.73703  -0.72705  -0.70748
 Alpha  occ. eigenvalues --   -0.70357  -0.70223  -0.68540  -0.68274  -0.67823
 Alpha  occ. eigenvalues --   -0.67494  -0.67363  -0.66685  -0.66414  -0.66237
 Alpha  occ. eigenvalues --   -0.65295  -0.65069  -0.64421  -0.64250  -0.61960
 Alpha  occ. eigenvalues --   -0.61667  -0.61482  -0.60841  -0.60477  -0.59908
 Alpha  occ. eigenvalues --   -0.59548  -0.58810  -0.58598  -0.58294  -0.57641
 Alpha  occ. eigenvalues --   -0.57151  -0.56782  -0.56307  -0.56044  -0.55997
 Alpha  occ. eigenvalues --   -0.55452  -0.55324  -0.54969  -0.54732  -0.54599
 Alpha  occ. eigenvalues --   -0.54409  -0.54362  -0.53863  -0.53708  -0.53592
 Alpha  occ. eigenvalues --   -0.53481  -0.53400  -0.53047  -0.52910  -0.52608
 Alpha  occ. eigenvalues --   -0.52479  -0.52098  -0.51923  -0.51580  -0.51551
 Alpha  occ. eigenvalues --   -0.51523  -0.51239  -0.50991  -0.50959  -0.50667
 Alpha  occ. eigenvalues --   -0.50652  -0.50332  -0.50165  -0.49821  -0.49460
 Alpha  occ. eigenvalues --   -0.49379  -0.49106  -0.49000  -0.48759  -0.48611
 Alpha  occ. eigenvalues --   -0.48473  -0.48262  -0.48182  -0.47968  -0.47692
 Alpha  occ. eigenvalues --   -0.47541  -0.47368  -0.47249  -0.47156  -0.47001
 Alpha  occ. eigenvalues --   -0.46899  -0.46367  -0.46339  -0.46019  -0.45854
 Alpha  occ. eigenvalues --   -0.45743  -0.45649  -0.45618  -0.45546  -0.45227
 Alpha  occ. eigenvalues --   -0.44988  -0.44816  -0.44674  -0.44540  -0.44219
 Alpha  occ. eigenvalues --   -0.44165  -0.43991  -0.43614  -0.43406  -0.43352
 Alpha  occ. eigenvalues --   -0.43029  -0.42444  -0.42154  -0.41625  -0.41465
 Alpha  occ. eigenvalues --   -0.41363  -0.41064  -0.40775  -0.40643  -0.40354
 Alpha  occ. eigenvalues --   -0.40158  -0.40096  -0.39569  -0.39499  -0.39248
 Alpha  occ. eigenvalues --   -0.39198  -0.39017  -0.38956  -0.38749  -0.38644
 Alpha  occ. eigenvalues --   -0.38203  -0.37232  -0.37058  -0.36628  -0.36351
 Alpha  occ. eigenvalues --   -0.36088  -0.35742  -0.35638  -0.33844  -0.32941
 Alpha  occ. eigenvalues --   -0.32577  -0.32291  -0.31573  -0.31460  -0.26135
 Alpha  occ. eigenvalues --   -0.23011
 Alpha virt. eigenvalues --   -0.06943  -0.00049   0.02591   0.04487   0.05087
 Alpha virt. eigenvalues --    0.07268   0.07367   0.08245   0.08386   0.09559
 Alpha virt. eigenvalues --    0.10043   0.10991   0.11489   0.12156   0.12379

 Mulliken charges:
               1
     1  Mg   0.947826
     2  C    0.019657
     3  C   -0.060365
     4  C   -0.098161
     5  C   -0.100844
     6  N   -0.287108
     7  C   -0.019514
     8  C   -0.023586
     9  C   -0.103377
    10  C    0.006927
    11  C    0.048439
    12  C   -0.002703
    13  C   -0.029210
    14  C    0.247345
    15  O   -0.266275
    16  O   -0.376183
    17  N   -0.440894
    18  C    0.144371
    19  C   -0.147757
    20  C   -0.102349
    21  C    0.177353
    22  C    0.070271
    23  C    0.077982
    24  O   -0.207981
    25  C   -0.031177
    26  N   -0.407296
    27  C    0.070629
    28  C   -0.113268
    29  C   -0.078463
    30  C    0.091307
    31  C    0.045709
    32  C    0.012503
    33  C   -0.069679
    34  N   -0.447401
    35  C    0.144460
    36  C   -0.210460
    37  C    0.004569
    38  C    0.102682
    39  C    0.086430
    40  C    0.066101
    41  O   -0.207031
    42  C   -0.089437
    43  C    0.249630
    44  O   -0.235438
    45  O   -0.362580
    46  C    0.133983
    47  C    0.241718
    48  C   -0.127234
    49  C   -0.182166
    50  C    0.026806
    51  C    0.019178
    52  C   -0.027440
    53  C   -0.014761
    54  C   -0.137684
    55  C    0.008047
    56  C    0.045928
    57  C   -0.010480
    58  C   -0.033498
    59  C   -0.150427
    60  C    0.020954
    61  C   -0.014318
    62  C   -0.036213
    63  C    0.018903
    64  C   -0.249404
    65  C    0.017093
    66  C    0.003026
    67  H    0.005589
    68  H   -0.015989
    69  H   -0.015607
    70  H    0.025600
    71  H    0.034169
    72  H    0.040454
    73  H    0.035234
    74  H    0.035594
    75  H    0.042705
    76  H    0.036797
    77  H    0.059391
    78  H    0.067432
    79  H    0.045627
    80  H    0.040056
    81  H    0.060567
    82  H    0.047186
    83  H    0.060422
    84  H    0.063801
    85  H    0.040207
    86  H    0.036931
    87  H    0.033188
    88  H    0.039646
    89  H    0.033534
    90  H    0.046345
    91  H    0.034708
    92  H    0.043075
    93  H    0.033800
    94  H    0.038734
    95  H    0.070236
    96  H    0.040566
    97  H    0.050529
    98  H    0.080106
    99  H    0.055288
   100  H    0.063196
   101  H    0.060788
   102  H    0.036678
   103  H    0.068818
   104  H    0.016076
   105  H    0.045806
   106  H    0.046461
   107  H    0.022623
   108  H    0.024876
   109  H    0.009969
   110  H    0.026732
   111  H    0.022145
   112  H    0.010275
   113  H    0.014275
   114  H    0.026549
   115  H    0.021308
   116  H    0.022014
   117  H    0.029848
   118  H    0.014712
   119  H    0.014892
   120  H    0.014240
   121  H    0.008186
   122  H    0.007876
   123  H    0.014422
   124  H    0.020830
   125  H    0.035315
   126  H    0.026340
   127  H    0.018870
   128  H    0.011030
   129  H    0.009772
   130  H    0.021136
   131  H    0.004429
   132  H    0.021351
   133  H    0.028983
   134  H    0.020865
   135  H    0.022903
   136  H    0.029695
   137  H    0.035014
   138  H    0.024064
   139  H    0.016259
   140  H    0.016793
 Sum of Mulliken charges =  -0.00000

 Dipole moment (field-independent basis, Debye):
    X=             -1.3618    Y=              5.8171    Z=              1.7208  Tot=              6.2172
 Quadrupole moment (field-independent basis, Debye-Ang):
   XX=           -407.5923   YY=           -435.1612   ZZ=           -376.0964
   XY=             52.9036   XZ=            -12.5762   YZ=             23.9214

 Normal termination of Gaussian 16 at Wed Apr 27 00:49:56 2022.
