 Gaussian 16, Revision A.03,
 Gaussian 16:  ES64L-G16RevA.03 25-Dec-2016

 --------------------
 #p ZINDO=(nstates=5)
 --------------------

 ----------------------------
 step_101_chromophore_2 ZINDO
 ----------------------------
 Symbolic Z-matrix:
 Charge =  0 Multiplicity = 1

                         Standard orientation:
 ---------------------------------------------------------------------
 Center     Atomic      Atomic             Coordinates (Angstroms)
 Number     Number       Type             X           Y           Z
 ---------------------------------------------------------------------
      1         12           0        4.699591    1.313430   -0.416995
      2          6           0        5.237041   -2.040068   -0.662168
      3          6           0        2.478477    1.055876   -3.119760
      4          6           0        3.548512    4.469345    0.277245
      5          6           0        6.647788    1.384093    2.458248
      6          7           0        3.860405   -0.411396   -1.654290
      7          6           0        4.248897   -1.653340   -1.600441
      8          6           0        3.463031   -2.585800   -2.540148
      9          6           0        2.918132   -1.499059   -3.552341
     10          6           0        3.080065   -0.177990   -2.741101
     11          6           0        3.569358   -1.486035   -4.868469
     12          6           0        2.419787   -3.492364   -1.873735
     13          6           0        1.661283   -3.085934   -0.574615
     14          6           0        0.430677   -4.043794   -0.225534
     15          8           0        0.064097   -5.023737   -0.871083
     16          8           0       -0.121257   -3.703856    0.989816
     17          7           0        3.220058    2.646783   -1.296318
     18          6           0        2.564875    2.357930   -2.533815
     19          6           0        1.864187    3.566303   -2.955868
     20          6           0        2.165040    4.527569   -2.029648
     21          6           0        3.058853    3.928571   -0.949313
     22          6           0        0.928229    3.591447   -4.208756
     23          6           0        1.799022    6.093644   -2.101664
     24          8           0        1.193795    6.455818   -3.075783
     25          6           0        2.183165    7.144728   -1.050910
     26          7           0        4.837066    2.583610    1.252231
     27          6           0        4.316850    3.866462    1.300493
     28          6           0        4.921029    4.680635    2.530508
     29          6           0        5.859956    3.635430    3.257152
     30          6           0        5.848100    2.506913    2.223268
     31          6           0        5.473855    6.037785    2.218535
     32          6           0        5.362858    3.270623    4.691633
     33          6           0        6.577159    3.126700    5.553141
     34          7           0        5.952989    0.041471    0.570841
     35          6           0        6.785219    0.255256    1.651851
     36          6           0        7.492620   -0.977450    1.941356
     37          6           0        6.978882   -1.890473    0.969720
     38          6           0        5.962793   -1.233791    0.247654
     39          6           0        8.456578   -1.204619    3.060298
     40          6           0        7.002436   -3.247102    0.487104
     41          8           0        7.712255   -4.157411    0.913824
     42          6           0        5.862901   -3.408823   -0.579297
     43          6           0        6.422089   -3.986529   -1.835121
     44          8           0        6.694103   -5.149594   -2.056511
     45          8           0        6.594407   -2.997513   -2.740378
     46          6           0        7.260730   -3.495710   -3.992954
     47          6           0       -1.411385   -4.415709    1.364801
     48          6           0       -2.472309   -3.359344    1.677003
     49          6           0       -3.450881   -3.263373    2.595286
     50          6           0       -3.827231   -4.421988    3.532051
     51          6           0       -4.409724   -2.057722    2.587261
     52          6           0       -5.437081   -2.047291    1.448577
     53          6           0       -6.874849   -2.380100    2.079077
     54          6           0       -7.554903   -1.085984    2.722733
     55          6           0       -7.519428   -1.314075    4.226813
     56          6           0       -8.932204   -0.896170    2.196948
     57          6           0       -9.328494    0.546030    1.807566
     58          6           0       -9.364267    0.800843    0.270931
     59          6           0      -10.656731    0.217667   -0.501616
     60          6           0      -10.353385   -0.055431   -1.943624
     61          6           0      -11.838897    1.246864   -0.193314
     62          6           0      -13.303163    0.610332   -0.285297
     63          6           0      -14.112974    0.846950   -1.568891
     64          6           0      -15.590539    1.304585   -1.116898
     65          6           0      -16.547097    0.213491   -0.669206
     66          6           0      -16.212107    2.211481   -2.126907
     67          1           0        1.836571    0.911214   -3.990501
     68          1           0        3.119408    5.411470    0.624692
     69          1           0        7.290272    1.394769    3.341076
     70          1           0        4.073433   -3.362613   -3.000034
     71          1           0        1.837149   -1.608935   -3.646997
     72          1           0        4.454289   -2.094157   -5.057344
     73          1           0        3.820298   -0.466779   -5.161404
     74          1           0        2.809724   -1.881663   -5.542229
     75          1           0        2.881851   -4.473986   -1.768490
     76          1           0        1.694090   -3.705720   -2.658982
     77          1           0        1.241438   -2.081871   -0.636885
     78          1           0        2.318038   -3.026604    0.293312
     79          1           0        0.189113    4.382643   -4.084213
     80          1           0        0.204604    2.783291   -4.312603
     81          1           0        1.494807    3.802127   -5.115256
     82          1           0        1.696605    8.103842   -1.227607
     83          1           0        3.224183    7.465132   -1.071488
     84          1           0        1.955809    6.868221   -0.021725
     85          1           0        3.997751    4.851802    3.084306
     86          1           0        6.897424    3.965948    3.298816
     87          1           0        4.855072    6.816539    2.665932
     88          1           0        5.517720    6.187507    1.139672
     89          1           0        6.474188    6.118071    2.642051
     90          1           0        4.824540    2.324113    4.744743
     91          1           0        4.755346    4.061169    5.131619
     92          1           0        7.554741    3.289464    5.099292
     93          1           0        6.569875    2.089762    5.887606
     94          1           0        6.378692    3.786606    6.397800
     95          1           0        8.653536   -2.272210    3.158560
     96          1           0        8.069481   -0.796637    3.994600
     97          1           0        9.309389   -0.577091    2.799018
     98          1           0        5.185360   -4.126221   -0.116042
     99          1           0        7.696441   -2.705605   -4.604822
    100          1           0        6.637418   -4.164004   -4.588005
    101          1           0        8.143486   -4.031688   -3.646089
    102          1           0       -1.222923   -5.098000    2.193847
    103          1           0       -1.794589   -5.156019    0.662620
    104          1           0       -2.268862   -2.504940    1.030094
    105          1           0       -4.913050   -4.515025    3.527407
    106          1           0       -3.402799   -4.236901    4.519450
    107          1           0       -3.316573   -5.358464    3.310747
    108          1           0       -3.821215   -1.152100    2.443276
    109          1           0       -4.854646   -1.921809    3.572985
    110          1           0       -5.206842   -2.718720    0.620279
    111          1           0       -5.373899   -1.058421    0.994992
    112          1           0       -6.730594   -3.248715    2.722665
    113          1           0       -7.379525   -2.854286    1.236683
    114          1           0       -6.985881   -0.171343    2.557116
    115          1           0       -6.657684   -0.894423    4.746763
    116          1           0       -7.303982   -2.364649    4.421561
    117          1           0       -8.352807   -0.808090    4.714940
    118          1           0       -9.643845   -1.311874    2.910536
    119          1           0       -9.082418   -1.471420    1.283231
    120          1           0       -8.704686    1.341364    2.214188
    121          1           0      -10.280642    0.850129    2.243035
    122          1           0       -8.487995    0.419459   -0.253266
    123          1           0       -9.372018    1.870916    0.063076
    124          1           0      -10.866132   -0.749234   -0.045466
    125          1           0      -11.240956   -0.283481   -2.534390
    126          1           0       -9.620813   -0.859481   -2.007488
    127          1           0       -9.843457    0.772464   -2.435923
    128          1           0      -11.800283    2.201880   -0.716543
    129          1           0      -11.855954    1.671331    0.810636
    130          1           0      -13.867087    0.761101    0.635106
    131          1           0      -13.092829   -0.451592   -0.156458
    132          1           0      -14.284907   -0.099106   -2.081326
    133          1           0      -13.719201    1.570044   -2.283295
    134          1           0      -15.437494    1.996009   -0.288221
    135          1           0      -15.902990   -0.592381   -0.318748
    136          1           0      -17.170664   -0.070633   -1.517250
    137          1           0      -17.215271    0.531506    0.130573
    138          1           0      -16.228532    3.253839   -1.809787
    139          1           0      -17.251569    1.991734   -2.372911
    140          1           0      -15.611396    2.158404   -3.034546
 ---------------------------------------------------------------------

 SCF Done:  E(RZINDO/S) =  -474.052638815     A.U. after   20 cycles

 Excitation energies and oscillator strengths:

 Excited State   1:      Singlet-A      1.2573 eV  986.15 nm  f=0.5577  <S**2>=0.000
     175 ->178         0.19091
     176 ->177         0.66394
 This state for optimization and/or second-order correction.
 Total Energy, E(CIS/TDA) =  -474.006435446
 Copying the excited state density for this state as the 1-particle RhoCI density.

 Excited State   2:      Singlet-A      1.9011 eV  652.19 nm  f=0.0228  <S**2>=0.000
     175 ->177         0.53025
     176 ->178        -0.44238

 Excited State   3:      Singlet-A      2.9144 eV  425.42 nm  f=0.0055  <S**2>=0.000
     171 ->177         0.32179
     171 ->178        -0.10330
     171 ->179         0.33606
     171 ->180        -0.29449
     171 ->185         0.16738
     171 ->188         0.17417
     174 ->177        -0.18310
     174 ->179        -0.10390

 Excited State   4:      Singlet-A      2.9733 eV  416.99 nm  f=0.9774  <S**2>=0.000
     174 ->177         0.12223
     175 ->177         0.38742
     176 ->178         0.49419
     176 ->179        -0.19586
     176 ->180         0.11352

 Excited State   5:      Singlet-A      3.0545 eV  405.90 nm  f=0.0075  <S**2>=0.000
     167 ->179         0.11192
     167 ->180         0.11265
     168 ->177         0.25347
     168 ->179        -0.35542
     168 ->180        -0.35468
     168 ->184        -0.12687
     168 ->185        -0.24239
     168 ->194         0.10796

 The electronic state is 1-A.
 Alpha  occ. eigenvalues --   -1.86121  -1.80728  -1.78422  -1.73803  -1.70758
 Alpha  occ. eigenvalues --   -1.69087  -1.64452  -1.60205  -1.59767  -1.58279
 Alpha  occ. eigenvalues --   -1.55244  -1.50213  -1.49577  -1.48015  -1.47126
 Alpha  occ. eigenvalues --   -1.44187  -1.42730  -1.40975  -1.38805  -1.36940
 Alpha  occ. eigenvalues --   -1.36329  -1.34076  -1.32146  -1.30375  -1.28173
 Alpha  occ. eigenvalues --   -1.27626  -1.26269  -1.22625  -1.21217  -1.18457
 Alpha  occ. eigenvalues --   -1.16977  -1.16048  -1.15542  -1.14892  -1.13683
 Alpha  occ. eigenvalues --   -1.12482  -1.10533  -1.09891  -1.05680  -1.04924
 Alpha  occ. eigenvalues --   -1.02236  -1.01263  -0.99957  -0.98220  -0.96593
 Alpha  occ. eigenvalues --   -0.96104  -0.93712  -0.93341  -0.93019  -0.92319
 Alpha  occ. eigenvalues --   -0.90975  -0.90675  -0.88983  -0.88511  -0.87076
 Alpha  occ. eigenvalues --   -0.85791  -0.84449  -0.83352  -0.83127  -0.80975
 Alpha  occ. eigenvalues --   -0.80114  -0.78322  -0.77765  -0.77526  -0.76945
 Alpha  occ. eigenvalues --   -0.76518  -0.75079  -0.74035  -0.73642  -0.73469
 Alpha  occ. eigenvalues --   -0.73300  -0.72361  -0.71885  -0.71650  -0.71371
 Alpha  occ. eigenvalues --   -0.71305  -0.69783  -0.69236  -0.68285  -0.68084
 Alpha  occ. eigenvalues --   -0.67774  -0.67597  -0.67254  -0.65910  -0.65718
 Alpha  occ. eigenvalues --   -0.65559  -0.65356  -0.64751  -0.64492  -0.63611
 Alpha  occ. eigenvalues --   -0.63544  -0.63218  -0.62756  -0.62115  -0.61819
 Alpha  occ. eigenvalues --   -0.61711  -0.61536  -0.61322  -0.60661  -0.60197
 Alpha  occ. eigenvalues --   -0.59531  -0.59315  -0.58963  -0.58418  -0.57758
 Alpha  occ. eigenvalues --   -0.57508  -0.57149  -0.56932  -0.56729  -0.56141
 Alpha  occ. eigenvalues --   -0.55895  -0.55587  -0.55494  -0.55079  -0.54797
 Alpha  occ. eigenvalues --   -0.54695  -0.54516  -0.54192  -0.53969  -0.53685
 Alpha  occ. eigenvalues --   -0.53149  -0.52839  -0.52345  -0.52008  -0.51868
 Alpha  occ. eigenvalues --   -0.51738  -0.51564  -0.51315  -0.50808  -0.50483
 Alpha  occ. eigenvalues --   -0.50250  -0.50023  -0.49662  -0.49391  -0.48930
 Alpha  occ. eigenvalues --   -0.48584  -0.48478  -0.48412  -0.47995  -0.47895
 Alpha  occ. eigenvalues --   -0.47480  -0.47459  -0.46833  -0.46741  -0.46490
 Alpha  occ. eigenvalues --   -0.45907  -0.45826  -0.45756  -0.45659  -0.45326
 Alpha  occ. eigenvalues --   -0.44979  -0.44863  -0.44775  -0.44649  -0.44391
 Alpha  occ. eigenvalues --   -0.43623  -0.43259  -0.43199  -0.43179  -0.42358
 Alpha  occ. eigenvalues --   -0.42280  -0.42055  -0.41987  -0.39295  -0.39206
 Alpha  occ. eigenvalues --   -0.38216  -0.37583  -0.36043  -0.35405  -0.34726
 Alpha  occ. eigenvalues --   -0.34385  -0.32696  -0.32238  -0.31908  -0.27054
 Alpha  occ. eigenvalues --   -0.22037
 Alpha virt. eigenvalues --   -0.08661  -0.02605  -0.00364   0.01138   0.01384
 Alpha virt. eigenvalues --    0.01741   0.02282   0.02953   0.04235   0.04750
 Alpha virt. eigenvalues --    0.05511   0.05931   0.06719   0.07270   0.07600

 Mulliken charges:
               1
     1  Mg   0.426389
     2  C   -0.052248
     3  C   -0.065216
     4  C   -0.106639
     5  C   -0.064173
     6  N   -0.257077
     7  C    0.119583
     8  C    0.001257
     9  C    0.016736
    10  C    0.125964
    11  C   -0.040584
    12  C   -0.022173
    13  C    0.011686
    14  C    0.457485
    15  O   -0.511221
    16  O   -0.270534
    17  N   -0.325398
    18  C    0.098545
    19  C    0.052566
    20  C   -0.035238
    21  C    0.150471
    22  C   -0.044060
    23  C    0.321473
    24  O   -0.494259
    25  C   -0.027718
    26  N   -0.287866
    27  C    0.144291
    28  C    0.000401
    29  C    0.002949
    30  C    0.092004
    31  C   -0.044813
    32  C   -0.022554
    33  C   -0.060279
    34  N   -0.311524
    35  C    0.074685
    36  C    0.020517
    37  C   -0.065072
    38  C    0.108259
    39  C   -0.034898
    40  C    0.327840
    41  O   -0.524541
    42  C    0.056047
    43  C    0.490968
    44  O   -0.511452
    45  O   -0.271698
    46  C    0.067300
    47  C    0.103698
    48  C   -0.080726
    49  C   -0.008580
    50  C   -0.047347
    51  C   -0.017897
    52  C   -0.036221
    53  C   -0.045058
    54  C    0.005217
    55  C   -0.064768
    56  C   -0.021576
    57  C   -0.035331
    58  C   -0.041832
    59  C   -0.004351
    60  C   -0.047047
    61  C   -0.044816
    62  C   -0.045804
    63  C   -0.030416
    64  C   -0.017396
    65  C   -0.050846
    66  C   -0.057051
    67  H    0.029668
    68  H    0.023657
    69  H    0.023440
    70  H    0.037622
    71  H    0.028292
    72  H    0.028934
    73  H    0.020518
    74  H    0.014803
    75  H    0.028881
    76  H    0.023593
    77  H    0.040222
    78  H    0.045500
    79  H    0.029699
    80  H    0.030866
    81  H    0.041599
    82  H    0.033084
    83  H    0.038807
    84  H    0.033800
    85  H    0.026018
    86  H    0.035572
    87  H    0.019412
    88  H    0.024325
    89  H    0.020146
    90  H    0.030099
    91  H    0.020887
    92  H    0.027739
    93  H    0.014032
    94  H    0.017346
    95  H    0.041657
    96  H    0.025840
    97  H    0.033504
    98  H    0.061273
    99  H    0.031540
   100  H    0.049589
   101  H    0.044039
   102  H    0.037925
   103  H    0.062110
   104  H    0.021833
   105  H    0.032377
   106  H    0.027825
   107  H    0.021913
   108  H    0.011845
   109  H    0.023155
   110  H    0.022890
   111  H    0.017029
   112  H    0.025301
   113  H    0.011473
   114  H    0.028497
   115  H    0.005910
   116  H    0.027982
   117  H    0.022282
   118  H    0.016752
   119  H    0.016648
   120  H    0.013982
   121  H    0.016534
   122  H    0.016452
   123  H    0.012843
   124  H    0.023184
   125  H    0.019443
   126  H    0.015435
   127  H    0.014817
   128  H    0.022718
   129  H    0.013583
   130  H    0.023856
   131  H    0.007352
   132  H    0.019115
   133  H    0.031393
   134  H    0.011663
   135  H    0.017400
   136  H    0.021934
   137  H    0.020653
   138  H    0.011880
   139  H    0.014413
   140  H    0.013571
 Sum of Mulliken charges =   0.00000

 Dipole moment (field-independent basis, Debye):
    X=             -2.6753    Y=              8.3860    Z=              1.8140  Tot=              8.9874
 N-N= 4.302791862686D+03 E-N= 0.000000000000D+00  KE=-9.278977230905D+03
 Leave Link  601 at Wed Apr 27 01:02:33 2022, MaxMem=  6710886400 cpu:               0.8 elap:               0.0
 (Enter /sw/apps/gaussian-16.0/g16/l9999.exe)
 1\1\GINC-BP1-COMPUTE165\SP\RZINDO CIS\STO-3G\C55H74Mg1N4O6\OF15641\27-
 Apr-2022\0\\#p ZINDO=(nstates=5)\\step_101_chromophore_2 ZINDO\\0,1\Mg
 ,0,3.216,0.079,44.437\C,0,6.091,1.852,44.006\C,0,1.441,2.849,43.22\C,0
 ,0.43,-1.896,44.114\C,0,5.101,-2.709,45.298\N,0,3.795,2.107,43.564\C,0
 ,4.995,2.612,43.529\C,0,5.064,3.989,42.844\C,0,3.546,4.407,42.997\C,0,
 2.851,3.04,43.276\C,0,3.279,5.44,44.006\C,0,5.645,4.008,41.424\C,0,5.5
 17,2.8,40.448\C,0,5.937,3.144,38.945\O,0,6.334,4.231,38.53\O,0,5.915,2

 Normal termination of Gaussian 16 at Wed Apr 27 01:02:33 2022.
