 Gaussian 16, Revision A.03,
 Gaussian 16:  ES64L-G16RevA.03 25-Dec-2016

 ------------------------------
 #p blyp/Def2SVP td=(nstates=5)
 ------------------------------

 ---------------------------------------------------
 step_1151_chromophore_22 TDDFT with blyp functional
 ---------------------------------------------------
 Symbolic Z-matrix:
 Charge =  0 Multiplicity = 1

                         Standard orientation:
 ---------------------------------------------------------------------
 Center     Atomic      Atomic             Coordinates (Angstroms)
 Number     Number       Type             X           Y           Z
 ---------------------------------------------------------------------
      1         12           0        5.837448    0.551588   -0.237158
      2          6           0        3.837254   -2.277513   -0.112084
      3          6           0        3.450462    2.159075   -2.054171
      4          6           0        7.662303    3.369169   -0.070532
      5          6           0        8.442031   -1.272343    1.280134
      6          7           0        3.922615   -0.089012   -1.162285
      7          6           0        3.256878   -1.270158   -0.879092
      8          6           0        1.994371   -1.299859   -1.662837
      9          6           0        2.024240    0.027712   -2.494955
     10          6           0        3.223217    0.772390   -1.906024
     11          6           0        2.077904   -0.148165   -4.005877
     12          6           0        0.748461   -1.689483   -0.810267
     13          6           0       -0.647323   -1.239479   -1.213023
     14          6           0       -1.880525   -2.112182   -1.142917
     15          8           0       -2.238032   -2.854183   -2.043309
     16          8           0       -2.506083   -2.031844    0.102845
     17          7           0        5.547450    2.556158   -0.816771
     18          6           0        4.493425    3.002565   -1.590306
     19          6           0        4.648530    4.452627   -1.773528
     20          6           0        5.841915    4.847910   -1.100834
     21          6           0        6.401130    3.548348   -0.607474
     22          6           0        3.657020    5.209502   -2.572307
     23          6           0        6.411265    6.194965   -0.850042
     24          8           0        7.476033    6.301011   -0.186056
     25          6           0        5.688756    7.464177   -1.152427
     26          7           0        7.859367    0.960015    0.393791
     27          6           0        8.373088    2.222838    0.331284
     28          6           0        9.845275    2.276384    0.853625
     29          6           0        9.979932    0.763878    1.441516
     30          6           0        8.622991    0.091001    1.036501
     31          6           0       10.961908    2.696337   -0.116661
     32          6           0       10.330402    0.557566    2.944860
     33          6           0       11.475539   -0.431696    3.211122
     34          7           0        6.219184   -1.360113    0.302587
     35          6           0        7.272067   -1.965486    1.002389
     36          6           0        6.946839   -3.341208    1.274701
     37          6           0        5.605796   -3.521609    0.941715
     38          6           0        5.213443   -2.270159    0.388700
     39          6           0        7.895834   -4.303603    1.769995
     40          6           0        4.499345   -4.443907    0.812170
     41          8           0        4.438515   -5.610662    1.172520
     42          6           0        3.235116   -3.630071    0.309687
     43          6           0        2.294860   -3.349553    1.365627
     44          8           0        2.354144   -2.524455    2.225594
     45          8           0        1.344984   -4.337996    1.248531
     46          6           0        0.202544   -4.351413    2.152715
     47          6           0       -3.526755   -3.107032    0.404263
     48          6           0       -4.919473   -2.711894    0.059397
     49          6           0       -6.005547   -3.438084   -0.234576
     50          6           0       -5.937170   -4.927852   -0.127513
     51          6           0       -7.251227   -2.729111   -0.790027
     52          6           0       -7.396107   -2.487886   -2.329594
     53          6           0       -8.180962   -1.234098   -2.774043
     54          6           0       -9.676422   -1.188726   -2.323631
     55          6           0      -10.433117   -1.766087   -3.461692
     56          6           0      -10.132250    0.227066   -1.946564
     57          6           0      -10.577264    0.432977   -0.469102
     58          6           0      -12.113373    0.225111   -0.347463
     59          6           0      -13.046807    1.389603   -0.162524
     60          6           0      -14.364378    0.966164   -0.960593
     61          6           0      -13.380162    1.709023    1.330838
     62          6           0      -13.894289    3.148230    1.496012
     63          6           0      -12.854709    3.882273    2.366101
     64          6           0      -13.176777    3.926488    3.867510
     65          6           0      -12.670816    5.275060    4.560944
     66          6           0      -12.460891    2.792272    4.584008
     67          1           0        2.687331    2.740945   -2.574961
     68          1           0        8.292188    4.257033    0.016106
     69          1           0        9.233966   -1.669667    1.918355
     70          1           0        2.014181   -2.156312   -2.336863
     71          1           0        1.200264    0.681966   -2.210666
     72          1           0        2.495922   -1.130273   -4.222525
     73          1           0        2.849792    0.505239   -4.411923
     74          1           0        1.081049    0.004103   -4.420865
     75          1           0        0.874655   -1.177161    0.143825
     76          1           0        0.741249   -2.779188   -0.822933
     77          1           0       -0.595066   -1.161592   -2.299063
     78          1           0       -0.944904   -0.290924   -0.765269
     79          1           0        3.032788    4.558106   -3.182820
     80          1           0        4.289383    5.818567   -3.218029
     81          1           0        3.069462    5.819591   -1.885638
     82          1           0        4.979605    7.699399   -0.359104
     83          1           0        5.071659    7.391244   -2.047750
     84          1           0        6.361267    8.305785   -0.982072
     85          1           0        9.937272    2.951349    1.704702
     86          1           0       10.694210    0.276239    0.777766
     87          1           0       11.743522    1.940380   -0.179100
     88          1           0       11.338965    3.685869    0.142727
     89          1           0       10.479889    2.667010   -1.094340
     90          1           0        9.392278    0.232230    3.395693
     91          1           0       10.583022    1.535651    3.355302
     92          1           0       11.988901   -0.737811    2.299606
     93          1           0       11.039965   -1.319796    3.668952
     94          1           0       12.218320    0.018610    3.870717
     95          1           0        8.393170   -3.853758    2.628249
     96          1           0        8.544254   -4.548939    0.928949
     97          1           0        7.314642   -5.166796    2.095091
     98          1           0        2.829414   -4.159001   -0.552404
     99          1           0        0.102083   -3.551599    2.886142
    100          1           0        0.409178   -5.291252    2.664265
    101          1           0       -0.687055   -4.418979    1.526336
    102          1           0       -3.614459   -3.333861    1.466857
    103          1           0       -3.249261   -4.048480   -0.071277
    104          1           0       -4.870356   -1.643328   -0.148482
    105          1           0       -5.923600   -5.363846   -1.125943
    106          1           0       -6.794205   -5.363880    0.385784
    107          1           0       -5.039460   -5.274190    0.384661
    108          1           0       -7.368851   -1.797588   -0.234834
    109          1           0       -8.026385   -3.430929   -0.484263
    110          1           0       -7.886411   -3.358352   -2.763502
    111          1           0       -6.394567   -2.310318   -2.721436
    112          1           0       -7.872287   -1.109228   -3.811879
    113          1           0       -7.737638   -0.426167   -2.192458
    114          1           0       -9.811340   -1.897783   -1.507443
    115          1           0      -10.085526   -1.724962   -4.494590
    116          1           0      -11.455149   -1.394715   -3.403098
    117          1           0      -10.429116   -2.833496   -3.241315
    118          1           0      -11.008479    0.527914   -2.521818
    119          1           0       -9.469095    1.023801   -2.285645
    120          1           0      -10.229183    1.422636   -0.175635
    121          1           0       -9.975976   -0.303743    0.063905
    122          1           0      -12.255947   -0.448531    0.497031
    123          1           0      -12.384810   -0.498613   -1.115590
    124          1           0      -12.643265    2.256400   -0.687473
    125          1           0      -14.827394    1.887984   -1.311708
    126          1           0      -15.069196    0.318928   -0.436190
    127          1           0      -14.117632    0.510735   -1.919679
    128          1           0      -12.468438    1.561099    1.910403
    129          1           0      -14.190929    1.052397    1.645182
    130          1           0      -14.867759    3.024897    1.969968
    131          1           0      -13.861261    3.597298    0.503294
    132          1           0      -12.889587    4.900423    1.976110
    133          1           0      -11.839643    3.528662    2.185290
    134          1           0      -14.204198    3.768185    4.195460
    135          1           0      -12.157113    5.878934    3.812564
    136          1           0      -11.984205    5.033928    5.371505
    137          1           0      -13.554986    5.800145    4.921213
    138          1           0      -12.960583    1.894290    4.220391
    139          1           0      -12.475488    2.809435    5.674187
    140          1           0      -11.436011    2.731973    4.218829
 ---------------------------------------------------------------------

 SCF Done:  E(RB-LYP) =  -3007.36258025     A.U. after   21 cycles

 Excitation energies and oscillator strengths:

 Excited State   1:      Singlet-A      1.7973 eV  689.83 nm  f=0.2946  <S**2>=0.000
     245 -> 248        0.17034
     245 -> 249        0.10428
     246 -> 247        0.68658
     246 <- 247       -0.14834
 This state for optimization and/or second-order correction.
 Total Energy, E(TD-HF/TD-DFT) =  -3007.29653009
 Copying the excited state density for this state as the 1-particle RhoCI density.

 Excited State   2:      Singlet-A      1.9321 eV  641.71 nm  f=0.0075  <S**2>=0.000
     244 -> 247        0.67297
     245 -> 247        0.20070

 Excited State   3:      Singlet-A      2.0185 eV  614.24 nm  f=0.0662  <S**2>=0.000
     243 -> 247        0.11595
     244 -> 247       -0.21032
     245 -> 247        0.60625
     246 -> 248       -0.21638
     246 -> 249       -0.12758

 Excited State   4:      Singlet-A      2.1741 eV  570.28 nm  f=0.0032  <S**2>=0.000
     243 -> 247        0.69427

 Excited State   5:      Singlet-A      2.3097 eV  536.80 nm  f=0.0001  <S**2>=0.000
     242 -> 247        0.70710

 The electronic state is 1-A.
 Alpha  occ. eigenvalues --  -46.26786 -18.82467 -18.81315 -18.77328 -18.76830
 Alpha  occ. eigenvalues --  -18.76077 -18.74909 -14.03009 -14.02742 -14.01130
 Alpha  occ. eigenvalues --  -14.01022 -10.04595 -10.03408 -10.00124  -9.99750
 Alpha  occ. eigenvalues --   -9.98289  -9.97346  -9.96645  -9.96508  -9.96237
 Alpha  occ. eigenvalues --   -9.95833  -9.95805  -9.95543  -9.95129  -9.95034
 Alpha  occ. eigenvalues --   -9.94249  -9.94126  -9.93942  -9.93807  -9.93740
 Alpha  occ. eigenvalues --   -9.93650  -9.93629  -9.93498  -9.93472  -9.93236
 Alpha  occ. eigenvalues --   -9.93056  -9.93050  -9.92989  -9.92629  -9.92621
 Alpha  occ. eigenvalues --   -9.92505  -9.92471  -9.92242  -9.92219  -9.92216
 Alpha  occ. eigenvalues --   -9.92011  -9.91921  -9.91903  -9.91857  -9.91803
 Alpha  occ. eigenvalues --   -9.91674  -9.91585  -9.91322  -9.91199  -9.91162
 Alpha  occ. eigenvalues --   -9.91159  -9.91142  -9.91066  -9.90986  -9.90884
 Alpha  occ. eigenvalues --   -9.90807  -9.90563  -9.90429  -9.90386  -9.90334
 Alpha  occ. eigenvalues --   -9.90159  -2.91432  -1.71878  -1.71275  -1.71170
 Alpha  occ. eigenvalues --   -0.97970  -0.97005  -0.91592  -0.90807  -0.89796
 Alpha  occ. eigenvalues --   -0.89656  -0.86635  -0.86004  -0.85780  -0.84988
 Alpha  occ. eigenvalues --   -0.75389  -0.73721  -0.73369  -0.73069  -0.72452
 Alpha  occ. eigenvalues --   -0.72211  -0.71371  -0.71266  -0.70963  -0.70777
 Alpha  occ. eigenvalues --   -0.70518  -0.69506  -0.68279  -0.67929  -0.67470
 Alpha  occ. eigenvalues --   -0.66772  -0.66205  -0.65740  -0.65328  -0.64853
 Alpha  occ. eigenvalues --   -0.64295  -0.63075  -0.62913  -0.61506  -0.60903
 Alpha  occ. eigenvalues --   -0.60626  -0.59765  -0.59604  -0.59190  -0.58873
 Alpha  occ. eigenvalues --   -0.58225  -0.57565  -0.56844  -0.56127  -0.54248
 Alpha  occ. eigenvalues --   -0.54157  -0.53962  -0.52971  -0.52257  -0.51587
 Alpha  occ. eigenvalues --   -0.51210  -0.50979  -0.50886  -0.50300  -0.49777
 Alpha  occ. eigenvalues --   -0.49437  -0.48993  -0.48714  -0.48365  -0.46661
 Alpha  occ. eigenvalues --   -0.46514  -0.46334  -0.46009  -0.45490  -0.44743
 Alpha  occ. eigenvalues --   -0.44503  -0.44046  -0.43066  -0.42554  -0.42393
 Alpha  occ. eigenvalues --   -0.42050  -0.41820  -0.41528  -0.41355  -0.41129
 Alpha  occ. eigenvalues --   -0.40736  -0.40484  -0.40418  -0.40219  -0.40022
 Alpha  occ. eigenvalues --   -0.39872  -0.39688  -0.39631  -0.39488  -0.39288
 Alpha  occ. eigenvalues --   -0.39123  -0.39116  -0.38652  -0.38490  -0.38425
 Alpha  occ. eigenvalues --   -0.38150  -0.38106  -0.37747  -0.37554  -0.37503
 Alpha  occ. eigenvalues --   -0.37282  -0.37163  -0.36893  -0.36783  -0.36645
 Alpha  occ. eigenvalues --   -0.36413  -0.36290  -0.36186  -0.36140  -0.35880
 Alpha  occ. eigenvalues --   -0.35642  -0.35474  -0.35364  -0.34939  -0.34783
 Alpha  occ. eigenvalues --   -0.34688  -0.34659  -0.34430  -0.34404  -0.34305
 Alpha  occ. eigenvalues --   -0.33868  -0.33812  -0.33481  -0.33393  -0.33343
 Alpha  occ. eigenvalues --   -0.32951  -0.32759  -0.32619  -0.32425  -0.32408
 Alpha  occ. eigenvalues --   -0.32089  -0.31851  -0.31805  -0.31603  -0.31410
 Alpha  occ. eigenvalues --   -0.31242  -0.31109  -0.30796  -0.30765  -0.30649
 Alpha  occ. eigenvalues --   -0.30249  -0.29934  -0.29670  -0.29626  -0.29609
 Alpha  occ. eigenvalues --   -0.29474  -0.29342  -0.29256  -0.29172  -0.28817
 Alpha  occ. eigenvalues --   -0.28713  -0.28464  -0.28314  -0.27787  -0.27214
 Alpha  occ. eigenvalues --   -0.27096  -0.26938  -0.26894  -0.26476  -0.26454
 Alpha  occ. eigenvalues --   -0.26379  -0.26106  -0.25492  -0.25373  -0.25017
 Alpha  occ. eigenvalues --   -0.24851  -0.24595  -0.24095  -0.23716  -0.23533
 Alpha  occ. eigenvalues --   -0.23032  -0.22623  -0.22234  -0.21973  -0.20984
 Alpha  occ. eigenvalues --   -0.20666  -0.19854  -0.19209  -0.18383  -0.17264
 Alpha  occ. eigenvalues --   -0.15624
 Alpha virt. eigenvalues --   -0.11366  -0.07161  -0.06455  -0.04822  -0.03666
 Alpha virt. eigenvalues --   -0.01850  -0.01751  -0.01168  -0.00832  -0.00006
 Alpha virt. eigenvalues --    0.00954   0.01708   0.02261   0.02677   0.02920

 Mulliken charges:
               1
     1  Mg   0.686461
     2  C   -0.058787
     3  C   -0.049027
     4  C   -0.022100
     5  C   -0.101109
     6  N   -0.207647
     7  C   -0.042212
     8  C    0.002308
     9  C    0.009654
    10  C    0.006690
    11  C    0.169564
    12  C    0.127160
    13  C    0.143061
    14  C    0.063892
    15  O   -0.182858
    16  O   -0.296902
    17  N   -0.254552
    18  C    0.100013
    19  C   -0.151840
    20  C    0.067086
    21  C    0.103398
    22  C    0.163875
    23  C   -0.082737
    24  O   -0.205489
    25  C    0.156724
    26  N   -0.184548
    27  C   -0.013492
    28  C   -0.011879
    29  C   -0.017459
    30  C   -0.012142
    31  C    0.147466
    32  C    0.096777
    33  C    0.069781
    34  N   -0.297347
    35  C    0.187872
    36  C   -0.229434
    37  C    0.129892
    38  C    0.101346
    39  C    0.198303
    40  C   -0.072117
    41  O   -0.127311
    42  C    0.072359
    43  C    0.138005
    44  O   -0.143087
    45  O   -0.287515
    46  C    0.202618
    47  C    0.300707
    48  C   -0.121249
    49  C   -0.135538
    50  C    0.138098
    51  C    0.130648
    52  C    0.081793
    53  C    0.087881
    54  C   -0.032605
    55  C    0.117522
    56  C    0.091335
    57  C    0.084385
    58  C    0.114545
    59  C   -0.047300
    60  C    0.075029
    61  C    0.082022
    62  C    0.120200
    63  C    0.091436
    64  C   -0.093462
    65  C    0.105818
    66  C    0.088012
    67  H   -0.074838
    68  H   -0.049170
    69  H   -0.069949
    70  H   -0.030259
    71  H   -0.030592
    72  H   -0.017607
    73  H   -0.017294
    74  H    0.011023
    75  H   -0.008038
    76  H   -0.001725
    77  H   -0.019445
    78  H   -0.001963
    79  H   -0.005095
    80  H    0.019337
    81  H    0.015738
    82  H    0.003936
    83  H   -0.018698
    84  H   -0.006019
    85  H   -0.021523
    86  H   -0.024342
    87  H   -0.014360
    88  H    0.008730
    89  H   -0.012896
    90  H   -0.011169
    91  H   -0.020376
    92  H   -0.007693
    93  H    0.002334
    94  H   -0.006878
    95  H    0.001134
    96  H    0.010317
    97  H    0.001626
    98  H   -0.006666
    99  H    0.026326
   100  H    0.018617
   101  H    0.015370
   102  H    0.007483
   103  H    0.008854
   104  H   -0.036471
   105  H    0.004526
   106  H   -0.008919
   107  H   -0.022891
   108  H   -0.019443
   109  H   -0.040373
   110  H   -0.034050
   111  H   -0.020646
   112  H   -0.022274
   113  H   -0.046677
   114  H   -0.032127
   115  H   -0.015215
   116  H   -0.023421
   117  H   -0.036939
   118  H   -0.052400
   119  H   -0.049765
   120  H   -0.037942
   121  H   -0.033330
   122  H   -0.059901
   123  H   -0.046163
   124  H   -0.044902
   125  H   -0.027115
   126  H   -0.003333
   127  H   -0.021065
   128  H   -0.014980
   129  H   -0.035497
   130  H   -0.026998
   131  H   -0.027926
   132  H   -0.041215
   133  H   -0.025546
   134  H   -0.033343
   135  H   -0.019772
   136  H   -0.019335
   137  H   -0.011154
   138  H   -0.022271
   139  H   -0.011666
   140  H   -0.025677
 Sum of Mulliken charges =  -0.00000

 Dipole moment (field-independent basis, Debye):
    X=             -1.9427    Y=              1.8367    Z=             -1.2396  Tot=              2.9468
 Quadrupole moment (field-independent basis, Debye-Ang):
   XX=           -380.2418   YY=           -425.5763   ZZ=           -404.1228
   XY=              0.5952   XZ=             -5.0763   YZ=             -8.3230

 Normal termination of Gaussian 16 at Wed Apr 27 12:16:24 2022.
