 Gaussian 16, Revision A.03,
 Gaussian 16:  ES64L-G16RevA.03 25-Dec-2016

 -----------------------------------
 #p cam-b3lyp/Def2SVP td=(nstates=5)
 -----------------------------------

 --------------------------------------------------------
 step_1151_chromophore_22 TDDFT with cam-b3lyp functional
 --------------------------------------------------------
 Symbolic Z-matrix:
 Charge =  0 Multiplicity = 1

                         Standard orientation:
 ---------------------------------------------------------------------
 Center     Atomic      Atomic             Coordinates (Angstroms)
 Number     Number       Type             X           Y           Z
 ---------------------------------------------------------------------
      1         12           0        5.837448    0.551588   -0.237158
      2          6           0        3.837254   -2.277513   -0.112084
      3          6           0        3.450462    2.159075   -2.054171
      4          6           0        7.662303    3.369169   -0.070532
      5          6           0        8.442031   -1.272343    1.280134
      6          7           0        3.922615   -0.089012   -1.162285
      7          6           0        3.256878   -1.270158   -0.879092
      8          6           0        1.994371   -1.299859   -1.662837
      9          6           0        2.024240    0.027712   -2.494955
     10          6           0        3.223217    0.772390   -1.906024
     11          6           0        2.077904   -0.148165   -4.005877
     12          6           0        0.748461   -1.689483   -0.810267
     13          6           0       -0.647323   -1.239479   -1.213023
     14          6           0       -1.880525   -2.112182   -1.142917
     15          8           0       -2.238032   -2.854183   -2.043309
     16          8           0       -2.506083   -2.031844    0.102845
     17          7           0        5.547450    2.556158   -0.816771
     18          6           0        4.493425    3.002565   -1.590306
     19          6           0        4.648530    4.452627   -1.773528
     20          6           0        5.841915    4.847910   -1.100834
     21          6           0        6.401130    3.548348   -0.607474
     22          6           0        3.657020    5.209502   -2.572307
     23          6           0        6.411265    6.194965   -0.850042
     24          8           0        7.476033    6.301011   -0.186056
     25          6           0        5.688756    7.464177   -1.152427
     26          7           0        7.859367    0.960015    0.393791
     27          6           0        8.373088    2.222838    0.331284
     28          6           0        9.845275    2.276384    0.853625
     29          6           0        9.979932    0.763878    1.441516
     30          6           0        8.622991    0.091001    1.036501
     31          6           0       10.961908    2.696337   -0.116661
     32          6           0       10.330402    0.557566    2.944860
     33          6           0       11.475539   -0.431696    3.211122
     34          7           0        6.219184   -1.360113    0.302587
     35          6           0        7.272067   -1.965486    1.002389
     36          6           0        6.946839   -3.341208    1.274701
     37          6           0        5.605796   -3.521609    0.941715
     38          6           0        5.213443   -2.270159    0.388700
     39          6           0        7.895834   -4.303603    1.769995
     40          6           0        4.499345   -4.443907    0.812170
     41          8           0        4.438515   -5.610662    1.172520
     42          6           0        3.235116   -3.630071    0.309687
     43          6           0        2.294860   -3.349553    1.365627
     44          8           0        2.354144   -2.524455    2.225594
     45          8           0        1.344984   -4.337996    1.248531
     46          6           0        0.202544   -4.351413    2.152715
     47          6           0       -3.526755   -3.107032    0.404263
     48          6           0       -4.919473   -2.711894    0.059397
     49          6           0       -6.005547   -3.438084   -0.234576
     50          6           0       -5.937170   -4.927852   -0.127513
     51          6           0       -7.251227   -2.729111   -0.790027
     52          6           0       -7.396107   -2.487886   -2.329594
     53          6           0       -8.180962   -1.234098   -2.774043
     54          6           0       -9.676422   -1.188726   -2.323631
     55          6           0      -10.433117   -1.766087   -3.461692
     56          6           0      -10.132250    0.227066   -1.946564
     57          6           0      -10.577264    0.432977   -0.469102
     58          6           0      -12.113373    0.225111   -0.347463
     59          6           0      -13.046807    1.389603   -0.162524
     60          6           0      -14.364378    0.966164   -0.960593
     61          6           0      -13.380162    1.709023    1.330838
     62          6           0      -13.894289    3.148230    1.496012
     63          6           0      -12.854709    3.882273    2.366101
     64          6           0      -13.176777    3.926488    3.867510
     65          6           0      -12.670816    5.275060    4.560944
     66          6           0      -12.460891    2.792272    4.584008
     67          1           0        2.687331    2.740945   -2.574961
     68          1           0        8.292188    4.257033    0.016106
     69          1           0        9.233966   -1.669667    1.918355
     70          1           0        2.014181   -2.156312   -2.336863
     71          1           0        1.200264    0.681966   -2.210666
     72          1           0        2.495922   -1.130273   -4.222525
     73          1           0        2.849792    0.505239   -4.411923
     74          1           0        1.081049    0.004103   -4.420865
     75          1           0        0.874655   -1.177161    0.143825
     76          1           0        0.741249   -2.779188   -0.822933
     77          1           0       -0.595066   -1.161592   -2.299063
     78          1           0       -0.944904   -0.290924   -0.765269
     79          1           0        3.032788    4.558106   -3.182820
     80          1           0        4.289383    5.818567   -3.218029
     81          1           0        3.069462    5.819591   -1.885638
     82          1           0        4.979605    7.699399   -0.359104
     83          1           0        5.071659    7.391244   -2.047750
     84          1           0        6.361267    8.305785   -0.982072
     85          1           0        9.937272    2.951349    1.704702
     86          1           0       10.694210    0.276239    0.777766
     87          1           0       11.743522    1.940380   -0.179100
     88          1           0       11.338965    3.685869    0.142727
     89          1           0       10.479889    2.667010   -1.094340
     90          1           0        9.392278    0.232230    3.395693
     91          1           0       10.583022    1.535651    3.355302
     92          1           0       11.988901   -0.737811    2.299606
     93          1           0       11.039965   -1.319796    3.668952
     94          1           0       12.218320    0.018610    3.870717
     95          1           0        8.393170   -3.853758    2.628249
     96          1           0        8.544254   -4.548939    0.928949
     97          1           0        7.314642   -5.166796    2.095091
     98          1           0        2.829414   -4.159001   -0.552404
     99          1           0        0.102083   -3.551599    2.886142
    100          1           0        0.409178   -5.291252    2.664265
    101          1           0       -0.687055   -4.418979    1.526336
    102          1           0       -3.614459   -3.333861    1.466857
    103          1           0       -3.249261   -4.048480   -0.071277
    104          1           0       -4.870356   -1.643328   -0.148482
    105          1           0       -5.923600   -5.363846   -1.125943
    106          1           0       -6.794205   -5.363880    0.385784
    107          1           0       -5.039460   -5.274190    0.384661
    108          1           0       -7.368851   -1.797588   -0.234834
    109          1           0       -8.026385   -3.430929   -0.484263
    110          1           0       -7.886411   -3.358352   -2.763502
    111          1           0       -6.394567   -2.310318   -2.721436
    112          1           0       -7.872287   -1.109228   -3.811879
    113          1           0       -7.737638   -0.426167   -2.192458
    114          1           0       -9.811340   -1.897783   -1.507443
    115          1           0      -10.085526   -1.724962   -4.494590
    116          1           0      -11.455149   -1.394715   -3.403098
    117          1           0      -10.429116   -2.833496   -3.241315
    118          1           0      -11.008479    0.527914   -2.521818
    119          1           0       -9.469095    1.023801   -2.285645
    120          1           0      -10.229183    1.422636   -0.175635
    121          1           0       -9.975976   -0.303743    0.063905
    122          1           0      -12.255947   -0.448531    0.497031
    123          1           0      -12.384810   -0.498613   -1.115590
    124          1           0      -12.643265    2.256400   -0.687473
    125          1           0      -14.827394    1.887984   -1.311708
    126          1           0      -15.069196    0.318928   -0.436190
    127          1           0      -14.117632    0.510735   -1.919679
    128          1           0      -12.468438    1.561099    1.910403
    129          1           0      -14.190929    1.052397    1.645182
    130          1           0      -14.867759    3.024897    1.969968
    131          1           0      -13.861261    3.597298    0.503294
    132          1           0      -12.889587    4.900423    1.976110
    133          1           0      -11.839643    3.528662    2.185290
    134          1           0      -14.204198    3.768185    4.195460
    135          1           0      -12.157113    5.878934    3.812564
    136          1           0      -11.984205    5.033928    5.371505
    137          1           0      -13.554986    5.800145    4.921213
    138          1           0      -12.960583    1.894290    4.220391
    139          1           0      -12.475488    2.809435    5.674187
    140          1           0      -11.436011    2.731973    4.218829
 ---------------------------------------------------------------------

 SCF Done:  E(RCAM-B3LYP) =  -3007.16016453     A.U. after   17 cycles

 Excitation energies and oscillator strengths:

 Excited State   1:      Singlet-A      1.7099 eV  725.08 nm  f=0.3852  <S**2>=0.000
     245 -> 248       -0.17939
     246 -> 247        0.68401
     245 <- 248       -0.10459
 This state for optimization and/or second-order correction.
 Total Energy, E(TD-HF/TD-DFT) =  -3007.09732510
 Copying the excited state density for this state as the 1-particle RhoCI density.

 Excited State   2:      Singlet-A      2.2547 eV  549.88 nm  f=0.0804  <S**2>=0.000
     245 -> 247        0.62173
     246 -> 248        0.31987

 Excited State   3:      Singlet-A      3.4172 eV  362.82 nm  f=0.5503  <S**2>=0.000
     240 -> 247       -0.12276
     242 -> 247       -0.16201
     245 -> 247       -0.28882
     246 -> 248        0.58940
     245 <- 247        0.10170

 Excited State   4:      Singlet-A      3.4893 eV  355.32 nm  f=0.0375  <S**2>=0.000
     239 -> 247       -0.10123
     240 -> 247        0.36182
     240 -> 248       -0.17027
     240 -> 249        0.25896
     240 -> 250        0.16393
     241 -> 247        0.32983
     241 -> 248       -0.12989
     241 -> 249        0.18151
     241 -> 250        0.13698
     246 -> 248        0.13973

 Excited State   5:      Singlet-A      3.5820 eV  346.13 nm  f=0.0200  <S**2>=0.000
     240 -> 247        0.14081
     243 -> 247        0.64947

 The electronic state is 1-A.
 Alpha  occ. eigenvalues --  -46.88278 -19.25394 -19.24224 -19.20411 -19.19986
 Alpha  occ. eigenvalues --  -19.19148 -19.18302 -14.41805 -14.41547 -14.39655
 Alpha  occ. eigenvalues --  -14.39372 -10.39962 -10.38856 -10.35417 -10.35180
 Alpha  occ. eigenvalues --  -10.32440 -10.31292 -10.31183 -10.30875 -10.30741
 Alpha  occ. eigenvalues --  -10.30319 -10.30035 -10.30007 -10.29311 -10.29145
 Alpha  occ. eigenvalues --  -10.29105 -10.28108 -10.28039 -10.28022 -10.27929
 Alpha  occ. eigenvalues --  -10.27629 -10.27606 -10.27526 -10.27499 -10.27457
 Alpha  occ. eigenvalues --  -10.27367 -10.27296 -10.26970 -10.26768 -10.26485
 Alpha  occ. eigenvalues --  -10.26419 -10.26312 -10.26151 -10.25958 -10.25901
 Alpha  occ. eigenvalues --  -10.25781 -10.25554 -10.25527 -10.25490 -10.25372
 Alpha  occ. eigenvalues --  -10.25372 -10.25335 -10.25268 -10.25192 -10.25080
 Alpha  occ. eigenvalues --  -10.24842 -10.24789 -10.24750 -10.24621 -10.24529
 Alpha  occ. eigenvalues --  -10.24475 -10.24174 -10.24083 -10.24061 -10.23920
 Alpha  occ. eigenvalues --  -10.23731  -3.16831  -1.91753  -1.91246  -1.91168
 Alpha  occ. eigenvalues --   -1.16608  -1.15507  -1.09893  -1.08787  -1.08164
 Alpha  occ. eigenvalues --   -1.07669  -1.04368  -1.03654  -1.03383  -1.02442
 Alpha  occ. eigenvalues --   -0.92479  -0.90624  -0.90194  -0.89884  -0.89203
 Alpha  occ. eigenvalues --   -0.89059  -0.87990  -0.87806  -0.87558  -0.87359
 Alpha  occ. eigenvalues --   -0.87068  -0.85927  -0.84555  -0.84111  -0.83675
 Alpha  occ. eigenvalues --   -0.82843  -0.82429  -0.81774  -0.81165  -0.80730
 Alpha  occ. eigenvalues --   -0.80111  -0.78817  -0.78719  -0.76938  -0.76277
 Alpha  occ. eigenvalues --   -0.76017  -0.75015  -0.74939  -0.74477  -0.74111
 Alpha  occ. eigenvalues --   -0.73264  -0.72534  -0.71746  -0.70969  -0.68911
 Alpha  occ. eigenvalues --   -0.68730  -0.68612  -0.67478  -0.66644  -0.65706
 Alpha  occ. eigenvalues --   -0.65185  -0.65147  -0.65053  -0.64271  -0.63750
 Alpha  occ. eigenvalues --   -0.63284  -0.62877  -0.62537  -0.62081  -0.60378
 Alpha  occ. eigenvalues --   -0.60039  -0.59970  -0.59543  -0.59139  -0.58067
 Alpha  occ. eigenvalues --   -0.57802  -0.57468  -0.56239  -0.55822  -0.55482
 Alpha  occ. eigenvalues --   -0.55215  -0.54954  -0.54708  -0.54330  -0.53833
 Alpha  occ. eigenvalues --   -0.53587  -0.53366  -0.53296  -0.53000  -0.52842
 Alpha  occ. eigenvalues --   -0.52673  -0.52387  -0.52144  -0.52004  -0.51856
 Alpha  occ. eigenvalues --   -0.51744  -0.51613  -0.51422  -0.51169  -0.50938
 Alpha  occ. eigenvalues --   -0.50630  -0.50396  -0.50010  -0.49833  -0.49794
 Alpha  occ. eigenvalues --   -0.49648  -0.49583  -0.49236  -0.49057  -0.48944
 Alpha  occ. eigenvalues --   -0.48719  -0.48676  -0.48475  -0.48398  -0.48047
 Alpha  occ. eigenvalues --   -0.47921  -0.47541  -0.47285  -0.46925  -0.46667
 Alpha  occ. eigenvalues --   -0.46578  -0.46535  -0.46273  -0.46199  -0.46169
 Alpha  occ. eigenvalues --   -0.45842  -0.45591  -0.45553  -0.45265  -0.45069
 Alpha  occ. eigenvalues --   -0.44680  -0.44511  -0.44333  -0.44228  -0.43932
 Alpha  occ. eigenvalues --   -0.43826  -0.43499  -0.43339  -0.43290  -0.43048
 Alpha  occ. eigenvalues --   -0.42803  -0.42592  -0.42476  -0.42192  -0.42014
 Alpha  occ. eigenvalues --   -0.41691  -0.41641  -0.41030  -0.40891  -0.40762
 Alpha  occ. eigenvalues --   -0.40735  -0.40462  -0.40353  -0.40305  -0.40228
 Alpha  occ. eigenvalues --   -0.39766  -0.39686  -0.39247  -0.38660  -0.38151
 Alpha  occ. eigenvalues --   -0.38086  -0.37895  -0.37739  -0.37514  -0.37305
 Alpha  occ. eigenvalues --   -0.37124  -0.36777  -0.36619  -0.36152  -0.35977
 Alpha  occ. eigenvalues --   -0.35865  -0.35668  -0.34965  -0.34614  -0.34480
 Alpha  occ. eigenvalues --   -0.33921  -0.33741  -0.33088  -0.31380  -0.31057
 Alpha  occ. eigenvalues --   -0.30947  -0.30279  -0.29985  -0.29486  -0.24058
 Alpha  occ. eigenvalues --   -0.20785
 Alpha virt. eigenvalues --   -0.08383  -0.01898  -0.00162   0.02015   0.03855
 Alpha virt. eigenvalues --    0.04183   0.05370   0.05641   0.05930   0.06677
 Alpha virt. eigenvalues --    0.07975   0.08608   0.08851   0.09009   0.09251

 Mulliken charges:
               1
     1  Mg   0.821586
     2  C   -0.085135
     3  C   -0.068141
     4  C   -0.045345
     5  C   -0.096535
     6  N   -0.281233
     7  C   -0.006699
     8  C   -0.039000
     9  C   -0.050864
    10  C    0.033123
    11  C    0.108701
    12  C    0.064294
    13  C    0.074683
    14  C    0.149134
    15  O   -0.222324
    16  O   -0.362686
    17  N   -0.343568
    18  C    0.110119
    19  C   -0.154125
    20  C   -0.001369
    21  C    0.130620
    22  C    0.104061
    23  C   -0.005083
    24  O   -0.246807
    25  C    0.075872
    26  N   -0.260462
    27  C    0.007476
    28  C   -0.056766
    29  C   -0.067795
    30  C    0.007350
    31  C    0.085864
    32  C    0.034837
    33  C    0.005549
    34  N   -0.384202
    35  C    0.180712
    36  C   -0.216966
    37  C    0.048358
    38  C    0.139391
    39  C    0.138723
    40  C    0.027542
    41  O   -0.166426
    42  C   -0.006235
    43  C    0.226758
    44  O   -0.178374
    45  O   -0.350715
    46  C    0.168940
    47  C    0.266585
    48  C   -0.137519
    49  C   -0.158999
    50  C    0.076218
    51  C    0.074765
    52  C    0.032433
    53  C    0.034312
    54  C   -0.097817
    55  C    0.063135
    56  C    0.034376
    57  C    0.033629
    58  C    0.054952
    59  C   -0.103392
    60  C    0.020406
    61  C    0.033549
    62  C    0.060701
    63  C    0.032614
    64  C   -0.152132
    65  C    0.046990
    66  C    0.029448
    67  H   -0.040284
    68  H   -0.006821
    69  H   -0.035530
    70  H    0.005891
    71  H    0.003812
    72  H    0.008898
    73  H    0.010440
    74  H    0.033938
    75  H    0.024780
    76  H    0.027211
    77  H    0.011925
    78  H    0.029840
    79  H    0.023493
    80  H    0.042967
    81  H    0.042937
    82  H    0.035151
    83  H    0.009672
    84  H    0.030768
    85  H    0.012256
    86  H    0.008654
    87  H    0.010750
    88  H    0.032026
    89  H    0.012954
    90  H    0.019301
    91  H    0.008373
    92  H    0.015503
    93  H    0.023239
    94  H    0.018432
    95  H    0.024143
    96  H    0.036918
    97  H    0.029971
    98  H    0.038473
    99  H    0.051225
   100  H    0.041758
   101  H    0.031479
   102  H    0.035002
   103  H    0.037380
   104  H   -0.003285
   105  H    0.028897
   106  H    0.015941
   107  H    0.001107
   108  H    0.008906
   109  H   -0.012863
   110  H   -0.007457
   111  H    0.008470
   112  H    0.007254
   113  H   -0.017968
   114  H   -0.000574
   115  H    0.009982
   116  H   -0.000807
   117  H   -0.011568
   118  H   -0.022683
   119  H   -0.017262
   120  H   -0.008974
   121  H   -0.005835
   122  H   -0.027735
   123  H   -0.017623
   124  H   -0.014243
   125  H   -0.002233
   126  H    0.019756
   127  H    0.002730
   128  H    0.009624
   129  H   -0.007513
   130  H    0.002836
   131  H    0.001155
   132  H   -0.010106
   133  H    0.001596
   134  H   -0.001668
   135  H    0.003864
   136  H    0.005187
   137  H    0.012478
   138  H    0.000756
   139  H    0.014011
   140  H   -0.002168
 Sum of Mulliken charges =  -0.00000

 Dipole moment (field-independent basis, Debye):
    X=             -2.1557    Y=              2.5897    Z=             -1.5284  Tot=              3.6999
 Quadrupole moment (field-independent basis, Debye-Ang):
   XX=           -381.4464   YY=           -420.8176   ZZ=           -403.6900
   XY=              4.8630   XZ=             -5.5628   YZ=            -10.0518

 Normal termination of Gaussian 16 at Wed Apr 27 11:16:52 2022.
