 Gaussian 16, Revision A.03,
 Gaussian 16:  ES64L-G16RevA.03 25-Dec-2016

 ---------------------------------
 #p PBE1PBE/Def2SVP td=(nstates=5)
 ---------------------------------

 ------------------------------------------------------
 step_1151_chromophore_22 TDDFT with PBE1PBE functional
 ------------------------------------------------------
 Symbolic Z-matrix:
 Charge =  0 Multiplicity = 1

                         Standard orientation:
 ---------------------------------------------------------------------
 Center     Atomic      Atomic             Coordinates (Angstroms)
 Number     Number       Type             X           Y           Z
 ---------------------------------------------------------------------
      1         12           0        5.837448    0.551588   -0.237158
      2          6           0        3.837254   -2.277513   -0.112084
      3          6           0        3.450462    2.159075   -2.054171
      4          6           0        7.662303    3.369169   -0.070532
      5          6           0        8.442031   -1.272343    1.280134
      6          7           0        3.922615   -0.089012   -1.162285
      7          6           0        3.256878   -1.270158   -0.879092
      8          6           0        1.994371   -1.299859   -1.662837
      9          6           0        2.024240    0.027712   -2.494955
     10          6           0        3.223217    0.772390   -1.906024
     11          6           0        2.077904   -0.148165   -4.005877
     12          6           0        0.748461   -1.689483   -0.810267
     13          6           0       -0.647323   -1.239479   -1.213023
     14          6           0       -1.880525   -2.112182   -1.142917
     15          8           0       -2.238032   -2.854183   -2.043309
     16          8           0       -2.506083   -2.031844    0.102845
     17          7           0        5.547450    2.556158   -0.816771
     18          6           0        4.493425    3.002565   -1.590306
     19          6           0        4.648530    4.452627   -1.773528
     20          6           0        5.841915    4.847910   -1.100834
     21          6           0        6.401130    3.548348   -0.607474
     22          6           0        3.657020    5.209502   -2.572307
     23          6           0        6.411265    6.194965   -0.850042
     24          8           0        7.476033    6.301011   -0.186056
     25          6           0        5.688756    7.464177   -1.152427
     26          7           0        7.859367    0.960015    0.393791
     27          6           0        8.373088    2.222838    0.331284
     28          6           0        9.845275    2.276384    0.853625
     29          6           0        9.979932    0.763878    1.441516
     30          6           0        8.622991    0.091001    1.036501
     31          6           0       10.961908    2.696337   -0.116661
     32          6           0       10.330402    0.557566    2.944860
     33          6           0       11.475539   -0.431696    3.211122
     34          7           0        6.219184   -1.360113    0.302587
     35          6           0        7.272067   -1.965486    1.002389
     36          6           0        6.946839   -3.341208    1.274701
     37          6           0        5.605796   -3.521609    0.941715
     38          6           0        5.213443   -2.270159    0.388700
     39          6           0        7.895834   -4.303603    1.769995
     40          6           0        4.499345   -4.443907    0.812170
     41          8           0        4.438515   -5.610662    1.172520
     42          6           0        3.235116   -3.630071    0.309687
     43          6           0        2.294860   -3.349553    1.365627
     44          8           0        2.354144   -2.524455    2.225594
     45          8           0        1.344984   -4.337996    1.248531
     46          6           0        0.202544   -4.351413    2.152715
     47          6           0       -3.526755   -3.107032    0.404263
     48          6           0       -4.919473   -2.711894    0.059397
     49          6           0       -6.005547   -3.438084   -0.234576
     50          6           0       -5.937170   -4.927852   -0.127513
     51          6           0       -7.251227   -2.729111   -0.790027
     52          6           0       -7.396107   -2.487886   -2.329594
     53          6           0       -8.180962   -1.234098   -2.774043
     54          6           0       -9.676422   -1.188726   -2.323631
     55          6           0      -10.433117   -1.766087   -3.461692
     56          6           0      -10.132250    0.227066   -1.946564
     57          6           0      -10.577264    0.432977   -0.469102
     58          6           0      -12.113373    0.225111   -0.347463
     59          6           0      -13.046807    1.389603   -0.162524
     60          6           0      -14.364378    0.966164   -0.960593
     61          6           0      -13.380162    1.709023    1.330838
     62          6           0      -13.894289    3.148230    1.496012
     63          6           0      -12.854709    3.882273    2.366101
     64          6           0      -13.176777    3.926488    3.867510
     65          6           0      -12.670816    5.275060    4.560944
     66          6           0      -12.460891    2.792272    4.584008
     67          1           0        2.687331    2.740945   -2.574961
     68          1           0        8.292188    4.257033    0.016106
     69          1           0        9.233966   -1.669667    1.918355
     70          1           0        2.014181   -2.156312   -2.336863
     71          1           0        1.200264    0.681966   -2.210666
     72          1           0        2.495922   -1.130273   -4.222525
     73          1           0        2.849792    0.505239   -4.411923
     74          1           0        1.081049    0.004103   -4.420865
     75          1           0        0.874655   -1.177161    0.143825
     76          1           0        0.741249   -2.779188   -0.822933
     77          1           0       -0.595066   -1.161592   -2.299063
     78          1           0       -0.944904   -0.290924   -0.765269
     79          1           0        3.032788    4.558106   -3.182820
     80          1           0        4.289383    5.818567   -3.218029
     81          1           0        3.069462    5.819591   -1.885638
     82          1           0        4.979605    7.699399   -0.359104
     83          1           0        5.071659    7.391244   -2.047750
     84          1           0        6.361267    8.305785   -0.982072
     85          1           0        9.937272    2.951349    1.704702
     86          1           0       10.694210    0.276239    0.777766
     87          1           0       11.743522    1.940380   -0.179100
     88          1           0       11.338965    3.685869    0.142727
     89          1           0       10.479889    2.667010   -1.094340
     90          1           0        9.392278    0.232230    3.395693
     91          1           0       10.583022    1.535651    3.355302
     92          1           0       11.988901   -0.737811    2.299606
     93          1           0       11.039965   -1.319796    3.668952
     94          1           0       12.218320    0.018610    3.870717
     95          1           0        8.393170   -3.853758    2.628249
     96          1           0        8.544254   -4.548939    0.928949
     97          1           0        7.314642   -5.166796    2.095091
     98          1           0        2.829414   -4.159001   -0.552404
     99          1           0        0.102083   -3.551599    2.886142
    100          1           0        0.409178   -5.291252    2.664265
    101          1           0       -0.687055   -4.418979    1.526336
    102          1           0       -3.614459   -3.333861    1.466857
    103          1           0       -3.249261   -4.048480   -0.071277
    104          1           0       -4.870356   -1.643328   -0.148482
    105          1           0       -5.923600   -5.363846   -1.125943
    106          1           0       -6.794205   -5.363880    0.385784
    107          1           0       -5.039460   -5.274190    0.384661
    108          1           0       -7.368851   -1.797588   -0.234834
    109          1           0       -8.026385   -3.430929   -0.484263
    110          1           0       -7.886411   -3.358352   -2.763502
    111          1           0       -6.394567   -2.310318   -2.721436
    112          1           0       -7.872287   -1.109228   -3.811879
    113          1           0       -7.737638   -0.426167   -2.192458
    114          1           0       -9.811340   -1.897783   -1.507443
    115          1           0      -10.085526   -1.724962   -4.494590
    116          1           0      -11.455149   -1.394715   -3.403098
    117          1           0      -10.429116   -2.833496   -3.241315
    118          1           0      -11.008479    0.527914   -2.521818
    119          1           0       -9.469095    1.023801   -2.285645
    120          1           0      -10.229183    1.422636   -0.175635
    121          1           0       -9.975976   -0.303743    0.063905
    122          1           0      -12.255947   -0.448531    0.497031
    123          1           0      -12.384810   -0.498613   -1.115590
    124          1           0      -12.643265    2.256400   -0.687473
    125          1           0      -14.827394    1.887984   -1.311708
    126          1           0      -15.069196    0.318928   -0.436190
    127          1           0      -14.117632    0.510735   -1.919679
    128          1           0      -12.468438    1.561099    1.910403
    129          1           0      -14.190929    1.052397    1.645182
    130          1           0      -14.867759    3.024897    1.969968
    131          1           0      -13.861261    3.597298    0.503294
    132          1           0      -12.889587    4.900423    1.976110
    133          1           0      -11.839643    3.528662    2.185290
    134          1           0      -14.204198    3.768185    4.195460
    135          1           0      -12.157113    5.878934    3.812564
    136          1           0      -11.984205    5.033928    5.371505
    137          1           0      -13.554986    5.800145    4.921213
    138          1           0      -12.960583    1.894290    4.220391
    139          1           0      -12.475488    2.809435    5.674187
    140          1           0      -11.436011    2.731973    4.218829
 ---------------------------------------------------------------------

 SCF Done:  E(RPBE1PBE) =  -3005.35054487     A.U. after   15 cycles

 Excitation energies and oscillator strengths:

 Excited State   1:      Singlet-A      1.8597 eV  666.68 nm  f=0.3722  <S**2>=0.000
     245 -> 248       -0.16777
     246 -> 247        0.69176
     246 <- 247       -0.10756
 This state for optimization and/or second-order correction.
 Total Energy, E(TD-HF/TD-DFT) =  -3005.28220076
 Copying the excited state density for this state as the 1-particle RhoCI density.

 Excited State   2:      Singlet-A      2.2523 eV  550.48 nm  f=0.0856  <S**2>=0.000
     245 -> 247        0.63898
     246 -> 248        0.27960

 Excited State   3:      Singlet-A      3.0407 eV  407.75 nm  f=0.0012  <S**2>=0.000
     242 -> 247        0.40164
     242 -> 248       -0.10827
     242 -> 249        0.11428
     243 -> 247        0.50801
     243 -> 248       -0.12058
     243 -> 249        0.12962

 Excited State   4:      Singlet-A      3.1778 eV  390.16 nm  f=0.0804  <S**2>=0.000
     240 -> 247        0.44619
     240 -> 249       -0.13164
     241 -> 247        0.27172
     242 -> 247        0.13572
     243 -> 247       -0.17116
     245 -> 247        0.12126
     246 -> 248       -0.33183

 Excited State   5:      Singlet-A      3.2018 eV  387.24 nm  f=0.1560  <S**2>=0.000
     240 -> 247        0.17586
     241 -> 247        0.23194
     242 -> 247        0.19897
     243 -> 247       -0.11483
     245 -> 247       -0.16915
     246 -> 248        0.48744
     246 -> 249       -0.24831

 The electronic state is 1-A.
 Alpha  occ. eigenvalues --  -46.91689 -19.26108 -19.24897 -19.20681 -19.20153
 Alpha  occ. eigenvalues --  -19.19471 -19.18455 -14.41365 -14.41056 -14.39253
 Alpha  occ. eigenvalues --  -14.39120 -10.37014 -10.35805 -10.32645 -10.32201
 Alpha  occ. eigenvalues --  -10.29855 -10.28837 -10.28679 -10.28502 -10.28458
 Alpha  occ. eigenvalues --  -10.27923 -10.27882 -10.27599 -10.27137 -10.27025
 Alpha  occ. eigenvalues --  -10.26633 -10.25946 -10.25931 -10.25707 -10.25706
 Alpha  occ. eigenvalues --  -10.25304 -10.25230 -10.25148 -10.25137 -10.25054
 Alpha  occ. eigenvalues --  -10.25036 -10.24895 -10.24841 -10.24411 -10.24145
 Alpha  occ. eigenvalues --  -10.23828 -10.23766 -10.23659 -10.23612 -10.23327
 Alpha  occ. eigenvalues --  -10.23270 -10.23218 -10.23046 -10.23012 -10.23009
 Alpha  occ. eigenvalues --  -10.22966 -10.22938 -10.22827 -10.22810 -10.22706
 Alpha  occ. eigenvalues --  -10.22381 -10.22355 -10.22333 -10.22158 -10.22034
 Alpha  occ. eigenvalues --  -10.21960 -10.21637 -10.21632 -10.21572 -10.21294
 Alpha  occ. eigenvalues --  -10.21109  -3.13822  -1.86686  -1.86155  -1.86082
 Alpha  occ. eigenvalues --   -1.11341  -1.10301  -1.04728  -1.03604  -1.02769
 Alpha  occ. eigenvalues --   -1.02552  -0.98992  -0.98287  -0.98072  -0.97171
 Alpha  occ. eigenvalues --   -0.86861  -0.84745  -0.84372  -0.84017  -0.83329
 Alpha  occ. eigenvalues --   -0.83310  -0.82338  -0.82138  -0.81669  -0.81662
 Alpha  occ. eigenvalues --   -0.81404  -0.80192  -0.78767  -0.78406  -0.77941
 Alpha  occ. eigenvalues --   -0.77038  -0.76589  -0.76036  -0.75438  -0.75053
 Alpha  occ. eigenvalues --   -0.74281  -0.73063  -0.73029  -0.71307  -0.70652
 Alpha  occ. eigenvalues --   -0.70183  -0.69391  -0.69003  -0.68595  -0.68268
 Alpha  occ. eigenvalues --   -0.67630  -0.66997  -0.66142  -0.65344  -0.63340
 Alpha  occ. eigenvalues --   -0.63058  -0.62901  -0.61953  -0.60872  -0.60164
 Alpha  occ. eigenvalues --   -0.59685  -0.59607  -0.59335  -0.58831  -0.57963
 Alpha  occ. eigenvalues --   -0.57600  -0.57084  -0.56797  -0.56643  -0.54892
 Alpha  occ. eigenvalues --   -0.54529  -0.54398  -0.54082  -0.53581  -0.52615
 Alpha  occ. eigenvalues --   -0.52342  -0.52076  -0.50779  -0.50344  -0.50014
 Alpha  occ. eigenvalues --   -0.49733  -0.49485  -0.49195  -0.48917  -0.48206
 Alpha  occ. eigenvalues --   -0.48164  -0.47937  -0.47782  -0.47472  -0.47466
 Alpha  occ. eigenvalues --   -0.47017  -0.46972  -0.46622  -0.46524  -0.46423
 Alpha  occ. eigenvalues --   -0.46313  -0.46161  -0.45939  -0.45704  -0.45520
 Alpha  occ. eigenvalues --   -0.45207  -0.44999  -0.44612  -0.44429  -0.44382
 Alpha  occ. eigenvalues --   -0.44244  -0.44192  -0.43815  -0.43707  -0.43489
 Alpha  occ. eigenvalues --   -0.43303  -0.43153  -0.43149  -0.43013  -0.42697
 Alpha  occ. eigenvalues --   -0.42535  -0.42198  -0.41890  -0.41621  -0.41293
 Alpha  occ. eigenvalues --   -0.41260  -0.41156  -0.41050  -0.40950  -0.40769
 Alpha  occ. eigenvalues --   -0.40573  -0.40284  -0.40104  -0.40038  -0.39715
 Alpha  occ. eigenvalues --   -0.39491  -0.39282  -0.38998  -0.38947  -0.38722
 Alpha  occ. eigenvalues --   -0.38571  -0.38346  -0.38212  -0.38096  -0.37853
 Alpha  occ. eigenvalues --   -0.37632  -0.37398  -0.37392  -0.36907  -0.36719
 Alpha  occ. eigenvalues --   -0.36547  -0.36478  -0.35987  -0.35727  -0.35666
 Alpha  occ. eigenvalues --   -0.35482  -0.35217  -0.35203  -0.35122  -0.35061
 Alpha  occ. eigenvalues --   -0.34615  -0.34602  -0.34044  -0.33374  -0.33131
 Alpha  occ. eigenvalues --   -0.32922  -0.32874  -0.32569  -0.32536  -0.32196
 Alpha  occ. eigenvalues --   -0.31941  -0.31726  -0.31674  -0.31077  -0.30936
 Alpha  occ. eigenvalues --   -0.30863  -0.30492  -0.29704  -0.29490  -0.29314
 Alpha  occ. eigenvalues --   -0.28968  -0.28856  -0.28752  -0.26946  -0.26098
 Alpha  occ. eigenvalues --   -0.25887  -0.25698  -0.25589  -0.24770  -0.20985
 Alpha  occ. eigenvalues --   -0.18500
 Alpha virt. eigenvalues --   -0.10910  -0.05444  -0.04306  -0.02346  -0.00505
 Alpha virt. eigenvalues --    0.01066   0.01201   0.01396   0.01754   0.02720
 Alpha virt. eigenvalues --    0.03780   0.04861   0.05131   0.05674   0.05861

 Mulliken charges:
               1
     1  Mg   0.972982
     2  C   -0.099081
     3  C   -0.064113
     4  C   -0.038030
     5  C   -0.079846
     6  N   -0.390134
     7  C    0.060030
     8  C   -0.099541
     9  C   -0.136045
    10  C    0.074908
    11  C    0.051126
    12  C    0.006653
    13  C   -0.003523
    14  C    0.220467
    15  O   -0.254462
    16  O   -0.392394
    17  N   -0.461841
    18  C    0.137056
    19  C   -0.187131
    20  C   -0.045193
    21  C    0.160975
    22  C    0.043987
    23  C    0.039379
    24  O   -0.283014
    25  C    0.007083
    26  N   -0.372324
    27  C    0.041083
    28  C   -0.123851
    29  C   -0.137647
    30  C    0.046574
    31  C    0.024977
    32  C   -0.030734
    33  C   -0.067569
    34  N   -0.505412
    35  C    0.195591
    36  C   -0.235369
    37  C    0.004184
    38  C    0.193471
    39  C    0.079755
    40  C    0.122914
    41  O   -0.210507
    42  C   -0.113845
    43  C    0.321318
    44  O   -0.215721
    45  O   -0.383737
    46  C    0.113161
    47  C    0.220968
    48  C   -0.140550
    49  C   -0.205449
    50  C    0.014579
    51  C    0.011016
    52  C   -0.030466
    53  C   -0.024117
    54  C   -0.186916
    55  C    0.008460
    56  C   -0.020431
    57  C   -0.030593
    58  C   -0.001453
    59  C   -0.190395
    60  C   -0.037471
    61  C   -0.018949
    62  C   -0.003419
    63  C   -0.027910
    64  C   -0.241502
    65  C   -0.012557
    66  C   -0.034601
    67  H   -0.006661
    68  H    0.025770
    69  H   -0.000418
    70  H    0.044258
    71  H    0.042253
    72  H    0.036616
    73  H    0.039133
    74  H    0.060080
    75  H    0.059134
    76  H    0.062011
    77  H    0.046899
    78  H    0.060377
    79  H    0.049542
    80  H    0.070284
    81  H    0.070805
    82  H    0.062117
    83  H    0.036106
    84  H    0.056952
    85  H    0.049547
    86  H    0.047724
    87  H    0.037990
    88  H    0.058329
    89  H    0.042204
    90  H    0.053018
    91  H    0.041872
    92  H    0.042444
    93  H    0.049398
    94  H    0.046773
    95  H    0.051501
    96  H    0.065868
    97  H    0.059134
    98  H    0.073589
    99  H    0.071283
   100  H    0.063922
   101  H    0.055995
   102  H    0.062218
   103  H    0.062383
   104  H    0.027043
   105  H    0.056933
   106  H    0.043291
   107  H    0.027852
   108  H    0.040414
   109  H    0.020296
   110  H    0.026022
   111  H    0.041778
   112  H    0.038832
   113  H    0.017238
   114  H    0.036942
   115  H    0.036544
   116  H    0.026501
   117  H    0.017159
   118  H    0.012477
   119  H    0.014279
   120  H    0.023525
   121  H    0.028004
   122  H    0.006066
   123  H    0.016734
   124  H    0.023066
   125  H    0.025978
   126  H    0.046178
   127  H    0.030398
   128  H    0.042517
   129  H    0.024634
   130  H    0.035094
   131  H    0.033875
   132  H    0.023814
   133  H    0.033389
   134  H    0.034718
   135  H    0.030800
   136  H    0.032278
   137  H    0.039961
   138  H    0.031807
   139  H    0.041925
   140  H    0.026339
 Sum of Mulliken charges =  -0.00000

 Dipole moment (field-independent basis, Debye):
    X=             -2.0202    Y=              2.3316    Z=             -1.4759  Tot=              3.4199
 Quadrupole moment (field-independent basis, Debye-Ang):
   XX=           -375.2263   YY=           -418.6225   ZZ=           -400.9130
   XY=              3.5510   XZ=             -3.9169   YZ=             -9.9089

 Normal termination of Gaussian 16 at Wed Apr 27 11:39:48 2022.
