 Gaussian 16, Revision A.03,
 Gaussian 16:  ES64L-G16RevA.03 25-Dec-2016

 --------------------------------
 #p wB97XD/Def2SVP td=(nstates=5)
 --------------------------------

 -----------------------------------------------------
 step_1151_chromophore_22 TDDFT with wB97XD functional
 -----------------------------------------------------
 Symbolic Z-matrix:
 Charge =  0 Multiplicity = 1

                         Standard orientation:
 ---------------------------------------------------------------------
 Center     Atomic      Atomic             Coordinates (Angstroms)
 Number     Number       Type             X           Y           Z
 ---------------------------------------------------------------------
      1         12           0        5.837448    0.551588   -0.237158
      2          6           0        3.837254   -2.277513   -0.112084
      3          6           0        3.450462    2.159075   -2.054171
      4          6           0        7.662303    3.369169   -0.070532
      5          6           0        8.442031   -1.272343    1.280134
      6          7           0        3.922615   -0.089012   -1.162285
      7          6           0        3.256878   -1.270158   -0.879092
      8          6           0        1.994371   -1.299859   -1.662837
      9          6           0        2.024240    0.027712   -2.494955
     10          6           0        3.223217    0.772390   -1.906024
     11          6           0        2.077904   -0.148165   -4.005877
     12          6           0        0.748461   -1.689483   -0.810267
     13          6           0       -0.647323   -1.239479   -1.213023
     14          6           0       -1.880525   -2.112182   -1.142917
     15          8           0       -2.238032   -2.854183   -2.043309
     16          8           0       -2.506083   -2.031844    0.102845
     17          7           0        5.547450    2.556158   -0.816771
     18          6           0        4.493425    3.002565   -1.590306
     19          6           0        4.648530    4.452627   -1.773528
     20          6           0        5.841915    4.847910   -1.100834
     21          6           0        6.401130    3.548348   -0.607474
     22          6           0        3.657020    5.209502   -2.572307
     23          6           0        6.411265    6.194965   -0.850042
     24          8           0        7.476033    6.301011   -0.186056
     25          6           0        5.688756    7.464177   -1.152427
     26          7           0        7.859367    0.960015    0.393791
     27          6           0        8.373088    2.222838    0.331284
     28          6           0        9.845275    2.276384    0.853625
     29          6           0        9.979932    0.763878    1.441516
     30          6           0        8.622991    0.091001    1.036501
     31          6           0       10.961908    2.696337   -0.116661
     32          6           0       10.330402    0.557566    2.944860
     33          6           0       11.475539   -0.431696    3.211122
     34          7           0        6.219184   -1.360113    0.302587
     35          6           0        7.272067   -1.965486    1.002389
     36          6           0        6.946839   -3.341208    1.274701
     37          6           0        5.605796   -3.521609    0.941715
     38          6           0        5.213443   -2.270159    0.388700
     39          6           0        7.895834   -4.303603    1.769995
     40          6           0        4.499345   -4.443907    0.812170
     41          8           0        4.438515   -5.610662    1.172520
     42          6           0        3.235116   -3.630071    0.309687
     43          6           0        2.294860   -3.349553    1.365627
     44          8           0        2.354144   -2.524455    2.225594
     45          8           0        1.344984   -4.337996    1.248531
     46          6           0        0.202544   -4.351413    2.152715
     47          6           0       -3.526755   -3.107032    0.404263
     48          6           0       -4.919473   -2.711894    0.059397
     49          6           0       -6.005547   -3.438084   -0.234576
     50          6           0       -5.937170   -4.927852   -0.127513
     51          6           0       -7.251227   -2.729111   -0.790027
     52          6           0       -7.396107   -2.487886   -2.329594
     53          6           0       -8.180962   -1.234098   -2.774043
     54          6           0       -9.676422   -1.188726   -2.323631
     55          6           0      -10.433117   -1.766087   -3.461692
     56          6           0      -10.132250    0.227066   -1.946564
     57          6           0      -10.577264    0.432977   -0.469102
     58          6           0      -12.113373    0.225111   -0.347463
     59          6           0      -13.046807    1.389603   -0.162524
     60          6           0      -14.364378    0.966164   -0.960593
     61          6           0      -13.380162    1.709023    1.330838
     62          6           0      -13.894289    3.148230    1.496012
     63          6           0      -12.854709    3.882273    2.366101
     64          6           0      -13.176777    3.926488    3.867510
     65          6           0      -12.670816    5.275060    4.560944
     66          6           0      -12.460891    2.792272    4.584008
     67          1           0        2.687331    2.740945   -2.574961
     68          1           0        8.292188    4.257033    0.016106
     69          1           0        9.233966   -1.669667    1.918355
     70          1           0        2.014181   -2.156312   -2.336863
     71          1           0        1.200264    0.681966   -2.210666
     72          1           0        2.495922   -1.130273   -4.222525
     73          1           0        2.849792    0.505239   -4.411923
     74          1           0        1.081049    0.004103   -4.420865
     75          1           0        0.874655   -1.177161    0.143825
     76          1           0        0.741249   -2.779188   -0.822933
     77          1           0       -0.595066   -1.161592   -2.299063
     78          1           0       -0.944904   -0.290924   -0.765269
     79          1           0        3.032788    4.558106   -3.182820
     80          1           0        4.289383    5.818567   -3.218029
     81          1           0        3.069462    5.819591   -1.885638
     82          1           0        4.979605    7.699399   -0.359104
     83          1           0        5.071659    7.391244   -2.047750
     84          1           0        6.361267    8.305785   -0.982072
     85          1           0        9.937272    2.951349    1.704702
     86          1           0       10.694210    0.276239    0.777766
     87          1           0       11.743522    1.940380   -0.179100
     88          1           0       11.338965    3.685869    0.142727
     89          1           0       10.479889    2.667010   -1.094340
     90          1           0        9.392278    0.232230    3.395693
     91          1           0       10.583022    1.535651    3.355302
     92          1           0       11.988901   -0.737811    2.299606
     93          1           0       11.039965   -1.319796    3.668952
     94          1           0       12.218320    0.018610    3.870717
     95          1           0        8.393170   -3.853758    2.628249
     96          1           0        8.544254   -4.548939    0.928949
     97          1           0        7.314642   -5.166796    2.095091
     98          1           0        2.829414   -4.159001   -0.552404
     99          1           0        0.102083   -3.551599    2.886142
    100          1           0        0.409178   -5.291252    2.664265
    101          1           0       -0.687055   -4.418979    1.526336
    102          1           0       -3.614459   -3.333861    1.466857
    103          1           0       -3.249261   -4.048480   -0.071277
    104          1           0       -4.870356   -1.643328   -0.148482
    105          1           0       -5.923600   -5.363846   -1.125943
    106          1           0       -6.794205   -5.363880    0.385784
    107          1           0       -5.039460   -5.274190    0.384661
    108          1           0       -7.368851   -1.797588   -0.234834
    109          1           0       -8.026385   -3.430929   -0.484263
    110          1           0       -7.886411   -3.358352   -2.763502
    111          1           0       -6.394567   -2.310318   -2.721436
    112          1           0       -7.872287   -1.109228   -3.811879
    113          1           0       -7.737638   -0.426167   -2.192458
    114          1           0       -9.811340   -1.897783   -1.507443
    115          1           0      -10.085526   -1.724962   -4.494590
    116          1           0      -11.455149   -1.394715   -3.403098
    117          1           0      -10.429116   -2.833496   -3.241315
    118          1           0      -11.008479    0.527914   -2.521818
    119          1           0       -9.469095    1.023801   -2.285645
    120          1           0      -10.229183    1.422636   -0.175635
    121          1           0       -9.975976   -0.303743    0.063905
    122          1           0      -12.255947   -0.448531    0.497031
    123          1           0      -12.384810   -0.498613   -1.115590
    124          1           0      -12.643265    2.256400   -0.687473
    125          1           0      -14.827394    1.887984   -1.311708
    126          1           0      -15.069196    0.318928   -0.436190
    127          1           0      -14.117632    0.510735   -1.919679
    128          1           0      -12.468438    1.561099    1.910403
    129          1           0      -14.190929    1.052397    1.645182
    130          1           0      -14.867759    3.024897    1.969968
    131          1           0      -13.861261    3.597298    0.503294
    132          1           0      -12.889587    4.900423    1.976110
    133          1           0      -11.839643    3.528662    2.185290
    134          1           0      -14.204198    3.768185    4.195460
    135          1           0      -12.157113    5.878934    3.812564
    136          1           0      -11.984205    5.033928    5.371505
    137          1           0      -13.554986    5.800145    4.921213
    138          1           0      -12.960583    1.894290    4.220391
    139          1           0      -12.475488    2.809435    5.674187
    140          1           0      -11.436011    2.731973    4.218829
 ---------------------------------------------------------------------

 SCF Done:  E(RwB97XD) =  -3007.85750012     A.U. after   18 cycles

 Excitation energies and oscillator strengths:

 Excited State   1:      Singlet-A      1.6543 eV  749.49 nm  f=0.3830  <S**2>=0.000
     245 -> 248       -0.18589
     246 -> 247        0.68164
     245 <- 248       -0.11417
 This state for optimization and/or second-order correction.
 Total Energy, E(TD-HF/TD-DFT) =  -3007.79670734
 Copying the excited state density for this state as the 1-particle RhoCI density.

 Excited State   2:      Singlet-A      2.1993 eV  563.75 nm  f=0.0787  <S**2>=0.000
     245 -> 247        0.62057
     246 -> 248        0.32204

 Excited State   3:      Singlet-A      3.4361 eV  360.83 nm  f=0.5596  <S**2>=0.000
     240 -> 247       -0.11862
     242 -> 247       -0.19118
     245 -> 247       -0.28436
     246 -> 248        0.57649
     245 <- 247        0.10670

 Excited State   4:      Singlet-A      3.4946 eV  354.78 nm  f=0.0540  <S**2>=0.000
     240 -> 247        0.17220
     240 -> 249       -0.15833
     241 -> 247        0.44679
     241 -> 248       -0.19070
     241 -> 249       -0.29725
     241 -> 250        0.20162
     246 -> 248        0.16664

 Excited State   5:      Singlet-A      3.6050 eV  343.92 nm  f=0.0229  <S**2>=0.000
     240 -> 247        0.12748
     242 -> 247       -0.13785
     243 -> 247        0.64237

 The electronic state is 1-A.
 Alpha  occ. eigenvalues --  -46.94620 -19.30657 -19.29444 -19.25360 -19.24881
 Alpha  occ. eigenvalues --  -19.24191 -19.23381 -14.46395 -14.46124 -14.44262
 Alpha  occ. eigenvalues --  -14.43979 -10.43794 -10.42662 -10.39434 -10.39179
 Alpha  occ. eigenvalues --  -10.36353 -10.35228 -10.34996 -10.34897 -10.34794
 Alpha  occ. eigenvalues --  -10.34412 -10.34052 -10.33994 -10.33314 -10.33291
 Alpha  occ. eigenvalues --  -10.33136 -10.32164 -10.32162 -10.32069 -10.31974
 Alpha  occ. eigenvalues --  -10.31670 -10.31606 -10.31565 -10.31500 -10.31459
 Alpha  occ. eigenvalues --  -10.31450 -10.31362 -10.31015 -10.30764 -10.30505
 Alpha  occ. eigenvalues --  -10.30303 -10.30171 -10.30070 -10.29947 -10.29730
 Alpha  occ. eigenvalues --  -10.29723 -10.29490 -10.29427 -10.29370 -10.29346
 Alpha  occ. eigenvalues --  -10.29309 -10.29191 -10.29175 -10.29111 -10.29108
 Alpha  occ. eigenvalues --  -10.28748 -10.28708 -10.28690 -10.28526 -10.28406
 Alpha  occ. eigenvalues --  -10.28387 -10.28010 -10.27985 -10.27984 -10.27739
 Alpha  occ. eigenvalues --  -10.27553  -3.20601  -1.94216  -1.93685  -1.93610
 Alpha  occ. eigenvalues --   -1.18740  -1.17686  -1.12126  -1.10961  -1.10398
 Alpha  occ. eigenvalues --   -1.09896  -1.06373  -1.05663  -1.05423  -1.04473
 Alpha  occ. eigenvalues --   -0.94435  -0.92417  -0.92011  -0.91679  -0.91014
 Alpha  occ. eigenvalues --   -0.90989  -0.89919  -0.89684  -0.89326  -0.89273
 Alpha  occ. eigenvalues --   -0.89003  -0.87830  -0.86413  -0.86014  -0.85568
 Alpha  occ. eigenvalues --   -0.84685  -0.84351  -0.83691  -0.83066  -0.82678
 Alpha  occ. eigenvalues --   -0.81941  -0.80804  -0.80635  -0.78857  -0.78222
 Alpha  occ. eigenvalues --   -0.77860  -0.76950  -0.76717  -0.76286  -0.75936
 Alpha  occ. eigenvalues --   -0.75203  -0.74513  -0.73697  -0.72923  -0.70905
 Alpha  occ. eigenvalues --   -0.70620  -0.70519  -0.69496  -0.68507  -0.67663
 Alpha  occ. eigenvalues --   -0.67092  -0.67083  -0.66977  -0.66260  -0.65589
 Alpha  occ. eigenvalues --   -0.65173  -0.64717  -0.64407  -0.64054  -0.62385
 Alpha  occ. eigenvalues --   -0.61970  -0.61916  -0.61496  -0.61080  -0.60002
 Alpha  occ. eigenvalues --   -0.59762  -0.59456  -0.58201  -0.57742  -0.57448
 Alpha  occ. eigenvalues --   -0.57142  -0.56890  -0.56619  -0.56260  -0.55679
 Alpha  occ. eigenvalues --   -0.55544  -0.55297  -0.55185  -0.54854  -0.54786
 Alpha  occ. eigenvalues --   -0.54629  -0.54307  -0.54025  -0.53914  -0.53775
 Alpha  occ. eigenvalues --   -0.53644  -0.53514  -0.53309  -0.53122  -0.52858
 Alpha  occ. eigenvalues --   -0.52541  -0.52299  -0.51914  -0.51718  -0.51712
 Alpha  occ. eigenvalues --   -0.51552  -0.51496  -0.51154  -0.50974  -0.50810
 Alpha  occ. eigenvalues --   -0.50671  -0.50595  -0.50374  -0.50336  -0.49993
 Alpha  occ. eigenvalues --   -0.49842  -0.49502  -0.49154  -0.48873  -0.48538
 Alpha  occ. eigenvalues --   -0.48479  -0.48437  -0.48166  -0.48135  -0.48028
 Alpha  occ. eigenvalues --   -0.47763  -0.47512  -0.47371  -0.47175  -0.46932
 Alpha  occ. eigenvalues --   -0.46645  -0.46487  -0.46185  -0.46175  -0.45876
 Alpha  occ. eigenvalues --   -0.45695  -0.45452  -0.45259  -0.45187  -0.44961
 Alpha  occ. eigenvalues --   -0.44724  -0.44485  -0.44447  -0.44062  -0.43881
 Alpha  occ. eigenvalues --   -0.43589  -0.43561  -0.42949  -0.42859  -0.42666
 Alpha  occ. eigenvalues --   -0.42599  -0.42351  -0.42307  -0.42188  -0.42177
 Alpha  occ. eigenvalues --   -0.41633  -0.41559  -0.41109  -0.40474  -0.40072
 Alpha  occ. eigenvalues --   -0.39940  -0.39832  -0.39571  -0.39419  -0.39214
 Alpha  occ. eigenvalues --   -0.38949  -0.38751  -0.38681  -0.38144  -0.37814
 Alpha  occ. eigenvalues --   -0.37799  -0.37515  -0.36863  -0.36462  -0.36387
 Alpha  occ. eigenvalues --   -0.35749  -0.35721  -0.35366  -0.33554  -0.33033
 Alpha  occ. eigenvalues --   -0.32955  -0.32473  -0.32160  -0.31515  -0.25985
 Alpha  occ. eigenvalues --   -0.22595
 Alpha virt. eigenvalues --   -0.06741   0.00024   0.01887   0.04107   0.06362
 Alpha virt. eigenvalues --    0.06980   0.07866   0.07986   0.08367   0.09154
 Alpha virt. eigenvalues --    0.10451   0.11751   0.11898   0.12424   0.12689

 Mulliken charges:
               1
     1  Mg   0.963031
     2  C   -0.096733
     3  C   -0.082424
     4  C   -0.055184
     5  C   -0.097003
     6  N   -0.353962
     7  C    0.030011
     8  C   -0.078703
     9  C   -0.107409
    10  C    0.062227
    11  C    0.060903
    12  C    0.022673
    13  C    0.015473
    14  C    0.207399
    15  O   -0.251856
    16  O   -0.392055
    17  N   -0.427965
    18  C    0.128893
    19  C   -0.172388
    20  C   -0.041640
    21  C    0.153568
    22  C    0.054488
    23  C    0.036522
    24  O   -0.276508
    25  C    0.017049
    26  N   -0.335365
    27  C    0.028817
    28  C   -0.102795
    29  C   -0.110520
    30  C    0.034269
    31  C    0.035940
    32  C   -0.014424
    33  C   -0.052166
    34  N   -0.472307
    35  C    0.187974
    36  C   -0.227396
    37  C    0.004271
    38  C    0.172908
    39  C    0.089241
    40  C    0.104735
    41  O   -0.202052
    42  C   -0.078333
    43  C    0.294718
    44  O   -0.208996
    45  O   -0.380912
    46  C    0.128089
    47  C    0.238306
    48  C   -0.151864
    49  C   -0.191805
    50  C    0.027570
    51  C    0.029806
    52  C   -0.013946
    53  C   -0.005985
    54  C   -0.159014
    55  C    0.019380
    56  C   -0.001965
    57  C   -0.014280
    58  C    0.018450
    59  C   -0.162066
    60  C   -0.024120
    61  C   -0.001622
    62  C    0.010059
    63  C   -0.006655
    64  C   -0.216335
    65  C   -0.000731
    66  C   -0.019516
    67  H   -0.014867
    68  H    0.021094
    69  H   -0.011763
    70  H    0.032492
    71  H    0.030511
    72  H    0.030851
    73  H    0.032706
    74  H    0.055780
    75  H    0.051071
    76  H    0.049523
    77  H    0.037459
    78  H    0.056038
    79  H    0.046770
    80  H    0.064177
    81  H    0.067088
    82  H    0.058643
    83  H    0.030216
    84  H    0.056365
    85  H    0.039152
    86  H    0.031648
    87  H    0.032535
    88  H    0.054094
    89  H    0.034835
    90  H    0.043482
    91  H    0.033599
    92  H    0.036059
    93  H    0.043629
    94  H    0.042049
    95  H    0.045523
    96  H    0.060783
    97  H    0.055268
    98  H    0.068818
    99  H    0.068080
   100  H    0.060197
   101  H    0.051566
   102  H    0.057592
   103  H    0.055938
   104  H    0.022704
   105  H    0.051277
   106  H    0.038232
   107  H    0.022073
   108  H    0.031782
   109  H    0.010686
   110  H    0.017321
   111  H    0.033629
   112  H    0.032378
   113  H    0.004505
   114  H    0.022572
   115  H    0.031517
   116  H    0.018922
   117  H    0.010685
   118  H   -0.001735
   119  H    0.007594
   120  H    0.016485
   121  H    0.017899
   122  H   -0.002663
   123  H    0.001952
   124  H    0.010636
   125  H    0.019724
   126  H    0.040687
   127  H    0.023015
   128  H    0.026917
   129  H    0.016009
   130  H    0.028425
   131  H    0.024578
   132  H    0.014923
   133  H    0.022101
   134  H    0.025121
   135  H    0.024405
   136  H    0.026417
   137  H    0.034717
   138  H    0.022305
   139  H    0.037039
   140  H    0.018393
 Sum of Mulliken charges =  -0.00000

 Dipole moment (field-independent basis, Debye):
    X=             -2.1848    Y=              2.7170    Z=             -1.5814  Tot=              3.8284
 Quadrupole moment (field-independent basis, Debye-Ang):
   XX=           -376.9582   YY=           -416.1798   ZZ=           -400.4895
   XY=              5.5702   XZ=             -5.0031   YZ=            -10.5019

 Normal termination of Gaussian 16 at Wed Apr 27 12:05:41 2022.
