 Gaussian 16, Revision A.03,
 Gaussian 16:  ES64L-G16RevA.03 25-Dec-2016

 --------------------
 #p ZINDO=(nstates=5)
 --------------------

 ------------------------------
 step_1151_chromophore_22 ZINDO
 ------------------------------
 Symbolic Z-matrix:
 Charge =  0 Multiplicity = 1

                         Standard orientation:
 ---------------------------------------------------------------------
 Center     Atomic      Atomic             Coordinates (Angstroms)
 Number     Number       Type             X           Y           Z
 ---------------------------------------------------------------------
      1         12           0        5.837448    0.551588   -0.237158
      2          6           0        3.837254   -2.277513   -0.112084
      3          6           0        3.450462    2.159075   -2.054171
      4          6           0        7.662303    3.369169   -0.070532
      5          6           0        8.442031   -1.272343    1.280134
      6          7           0        3.922615   -0.089012   -1.162285
      7          6           0        3.256878   -1.270158   -0.879092
      8          6           0        1.994371   -1.299859   -1.662837
      9          6           0        2.024240    0.027712   -2.494955
     10          6           0        3.223217    0.772390   -1.906024
     11          6           0        2.077904   -0.148165   -4.005877
     12          6           0        0.748461   -1.689483   -0.810267
     13          6           0       -0.647323   -1.239479   -1.213023
     14          6           0       -1.880525   -2.112182   -1.142917
     15          8           0       -2.238032   -2.854183   -2.043309
     16          8           0       -2.506083   -2.031844    0.102845
     17          7           0        5.547450    2.556158   -0.816771
     18          6           0        4.493425    3.002565   -1.590306
     19          6           0        4.648530    4.452627   -1.773528
     20          6           0        5.841915    4.847910   -1.100834
     21          6           0        6.401130    3.548348   -0.607474
     22          6           0        3.657020    5.209502   -2.572307
     23          6           0        6.411265    6.194965   -0.850042
     24          8           0        7.476033    6.301011   -0.186056
     25          6           0        5.688756    7.464177   -1.152427
     26          7           0        7.859367    0.960015    0.393791
     27          6           0        8.373088    2.222838    0.331284
     28          6           0        9.845275    2.276384    0.853625
     29          6           0        9.979932    0.763878    1.441516
     30          6           0        8.622991    0.091001    1.036501
     31          6           0       10.961908    2.696337   -0.116661
     32          6           0       10.330402    0.557566    2.944860
     33          6           0       11.475539   -0.431696    3.211122
     34          7           0        6.219184   -1.360113    0.302587
     35          6           0        7.272067   -1.965486    1.002389
     36          6           0        6.946839   -3.341208    1.274701
     37          6           0        5.605796   -3.521609    0.941715
     38          6           0        5.213443   -2.270159    0.388700
     39          6           0        7.895834   -4.303603    1.769995
     40          6           0        4.499345   -4.443907    0.812170
     41          8           0        4.438515   -5.610662    1.172520
     42          6           0        3.235116   -3.630071    0.309687
     43          6           0        2.294860   -3.349553    1.365627
     44          8           0        2.354144   -2.524455    2.225594
     45          8           0        1.344984   -4.337996    1.248531
     46          6           0        0.202544   -4.351413    2.152715
     47          6           0       -3.526755   -3.107032    0.404263
     48          6           0       -4.919473   -2.711894    0.059397
     49          6           0       -6.005547   -3.438084   -0.234576
     50          6           0       -5.937170   -4.927852   -0.127513
     51          6           0       -7.251227   -2.729111   -0.790027
     52          6           0       -7.396107   -2.487886   -2.329594
     53          6           0       -8.180962   -1.234098   -2.774043
     54          6           0       -9.676422   -1.188726   -2.323631
     55          6           0      -10.433117   -1.766087   -3.461692
     56          6           0      -10.132250    0.227066   -1.946564
     57          6           0      -10.577264    0.432977   -0.469102
     58          6           0      -12.113373    0.225111   -0.347463
     59          6           0      -13.046807    1.389603   -0.162524
     60          6           0      -14.364378    0.966164   -0.960593
     61          6           0      -13.380162    1.709023    1.330838
     62          6           0      -13.894289    3.148230    1.496012
     63          6           0      -12.854709    3.882273    2.366101
     64          6           0      -13.176777    3.926488    3.867510
     65          6           0      -12.670816    5.275060    4.560944
     66          6           0      -12.460891    2.792272    4.584008
     67          1           0        2.687331    2.740945   -2.574961
     68          1           0        8.292188    4.257033    0.016106
     69          1           0        9.233966   -1.669667    1.918355
     70          1           0        2.014181   -2.156312   -2.336863
     71          1           0        1.200264    0.681966   -2.210666
     72          1           0        2.495922   -1.130273   -4.222525
     73          1           0        2.849792    0.505239   -4.411923
     74          1           0        1.081049    0.004103   -4.420865
     75          1           0        0.874655   -1.177161    0.143825
     76          1           0        0.741249   -2.779188   -0.822933
     77          1           0       -0.595066   -1.161592   -2.299063
     78          1           0       -0.944904   -0.290924   -0.765269
     79          1           0        3.032788    4.558106   -3.182820
     80          1           0        4.289383    5.818567   -3.218029
     81          1           0        3.069462    5.819591   -1.885638
     82          1           0        4.979605    7.699399   -0.359104
     83          1           0        5.071659    7.391244   -2.047750
     84          1           0        6.361267    8.305785   -0.982072
     85          1           0        9.937272    2.951349    1.704702
     86          1           0       10.694210    0.276239    0.777766
     87          1           0       11.743522    1.940380   -0.179100
     88          1           0       11.338965    3.685869    0.142727
     89          1           0       10.479889    2.667010   -1.094340
     90          1           0        9.392278    0.232230    3.395693
     91          1           0       10.583022    1.535651    3.355302
     92          1           0       11.988901   -0.737811    2.299606
     93          1           0       11.039965   -1.319796    3.668952
     94          1           0       12.218320    0.018610    3.870717
     95          1           0        8.393170   -3.853758    2.628249
     96          1           0        8.544254   -4.548939    0.928949
     97          1           0        7.314642   -5.166796    2.095091
     98          1           0        2.829414   -4.159001   -0.552404
     99          1           0        0.102083   -3.551599    2.886142
    100          1           0        0.409178   -5.291252    2.664265
    101          1           0       -0.687055   -4.418979    1.526336
    102          1           0       -3.614459   -3.333861    1.466857
    103          1           0       -3.249261   -4.048480   -0.071277
    104          1           0       -4.870356   -1.643328   -0.148482
    105          1           0       -5.923600   -5.363846   -1.125943
    106          1           0       -6.794205   -5.363880    0.385784
    107          1           0       -5.039460   -5.274190    0.384661
    108          1           0       -7.368851   -1.797588   -0.234834
    109          1           0       -8.026385   -3.430929   -0.484263
    110          1           0       -7.886411   -3.358352   -2.763502
    111          1           0       -6.394567   -2.310318   -2.721436
    112          1           0       -7.872287   -1.109228   -3.811879
    113          1           0       -7.737638   -0.426167   -2.192458
    114          1           0       -9.811340   -1.897783   -1.507443
    115          1           0      -10.085526   -1.724962   -4.494590
    116          1           0      -11.455149   -1.394715   -3.403098
    117          1           0      -10.429116   -2.833496   -3.241315
    118          1           0      -11.008479    0.527914   -2.521818
    119          1           0       -9.469095    1.023801   -2.285645
    120          1           0      -10.229183    1.422636   -0.175635
    121          1           0       -9.975976   -0.303743    0.063905
    122          1           0      -12.255947   -0.448531    0.497031
    123          1           0      -12.384810   -0.498613   -1.115590
    124          1           0      -12.643265    2.256400   -0.687473
    125          1           0      -14.827394    1.887984   -1.311708
    126          1           0      -15.069196    0.318928   -0.436190
    127          1           0      -14.117632    0.510735   -1.919679
    128          1           0      -12.468438    1.561099    1.910403
    129          1           0      -14.190929    1.052397    1.645182
    130          1           0      -14.867759    3.024897    1.969968
    131          1           0      -13.861261    3.597298    0.503294
    132          1           0      -12.889587    4.900423    1.976110
    133          1           0      -11.839643    3.528662    2.185290
    134          1           0      -14.204198    3.768185    4.195460
    135          1           0      -12.157113    5.878934    3.812564
    136          1           0      -11.984205    5.033928    5.371505
    137          1           0      -13.554986    5.800145    4.921213
    138          1           0      -12.960583    1.894290    4.220391
    139          1           0      -12.475488    2.809435    5.674187
    140          1           0      -11.436011    2.731973    4.218829
 ---------------------------------------------------------------------

 SCF Done:  E(RZINDO/S) =  -474.515122758     A.U. after   19 cycles

 Excitation energies and oscillator strengths:

 Excited State   1:      Singlet-A      1.2469 eV  994.37 nm  f=0.6087  <S**2>=0.000
     175 ->178         0.19294
     176 ->177         0.66195
 This state for optimization and/or second-order correction.
 Total Energy, E(CIS/TDA) =  -474.469301659
 Copying the excited state density for this state as the 1-particle RhoCI density.

 Excited State   2:      Singlet-A      1.9231 eV  644.72 nm  f=0.0148  <S**2>=0.000
     175 ->177         0.51460
     176 ->178        -0.46140

 Excited State   3:      Singlet-A      2.8172 eV  440.10 nm  f=0.0050  <S**2>=0.000
     168 ->177         0.31409
     168 ->178         0.15464
     168 ->179         0.38967
     168 ->180        -0.28568
     168 ->185         0.19206
     168 ->187         0.10374
     176 ->179         0.15769

 Excited State   4:      Singlet-A      2.8574 eV  433.91 nm  f=0.0143  <S**2>=0.000
     176 ->179         0.64790
     176 ->180         0.10682
     176 ->182         0.10362

 Excited State   5:      Singlet-A      2.9447 eV  421.04 nm  f=0.9549  <S**2>=0.000
     175 ->177         0.41204
     176 ->178         0.48877
     176 ->180        -0.16930

 The electronic state is 1-A.
 Alpha  occ. eigenvalues --   -1.84225  -1.81099  -1.80079  -1.73786  -1.71320
 Alpha  occ. eigenvalues --   -1.69832  -1.66201  -1.62481  -1.57966  -1.57855
 Alpha  occ. eigenvalues --   -1.55018  -1.51909  -1.50516  -1.48111  -1.46731
 Alpha  occ. eigenvalues --   -1.44337  -1.43912  -1.41440  -1.40337  -1.39587
 Alpha  occ. eigenvalues --   -1.36309  -1.35725  -1.33338  -1.32086  -1.28764
 Alpha  occ. eigenvalues --   -1.28179  -1.25505  -1.22674  -1.21610  -1.18649
 Alpha  occ. eigenvalues --   -1.17741  -1.15716  -1.15148  -1.14288  -1.12550
 Alpha  occ. eigenvalues --   -1.12245  -1.11173  -1.10285  -1.04162  -1.03674
 Alpha  occ. eigenvalues --   -1.01988  -1.01171  -0.99316  -0.97366  -0.96308
 Alpha  occ. eigenvalues --   -0.95683  -0.94657  -0.93070  -0.92811  -0.92210
 Alpha  occ. eigenvalues --   -0.91194  -0.90966  -0.88928  -0.88358  -0.86861
 Alpha  occ. eigenvalues --   -0.86421  -0.83797  -0.83154  -0.81502  -0.80060
 Alpha  occ. eigenvalues --   -0.79573  -0.78581  -0.78000  -0.76960  -0.76587
 Alpha  occ. eigenvalues --   -0.76074  -0.75555  -0.75124  -0.74296  -0.73545
 Alpha  occ. eigenvalues --   -0.72927  -0.72454  -0.71486  -0.71060  -0.70467
 Alpha  occ. eigenvalues --   -0.70271  -0.69451  -0.68646  -0.67899  -0.67746
 Alpha  occ. eigenvalues --   -0.67145  -0.66989  -0.66263  -0.66146  -0.65822
 Alpha  occ. eigenvalues --   -0.65356  -0.65124  -0.64469  -0.64319  -0.63908
 Alpha  occ. eigenvalues --   -0.63798  -0.63111  -0.62706  -0.62371  -0.62293
 Alpha  occ. eigenvalues --   -0.61956  -0.61299  -0.60595  -0.60422  -0.60135
 Alpha  occ. eigenvalues --   -0.59877  -0.59282  -0.58828  -0.58411  -0.58181
 Alpha  occ. eigenvalues --   -0.57970  -0.57710  -0.57477  -0.56585  -0.56426
 Alpha  occ. eigenvalues --   -0.56307  -0.55886  -0.55210  -0.54856  -0.54764
 Alpha  occ. eigenvalues --   -0.54620  -0.54247  -0.53637  -0.52767  -0.52230
 Alpha  occ. eigenvalues --   -0.51888  -0.51874  -0.51595  -0.51352  -0.51048
 Alpha  occ. eigenvalues --   -0.50873  -0.50568  -0.50476  -0.50083  -0.49893
 Alpha  occ. eigenvalues --   -0.49698  -0.49206  -0.49050  -0.48962  -0.48701
 Alpha  occ. eigenvalues --   -0.48414  -0.48126  -0.47558  -0.47197  -0.47176
 Alpha  occ. eigenvalues --   -0.47024  -0.46886  -0.46734  -0.46654  -0.46141
 Alpha  occ. eigenvalues --   -0.45781  -0.45716  -0.45228  -0.45207  -0.45108
 Alpha  occ. eigenvalues --   -0.44876  -0.44449  -0.44203  -0.43914  -0.43521
 Alpha  occ. eigenvalues --   -0.43308  -0.43024  -0.42355  -0.42252  -0.41602
 Alpha  occ. eigenvalues --   -0.41529  -0.41334  -0.41128  -0.38960  -0.38741
 Alpha  occ. eigenvalues --   -0.38544  -0.36418  -0.35208  -0.35011  -0.34555
 Alpha  occ. eigenvalues --   -0.33262  -0.32411  -0.32142  -0.31654  -0.26512
 Alpha  occ. eigenvalues --   -0.21237
 Alpha virt. eigenvalues --   -0.08078  -0.01982  -0.00817   0.00965   0.01639
 Alpha virt. eigenvalues --    0.03114   0.03369   0.03580   0.04898   0.05046
 Alpha virt. eigenvalues --    0.06504   0.06878   0.07328   0.07885   0.08462

 Mulliken charges:
               1
     1  Mg   0.423967
     2  C   -0.047950
     3  C   -0.095794
     4  C   -0.060971
     5  C   -0.065681
     6  N   -0.291552
     7  C    0.107218
     8  C    0.007035
     9  C    0.007769
    10  C    0.154179
    11  C   -0.046297
    12  C   -0.017005
    13  C   -0.000055
    14  C    0.472991
    15  O   -0.511468
    16  O   -0.282431
    17  N   -0.314496
    18  C    0.103127
    19  C    0.022592
    20  C   -0.049653
    21  C    0.157589
    22  C   -0.040464
    23  C    0.328327
    24  O   -0.545724
    25  C   -0.034432
    26  N   -0.253174
    27  C    0.135470
    28  C   -0.003784
    29  C   -0.020725
    30  C    0.115758
    31  C   -0.048692
    32  C   -0.025559
    33  C   -0.054459
    34  N   -0.322367
    35  C    0.078617
    36  C    0.044256
    37  C   -0.062791
    38  C    0.112360
    39  C   -0.037810
    40  C    0.337996
    41  O   -0.522441
    42  C    0.056746
    43  C    0.508130
    44  O   -0.516084
    45  O   -0.282851
    46  C    0.069980
    47  C    0.104322
    48  C   -0.078164
    49  C   -0.010399
    50  C   -0.037506
    51  C   -0.022003
    52  C   -0.030695
    53  C   -0.040412
    54  C    0.004094
    55  C   -0.055601
    56  C   -0.040024
    57  C   -0.039706
    58  C   -0.032368
    59  C   -0.005055
    60  C   -0.066241
    61  C   -0.036807
    62  C   -0.044276
    63  C   -0.023721
    64  C   -0.016615
    65  C   -0.067205
    66  C   -0.057630
    67  H    0.019437
    68  H    0.043353
    69  H    0.030991
    70  H    0.025828
    71  H    0.023525
    72  H    0.023700
    73  H    0.023341
    74  H    0.030058
    75  H    0.034793
    76  H    0.038052
    77  H    0.028575
    78  H    0.037898
    79  H    0.032208
    80  H    0.029379
    81  H    0.037920
    82  H    0.038952
    83  H    0.034850
    84  H    0.048616
    85  H    0.029705
    86  H    0.026138
    87  H    0.023134
    88  H    0.031885
    89  H    0.020732
    90  H    0.026395
    91  H    0.019366
    92  H    0.021271
    93  H    0.020483
    94  H    0.020492
    95  H    0.031477
    96  H    0.039972
    97  H    0.031290
    98  H    0.054978
    99  H    0.053559
   100  H    0.038327
   101  H    0.034556
   102  H    0.041482
   103  H    0.050793
   104  H    0.021973
   105  H    0.030214
   106  H    0.021500
   107  H    0.020862
   108  H    0.026120
   109  H    0.012401
   110  H    0.022298
   111  H    0.021619
   112  H    0.031295
   113  H    0.004926
   114  H    0.029281
   115  H    0.025644
   116  H    0.010874
   117  H    0.005770
   118  H    0.007467
   119  H    0.015010
   120  H    0.018480
   121  H    0.019317
   122  H    0.001263
   123  H    0.019758
   124  H    0.025007
   125  H    0.008364
   126  H    0.029855
   127  H    0.013640
   128  H    0.025293
   129  H    0.019550
   130  H    0.031002
   131  H    0.026756
   132  H    0.002232
   133  H    0.029378
   134  H    0.027070
   135  H    0.019784
   136  H    0.023951
   137  H    0.018863
   138  H    0.005694
   139  H    0.021110
   140  H    0.015479
 Sum of Mulliken charges =  -0.00000

 Dipole moment (field-independent basis, Debye):
    X=             -2.9545    Y=              4.3130    Z=             -3.8272  Tot=              6.4791
 N-N= 4.234942268002D+03 E-N= 0.000000000000D+00  KE=-9.144815656024D+03
 Leave Link  601 at Wed Apr 27 12:16:30 2022, MaxMem=  6710886400 cpu:               0.8 elap:               0.1
 (Enter /sw/apps/gaussian-16.0/g16/l9999.exe)
 1\1\GINC-BP1-COMPUTE147\SP\RZINDO CIS\STO-3G\C55H74Mg1N4O6\OF15641\27-
 Apr-2022\0\\#p ZINDO=(nstates=5)\\step_1151_chromophore_22 ZINDO\\0,1\
 Mg,0,8.975,48.595,24.898\C,0,6.692,48.287,27.489\C,0,11.361,49.578,27.
 117\C,0,11.238,48.58,22.413\C,0,6.382,47.978,22.594\N,0,8.948,49.081,2
 7.065\C,0,7.918,48.772,27.938\C,0,8.306,49.217,29.302\C,0,9.712,49.881
 ,29.107\C,0,10.057,49.53,27.659\C,0,9.783,51.368,29.424\C,0,8.072,48.1
 3,30.395\C,0,8.887,48.123,31.679\C,0,8.317,47.845,33.052\O,0,7.836,48.

 Normal termination of Gaussian 16 at Wed Apr 27 12:16:30 2022.
