 Gaussian 16, Revision A.03,
 Gaussian 16:  ES64L-G16RevA.03 25-Dec-2016

 ------------------------------
 #p blyp/Def2SVP td=(nstates=5)
 ------------------------------

 --------------------------------------------------
 step_601_chromophore_18 TDDFT with blyp functional
 --------------------------------------------------
 Symbolic Z-matrix:
 Charge =  0 Multiplicity = 1

                         Standard orientation:
 ---------------------------------------------------------------------
 Center     Atomic      Atomic             Coordinates (Angstroms)
 Number     Number       Type             X           Y           Z
 ---------------------------------------------------------------------
      1         12           0        5.192778    1.151507    0.035018
      2          6           0        4.644375   -2.286848    0.070298
      3          6           0        1.948112    1.741389   -0.020397
      4          6           0        6.019184    4.449394   -0.323273
      5          6           0        8.702947    0.411290    0.029048
      6          7           0        3.472120   -0.119804   -0.042175
      7          6           0        3.517433   -1.503963    0.134069
      8          6           0        2.060497   -2.023085    0.254795
      9          6           0        1.211215   -0.764722    0.110356
     10          6           0        2.242904    0.335074    0.012076
     11          6           0        0.217676   -0.788746   -1.094361
     12          6           0        1.902272   -2.844475    1.634486
     13          6           0        1.158331   -4.191644    1.556988
     14          6           0        0.213998   -4.410652    0.370098
     15          8           0        0.421747   -5.132567   -0.619318
     16          8           0       -0.974288   -3.629336    0.436586
     17          7           0        4.124881    2.819723   -0.207853
     18          6           0        2.796884    2.861652    0.002101
     19          6           0        2.393275    4.270267    0.105932
     20          6           0        3.531660    5.027840   -0.141065
     21          6           0        4.688999    4.095870   -0.260530
     22          6           0        0.946886    4.688450    0.311817
     23          6           0        3.558925    6.509824   -0.241180
     24          8           0        4.577836    7.095403   -0.608188
     25          6           0        2.379924    7.437769    0.012582
     26          7           0        7.124362    2.290681   -0.082579
     27          6           0        7.138813    3.579359   -0.287422
     28          6           0        8.575112    4.147936   -0.509491
     29          6           0        9.426049    2.884641   -0.156060
     30          6           0        8.398463    1.806915   -0.048831
     31          6           0        8.823365    4.611999   -1.930866
     32          6           0       10.386305    2.929742    1.094406
     33          6           0        9.628787    3.113146    2.428096
     34          7           0        6.441326   -0.540978    0.016881
     35          6           0        7.831054   -0.718534   -0.029670
     36          6           0        8.103781   -2.129184   -0.041878
     37          6           0        6.939715   -2.767073   -0.037633
     38          6           0        5.934036   -1.740950    0.092988
     39          6           0        9.465859   -2.730566    0.005604
     40          6           0        6.269312   -4.059251    0.023073
     41          8           0        6.742740   -5.178811    0.098053
     42          6           0        4.781159   -3.795815    0.195507
     43          6           0        4.260718   -4.544258   -0.886351
     44          8           0        4.201537   -4.063947   -2.024242
     45          8           0        3.792479   -5.767349   -0.598125
     46          6           0        3.182309   -6.449621   -1.740143
     47          6           0       -1.843417   -3.777848   -0.751021
     48          6           0       -3.044275   -2.833221   -0.572192
     49          6           0       -4.353230   -3.128957   -0.802082
     50          6           0       -4.905821   -4.544294   -1.076773
     51          6           0       -5.483370   -2.115752   -0.682221
     52          6           0       -5.978706   -2.081042    0.754523
     53          6           0       -6.659719   -0.751486    1.122871
     54          6           0       -8.017859   -0.985708    1.880700
     55          6           0       -7.895864   -0.702233    3.425076
     56          6           0       -9.201999   -0.150205    1.356561
     57          6           0      -10.507339   -0.713954    0.834800
     58          6           0      -11.720358   -0.250357    1.622748
     59          6           0      -12.238254    1.176140    1.086907
     60          6           0      -12.143568    2.355333    2.066595
     61          6           0      -13.672740    1.053028    0.438277
     62          6           0      -13.643752    1.295332   -1.055536
     63          6           0      -14.919397    1.358562   -1.900890
     64          6           0      -15.904098    2.443311   -1.431643
     65          6           0      -17.359642    1.918287   -1.597623
     66          6           0      -15.781902    3.730077   -2.221175
     67          1           0        0.893643    2.019739    0.024151
     68          1           0        6.187415    5.507596   -0.106365
     69          1           0        9.722114    0.118668   -0.228976
     70          1           0        1.889007   -2.688712   -0.591404
     71          1           0        0.644775   -0.530642    1.011958
     72          1           0        0.185661   -1.762266   -1.582143
     73          1           0        0.314918    0.049557   -1.784415
     74          1           0       -0.732464   -0.681517   -0.568958
     75          1           0        1.399064   -2.261224    2.405808
     76          1           0        2.926941   -3.004589    1.971112
     77          1           0        0.622000   -4.409695    2.480404
     78          1           0        1.826803   -5.052265    1.548929
     79          1           0        0.948825    5.365087    1.166576
     80          1           0        0.344900    3.851828    0.666331
     81          1           0        0.592970    5.138555   -0.615101
     82          1           0        1.840802    7.162224    0.919275
     83          1           0        1.765950    7.442583   -0.887890
     84          1           0        2.677626    8.474537    0.170473
     85          1           0        8.755733    4.971476    0.181740
     86          1           0       10.088849    2.645029   -0.988284
     87          1           0        7.944094    4.883195   -2.513815
     88          1           0        9.444213    3.956478   -2.542776
     89          1           0        9.323030    5.580109   -1.899400
     90          1           0       11.037546    3.788514    0.926644
     91          1           0       10.806993    1.924832    1.141671
     92          1           0        9.841270    2.294445    3.116221
     93          1           0        8.548749    3.247525    2.366072
     94          1           0        9.958413    3.936157    3.061481
     95          1           0        9.469072   -3.527546    0.748394
     96          1           0       10.059832   -1.887538    0.360239
     97          1           0        9.664015   -2.948064   -1.044757
     98          1           0        4.453803   -4.153067    1.171549
     99          1           0        3.854156   -6.805196   -2.521605
    100          1           0        2.384023   -5.925066   -2.265422
    101          1           0        2.632523   -7.249837   -1.244552
    102          1           0       -2.159439   -4.817044   -0.841774
    103          1           0       -1.420580   -3.385864   -1.675237
    104          1           0       -2.765297   -1.893949   -0.095060
    105          1           0       -4.058866   -5.154867   -1.388686
    106          1           0       -5.598370   -4.484760   -1.916603
    107          1           0       -5.356040   -4.935880   -0.164006
    108          1           0       -6.361519   -2.326513   -1.293066
    109          1           0       -5.068663   -1.148954   -0.965742
    110          1           0       -5.096224   -2.081097    1.394762
    111          1           0       -6.596053   -2.950396    0.979558
    112          1           0       -6.773136   -0.136365    0.230308
    113          1           0       -5.990254   -0.137558    1.723888
    114          1           0       -8.279593   -2.040857    1.801054
    115          1           0       -8.294256    0.278268    3.687519
    116          1           0       -6.879082   -0.769713    3.810861
    117          1           0       -8.439159   -1.528244    3.885207
    118          1           0       -8.831991    0.451136    0.525789
    119          1           0       -9.498714    0.623690    2.063654
    120          1           0      -10.451202   -1.801138    0.801304
    121          1           0      -10.698691   -0.423014   -0.198295
    122          1           0      -11.308359   -0.155714    2.627773
    123          1           0      -12.507075   -1.004229    1.629646
    124          1           0      -11.548559    1.454809    0.290554
    125          1           0      -11.306085    2.995441    1.788639
    126          1           0      -11.944192    1.957021    3.062010
    127          1           0      -13.008426    3.015153    1.997927
    128          1           0      -14.359740    1.699090    0.983596
    129          1           0      -14.047099    0.036984    0.562358
    130          1           0      -13.082286    0.504068   -1.553286
    131          1           0      -13.033964    2.152006   -1.339707
    132          1           0      -15.370064    0.366376   -1.874205
    133          1           0      -14.554672    1.530930   -2.913684
    134          1           0      -15.611405    2.738277   -0.424132
    135          1           0      -18.034913    2.613488   -2.095958
    136          1           0      -17.861987    1.880520   -0.630440
    137          1           0      -17.455078    1.019678   -2.207570
    138          1           0      -16.321523    4.549378   -1.748056
    139          1           0      -16.196988    3.594732   -3.220055
    140          1           0      -14.726423    4.002514   -2.200706
 ---------------------------------------------------------------------

 SCF Done:  E(RB-LYP) =  -3007.38229079     A.U. after   22 cycles

 Excitation energies and oscillator strengths:

 Excited State   1:      Singlet-A      1.8289 eV  677.92 nm  f=0.2823  <S**2>=0.000
     245 -> 248       -0.19423
     246 -> 247        0.68362
     246 <- 247       -0.13413
 This state for optimization and/or second-order correction.
 Total Energy, E(TD-HF/TD-DFT) =  -3007.31508058
 Copying the excited state density for this state as the 1-particle RhoCI density.

 Excited State   2:      Singlet-A      1.9640 eV  631.30 nm  f=0.0101  <S**2>=0.000
     244 -> 247        0.55766
     245 -> 247       -0.41814
     246 -> 248       -0.10793

 Excited State   3:      Singlet-A      2.1363 eV  580.37 nm  f=0.0284  <S**2>=0.000
     244 -> 247        0.41596
     245 -> 247        0.46743
     246 -> 248        0.30501

 Excited State   4:      Singlet-A      2.1446 eV  578.11 nm  f=0.0014  <S**2>=0.000
     243 -> 247        0.70342

 Excited State   5:      Singlet-A      2.5440 eV  487.36 nm  f=0.0003  <S**2>=0.000
     242 -> 247        0.70198

 The electronic state is 1-A.
 Alpha  occ. eigenvalues --  -46.26741 -18.82563 -18.81758 -18.78162 -18.75493
 Alpha  occ. eigenvalues --  -18.74991 -18.74758 -14.03187 -14.03094 -14.01045
 Alpha  occ. eigenvalues --  -14.00658 -10.05325 -10.02485  -9.99574  -9.99457
 Alpha  occ. eigenvalues --   -9.98314  -9.96695  -9.96129  -9.96103  -9.96073
 Alpha  occ. eigenvalues --   -9.95970  -9.95948  -9.95812  -9.94996  -9.94562
 Alpha  occ. eigenvalues --   -9.94469  -9.94195  -9.93956  -9.93900  -9.93769
 Alpha  occ. eigenvalues --   -9.93612  -9.93503  -9.93492  -9.93396  -9.93267
 Alpha  occ. eigenvalues --   -9.93114  -9.93064  -9.92889  -9.92761  -9.92724
 Alpha  occ. eigenvalues --   -9.92600  -9.92583  -9.92434  -9.92339  -9.92206
 Alpha  occ. eigenvalues --   -9.92202  -9.92085  -9.92007  -9.91870  -9.91722
 Alpha  occ. eigenvalues --   -9.91702  -9.91642  -9.91637  -9.91497  -9.91393
 Alpha  occ. eigenvalues --   -9.91212  -9.91209  -9.91161  -9.90960  -9.90898
 Alpha  occ. eigenvalues --   -9.90870  -9.90834  -9.90695  -9.90599  -9.90540
 Alpha  occ. eigenvalues --   -9.89886  -2.91464  -1.71899  -1.71335  -1.71182
 Alpha  occ. eigenvalues --   -0.97798  -0.96920  -0.91691  -0.91050  -0.89439
 Alpha  occ. eigenvalues --   -0.88200  -0.87348  -0.86888  -0.86216  -0.85236
 Alpha  occ. eigenvalues --   -0.75953  -0.73903  -0.73124  -0.72884  -0.72414
 Alpha  occ. eigenvalues --   -0.72207  -0.71627  -0.71168  -0.70806  -0.70656
 Alpha  occ. eigenvalues --   -0.70294  -0.69572  -0.68560  -0.67923  -0.67305
 Alpha  occ. eigenvalues --   -0.66804  -0.65612  -0.65208  -0.65082  -0.64457
 Alpha  occ. eigenvalues --   -0.64291  -0.62752  -0.62493  -0.61852  -0.60851
 Alpha  occ. eigenvalues --   -0.60431  -0.59910  -0.59845  -0.59759  -0.59204
 Alpha  occ. eigenvalues --   -0.58323  -0.57569  -0.57089  -0.56261  -0.55406
 Alpha  occ. eigenvalues --   -0.53957  -0.53553  -0.53062  -0.52491  -0.51931
 Alpha  occ. eigenvalues --   -0.51435  -0.51041  -0.50781  -0.50399  -0.50369
 Alpha  occ. eigenvalues --   -0.49748  -0.49393  -0.48285  -0.48023  -0.46699
 Alpha  occ. eigenvalues --   -0.46536  -0.46339  -0.45965  -0.45249  -0.45035
 Alpha  occ. eigenvalues --   -0.43862  -0.43223  -0.43048  -0.42763  -0.42522
 Alpha  occ. eigenvalues --   -0.42101  -0.41867  -0.41526  -0.41356  -0.41104
 Alpha  occ. eigenvalues --   -0.40789  -0.40766  -0.40658  -0.40523  -0.40137
 Alpha  occ. eigenvalues --   -0.40059  -0.39940  -0.39691  -0.39403  -0.39303
 Alpha  occ. eigenvalues --   -0.39197  -0.38918  -0.38643  -0.38505  -0.38269
 Alpha  occ. eigenvalues --   -0.38080  -0.37884  -0.37782  -0.37568  -0.37438
 Alpha  occ. eigenvalues --   -0.37223  -0.37069  -0.36758  -0.36713  -0.36399
 Alpha  occ. eigenvalues --   -0.36299  -0.36157  -0.36030  -0.35873  -0.35716
 Alpha  occ. eigenvalues --   -0.35699  -0.35572  -0.35243  -0.35154  -0.34501
 Alpha  occ. eigenvalues --   -0.34422  -0.34363  -0.34009  -0.33834  -0.33746
 Alpha  occ. eigenvalues --   -0.33601  -0.33584  -0.33254  -0.33201  -0.32984
 Alpha  occ. eigenvalues --   -0.32825  -0.32684  -0.32610  -0.32532  -0.32509
 Alpha  occ. eigenvalues --   -0.32357  -0.32168  -0.32005  -0.31784  -0.31764
 Alpha  occ. eigenvalues --   -0.31537  -0.31182  -0.31010  -0.30586  -0.30533
 Alpha  occ. eigenvalues --   -0.30428  -0.30289  -0.29981  -0.29900  -0.29692
 Alpha  occ. eigenvalues --   -0.29599  -0.29420  -0.29060  -0.28940  -0.28919
 Alpha  occ. eigenvalues --   -0.28634  -0.28515  -0.28439  -0.28307  -0.27990
 Alpha  occ. eigenvalues --   -0.27427  -0.27058  -0.26876  -0.26338  -0.26275
 Alpha  occ. eigenvalues --   -0.26163  -0.25984  -0.25957  -0.25871  -0.25673
 Alpha  occ. eigenvalues --   -0.25487  -0.24939  -0.24746  -0.24257  -0.23796
 Alpha  occ. eigenvalues --   -0.23357  -0.22685  -0.22105  -0.21411  -0.20879
 Alpha  occ. eigenvalues --   -0.20306  -0.20233  -0.18664  -0.18171  -0.17163
 Alpha  occ. eigenvalues --   -0.15403
 Alpha virt. eigenvalues --   -0.10887  -0.07099  -0.05956  -0.04688  -0.04561
 Alpha virt. eigenvalues --   -0.02550  -0.01980  -0.01228  -0.00826   0.00338
 Alpha virt. eigenvalues --    0.01315   0.01614   0.02549   0.02750   0.02929

 Mulliken charges:
               1
     1  Mg   0.694394
     2  C    0.027724
     3  C   -0.071974
     4  C   -0.064724
     5  C   -0.074806
     6  N   -0.212581
     7  C   -0.087901
     8  C   -0.010943
     9  C    0.042626
    10  C   -0.002047
    11  C    0.123380
    12  C    0.132274
    13  C    0.157336
    14  C    0.090421
    15  O   -0.205279
    16  O   -0.315084
    17  N   -0.334363
    18  C    0.142665
    19  C   -0.176134
    20  C    0.069338
    21  C    0.127352
    22  C    0.205376
    23  C   -0.113706
    24  O   -0.186011
    25  C    0.154039
    26  N   -0.139523
    27  C    0.007637
    28  C    0.029481
    29  C    0.028044
    30  C   -0.007397
    31  C    0.129549
    32  C    0.118043
    33  C    0.039447
    34  N   -0.228586
    35  C    0.059051
    36  C   -0.248713
    37  C    0.152060
    38  C    0.037564
    39  C    0.198049
    40  C   -0.114261
    41  O   -0.123293
    42  C    0.169987
    43  C    0.072168
    44  O   -0.220520
    45  O   -0.230296
    46  C    0.235571
    47  C    0.301921
    48  C   -0.103572
    49  C   -0.163110
    50  C    0.144952
    51  C    0.139708
    52  C    0.055955
    53  C    0.125817
    54  C   -0.057495
    55  C    0.096023
    56  C    0.101919
    57  C    0.066889
    58  C    0.105811
    59  C   -0.094757
    60  C    0.121399
    61  C    0.154736
    62  C   -0.001250
    63  C    0.135490
    64  C   -0.071270
    65  C    0.112417
    66  C    0.098237
    67  H   -0.080676
    68  H   -0.024881
    69  H   -0.037238
    70  H    0.018021
    71  H   -0.027520
    72  H    0.008005
    73  H    0.001965
    74  H   -0.012777
    75  H   -0.019269
    76  H   -0.013591
    77  H   -0.009208
    78  H   -0.003960
    79  H   -0.004930
    80  H   -0.014329
    81  H    0.017216
    82  H   -0.011395
    83  H    0.008541
    84  H   -0.011468
    85  H   -0.023484
    86  H   -0.032268
    87  H   -0.005676
    88  H   -0.007185
    89  H   -0.018704
    90  H   -0.008052
    91  H   -0.013406
    92  H   -0.017295
    93  H    0.002616
    94  H   -0.023562
    95  H    0.015064
    96  H   -0.024098
    97  H    0.017853
    98  H   -0.002691
    99  H    0.012557
   100  H    0.013432
   101  H   -0.001309
   102  H    0.002020
   103  H    0.020095
   104  H   -0.029316
   105  H   -0.019835
   106  H   -0.004801
   107  H    0.016842
   108  H   -0.029424
   109  H   -0.029930
   110  H   -0.031264
   111  H   -0.022018
   112  H   -0.036929
   113  H   -0.038414
   114  H   -0.034070
   115  H   -0.006717
   116  H   -0.023628
   117  H   -0.014195
   118  H   -0.051308
   119  H   -0.045296
   120  H   -0.050090
   121  H   -0.034094
   122  H   -0.037808
   123  H   -0.031774
   124  H   -0.027055
   125  H   -0.021479
   126  H   -0.013451
   127  H   -0.018979
   128  H   -0.030758
   129  H   -0.043005
   130  H   -0.041300
   131  H   -0.040718
   132  H   -0.038696
   133  H   -0.040171
   134  H   -0.033962
   135  H   -0.038713
   136  H   -0.019463
   137  H   -0.011181
   138  H   -0.020344
   139  H   -0.014423
   140  H   -0.025903
 Sum of Mulliken charges =  -0.00000

 Dipole moment (field-independent basis, Debye):
    X=             -4.2683    Y=              2.4740    Z=              3.2002  Tot=              5.8805
 Quadrupole moment (field-independent basis, Debye-Ang):
   XX=           -398.4835   YY=           -435.7152   ZZ=           -405.4037
   XY=             26.8053   XZ=             13.2290   YZ=              0.3067

 Normal termination of Gaussian 16 at Sat Apr 30 05:49:26 2022.
