 Gaussian 16, Revision A.03,
 Gaussian 16:  ES64L-G16RevA.03 25-Dec-2016

 -----------------------------------
 #p cam-b3lyp/Def2SVP td=(nstates=5)
 -----------------------------------

 -------------------------------------------------------
 step_601_chromophore_18 TDDFT with cam-b3lyp functional
 -------------------------------------------------------
 Symbolic Z-matrix:
 Charge =  0 Multiplicity = 1

                         Standard orientation:
 ---------------------------------------------------------------------
 Center     Atomic      Atomic             Coordinates (Angstroms)
 Number     Number       Type             X           Y           Z
 ---------------------------------------------------------------------
      1         12           0        5.192778    1.151507    0.035018
      2          6           0        4.644375   -2.286848    0.070298
      3          6           0        1.948112    1.741389   -0.020397
      4          6           0        6.019184    4.449394   -0.323273
      5          6           0        8.702947    0.411290    0.029048
      6          7           0        3.472120   -0.119804   -0.042175
      7          6           0        3.517433   -1.503963    0.134069
      8          6           0        2.060497   -2.023085    0.254795
      9          6           0        1.211215   -0.764722    0.110356
     10          6           0        2.242904    0.335074    0.012076
     11          6           0        0.217676   -0.788746   -1.094361
     12          6           0        1.902272   -2.844475    1.634486
     13          6           0        1.158331   -4.191644    1.556988
     14          6           0        0.213998   -4.410652    0.370098
     15          8           0        0.421747   -5.132567   -0.619318
     16          8           0       -0.974288   -3.629336    0.436586
     17          7           0        4.124881    2.819723   -0.207853
     18          6           0        2.796884    2.861652    0.002101
     19          6           0        2.393275    4.270267    0.105932
     20          6           0        3.531660    5.027840   -0.141065
     21          6           0        4.688999    4.095870   -0.260530
     22          6           0        0.946886    4.688450    0.311817
     23          6           0        3.558925    6.509824   -0.241180
     24          8           0        4.577836    7.095403   -0.608188
     25          6           0        2.379924    7.437769    0.012582
     26          7           0        7.124362    2.290681   -0.082579
     27          6           0        7.138813    3.579359   -0.287422
     28          6           0        8.575112    4.147936   -0.509491
     29          6           0        9.426049    2.884641   -0.156060
     30          6           0        8.398463    1.806915   -0.048831
     31          6           0        8.823365    4.611999   -1.930866
     32          6           0       10.386305    2.929742    1.094406
     33          6           0        9.628787    3.113146    2.428096
     34          7           0        6.441326   -0.540978    0.016881
     35          6           0        7.831054   -0.718534   -0.029670
     36          6           0        8.103781   -2.129184   -0.041878
     37          6           0        6.939715   -2.767073   -0.037633
     38          6           0        5.934036   -1.740950    0.092988
     39          6           0        9.465859   -2.730566    0.005604
     40          6           0        6.269312   -4.059251    0.023073
     41          8           0        6.742740   -5.178811    0.098053
     42          6           0        4.781159   -3.795815    0.195507
     43          6           0        4.260718   -4.544258   -0.886351
     44          8           0        4.201537   -4.063947   -2.024242
     45          8           0        3.792479   -5.767349   -0.598125
     46          6           0        3.182309   -6.449621   -1.740143
     47          6           0       -1.843417   -3.777848   -0.751021
     48          6           0       -3.044275   -2.833221   -0.572192
     49          6           0       -4.353230   -3.128957   -0.802082
     50          6           0       -4.905821   -4.544294   -1.076773
     51          6           0       -5.483370   -2.115752   -0.682221
     52          6           0       -5.978706   -2.081042    0.754523
     53          6           0       -6.659719   -0.751486    1.122871
     54          6           0       -8.017859   -0.985708    1.880700
     55          6           0       -7.895864   -0.702233    3.425076
     56          6           0       -9.201999   -0.150205    1.356561
     57          6           0      -10.507339   -0.713954    0.834800
     58          6           0      -11.720358   -0.250357    1.622748
     59          6           0      -12.238254    1.176140    1.086907
     60          6           0      -12.143568    2.355333    2.066595
     61          6           0      -13.672740    1.053028    0.438277
     62          6           0      -13.643752    1.295332   -1.055536
     63          6           0      -14.919397    1.358562   -1.900890
     64          6           0      -15.904098    2.443311   -1.431643
     65          6           0      -17.359642    1.918287   -1.597623
     66          6           0      -15.781902    3.730077   -2.221175
     67          1           0        0.893643    2.019739    0.024151
     68          1           0        6.187415    5.507596   -0.106365
     69          1           0        9.722114    0.118668   -0.228976
     70          1           0        1.889007   -2.688712   -0.591404
     71          1           0        0.644775   -0.530642    1.011958
     72          1           0        0.185661   -1.762266   -1.582143
     73          1           0        0.314918    0.049557   -1.784415
     74          1           0       -0.732464   -0.681517   -0.568958
     75          1           0        1.399064   -2.261224    2.405808
     76          1           0        2.926941   -3.004589    1.971112
     77          1           0        0.622000   -4.409695    2.480404
     78          1           0        1.826803   -5.052265    1.548929
     79          1           0        0.948825    5.365087    1.166576
     80          1           0        0.344900    3.851828    0.666331
     81          1           0        0.592970    5.138555   -0.615101
     82          1           0        1.840802    7.162224    0.919275
     83          1           0        1.765950    7.442583   -0.887890
     84          1           0        2.677626    8.474537    0.170473
     85          1           0        8.755733    4.971476    0.181740
     86          1           0       10.088849    2.645029   -0.988284
     87          1           0        7.944094    4.883195   -2.513815
     88          1           0        9.444213    3.956478   -2.542776
     89          1           0        9.323030    5.580109   -1.899400
     90          1           0       11.037546    3.788514    0.926644
     91          1           0       10.806993    1.924832    1.141671
     92          1           0        9.841270    2.294445    3.116221
     93          1           0        8.548749    3.247525    2.366072
     94          1           0        9.958413    3.936157    3.061481
     95          1           0        9.469072   -3.527546    0.748394
     96          1           0       10.059832   -1.887538    0.360239
     97          1           0        9.664015   -2.948064   -1.044757
     98          1           0        4.453803   -4.153067    1.171549
     99          1           0        3.854156   -6.805196   -2.521605
    100          1           0        2.384023   -5.925066   -2.265422
    101          1           0        2.632523   -7.249837   -1.244552
    102          1           0       -2.159439   -4.817044   -0.841774
    103          1           0       -1.420580   -3.385864   -1.675237
    104          1           0       -2.765297   -1.893949   -0.095060
    105          1           0       -4.058866   -5.154867   -1.388686
    106          1           0       -5.598370   -4.484760   -1.916603
    107          1           0       -5.356040   -4.935880   -0.164006
    108          1           0       -6.361519   -2.326513   -1.293066
    109          1           0       -5.068663   -1.148954   -0.965742
    110          1           0       -5.096224   -2.081097    1.394762
    111          1           0       -6.596053   -2.950396    0.979558
    112          1           0       -6.773136   -0.136365    0.230308
    113          1           0       -5.990254   -0.137558    1.723888
    114          1           0       -8.279593   -2.040857    1.801054
    115          1           0       -8.294256    0.278268    3.687519
    116          1           0       -6.879082   -0.769713    3.810861
    117          1           0       -8.439159   -1.528244    3.885207
    118          1           0       -8.831991    0.451136    0.525789
    119          1           0       -9.498714    0.623690    2.063654
    120          1           0      -10.451202   -1.801138    0.801304
    121          1           0      -10.698691   -0.423014   -0.198295
    122          1           0      -11.308359   -0.155714    2.627773
    123          1           0      -12.507075   -1.004229    1.629646
    124          1           0      -11.548559    1.454809    0.290554
    125          1           0      -11.306085    2.995441    1.788639
    126          1           0      -11.944192    1.957021    3.062010
    127          1           0      -13.008426    3.015153    1.997927
    128          1           0      -14.359740    1.699090    0.983596
    129          1           0      -14.047099    0.036984    0.562358
    130          1           0      -13.082286    0.504068   -1.553286
    131          1           0      -13.033964    2.152006   -1.339707
    132          1           0      -15.370064    0.366376   -1.874205
    133          1           0      -14.554672    1.530930   -2.913684
    134          1           0      -15.611405    2.738277   -0.424132
    135          1           0      -18.034913    2.613488   -2.095958
    136          1           0      -17.861987    1.880520   -0.630440
    137          1           0      -17.455078    1.019678   -2.207570
    138          1           0      -16.321523    4.549378   -1.748056
    139          1           0      -16.196988    3.594732   -3.220055
    140          1           0      -14.726423    4.002514   -2.200706
 ---------------------------------------------------------------------

 SCF Done:  E(RCAM-B3LYP) =  -3007.19172333     A.U. after   18 cycles

 Excitation energies and oscillator strengths:

 Excited State   1:      Singlet-A      1.8105 eV  684.79 nm  f=0.3497  <S**2>=0.000
     245 -> 248       -0.18242
     246 -> 247        0.68319
     245 <- 248       -0.10150
 This state for optimization and/or second-order correction.
 Total Energy, E(TD-HF/TD-DFT) =  -3007.12518694
 Copying the excited state density for this state as the 1-particle RhoCI density.

 Excited State   2:      Singlet-A      2.3642 eV  524.43 nm  f=0.0345  <S**2>=0.000
     245 -> 247        0.58752
     246 -> 248        0.38102

 Excited State   3:      Singlet-A      3.4258 eV  361.92 nm  f=0.7176  <S**2>=0.000
     239 -> 247       -0.10062
     241 -> 247        0.17804
     242 -> 247        0.12995
     245 -> 247       -0.33648
     246 -> 248        0.53731

 Excited State   4:      Singlet-A      3.5371 eV  350.52 nm  f=0.1557  <S**2>=0.000
     240 -> 247        0.41842
     240 -> 248       -0.13081
     240 -> 249       -0.24655
     240 -> 250        0.15459
     241 -> 247        0.23565
     241 -> 249       -0.16605
     241 -> 250        0.10767
     245 -> 247        0.14935
     246 -> 248       -0.22166

 Excited State   5:      Singlet-A      3.7820 eV  327.83 nm  f=0.0034  <S**2>=0.000
     240 -> 247       -0.11094
     241 -> 247        0.16386
     241 -> 249        0.12977
     241 -> 250        0.12211
     242 -> 247       -0.24366
     242 -> 249       -0.21700
     242 -> 250       -0.21124
     244 -> 247        0.43853
     244 -> 249        0.17106
     244 -> 250        0.13038

 The electronic state is 1-A.
 Alpha  occ. eigenvalues --  -46.88256 -19.25433 -19.24555 -19.21203 -19.18691
 Alpha  occ. eigenvalues --  -19.18316 -19.17579 -14.41988 -14.41975 -14.39672
 Alpha  occ. eigenvalues --  -14.38861 -10.40769 -10.37653 -10.35187 -10.34381
 Alpha  occ. eigenvalues --  -10.32393 -10.31593 -10.30854 -10.30804 -10.30748
 Alpha  occ. eigenvalues --  -10.30304 -10.29976 -10.29752 -10.29133 -10.28550
 Alpha  occ. eigenvalues --  -10.28449 -10.28408 -10.28231 -10.28010 -10.27843
 Alpha  occ. eigenvalues --  -10.27702 -10.27689 -10.27554 -10.27552 -10.27439
 Alpha  occ. eigenvalues --  -10.27089 -10.26951 -10.26899 -10.26853 -10.26659
 Alpha  occ. eigenvalues --  -10.26466 -10.26383 -10.26363 -10.26275 -10.26265
 Alpha  occ. eigenvalues --  -10.26169 -10.25965 -10.25908 -10.25896 -10.25353
 Alpha  occ. eigenvalues --  -10.25343 -10.25280 -10.25209 -10.25042 -10.24922
 Alpha  occ. eigenvalues --  -10.24860 -10.24852 -10.24847 -10.24581 -10.24536
 Alpha  occ. eigenvalues --  -10.24535 -10.24517 -10.24361 -10.24208 -10.24140
 Alpha  occ. eigenvalues --  -10.23339  -3.16890  -1.91800  -1.91331  -1.91210
 Alpha  occ. eigenvalues --   -1.16172  -1.15318  -1.09911  -1.09766  -1.07217
 Alpha  occ. eigenvalues --   -1.05934  -1.05056  -1.04595  -1.03612  -1.03048
 Alpha  occ. eigenvalues --   -0.92879  -0.90794  -0.89957  -0.89652  -0.89103
 Alpha  occ. eigenvalues --   -0.88943  -0.88317  -0.87952  -0.87443  -0.87339
 Alpha  occ. eigenvalues --   -0.86715  -0.85997  -0.84868  -0.84087  -0.83344
 Alpha  occ. eigenvalues --   -0.82887  -0.81795  -0.81207  -0.80930  -0.80573
 Alpha  occ. eigenvalues --   -0.80036  -0.78720  -0.78088  -0.77219  -0.76068
 Alpha  occ. eigenvalues --   -0.75791  -0.75262  -0.75196  -0.75003  -0.74479
 Alpha  occ. eigenvalues --   -0.73383  -0.72479  -0.72009  -0.71108  -0.69984
 Alpha  occ. eigenvalues --   -0.68849  -0.68132  -0.67541  -0.66916  -0.66151
 Alpha  occ. eigenvalues --   -0.65697  -0.64939  -0.64845  -0.64484  -0.64280
 Alpha  occ. eigenvalues --   -0.63490  -0.63384  -0.62163  -0.61560  -0.60386
 Alpha  occ. eigenvalues --   -0.60271  -0.59827  -0.59495  -0.58673  -0.58471
 Alpha  occ. eigenvalues --   -0.57207  -0.56464  -0.56203  -0.55992  -0.55667
 Alpha  occ. eigenvalues --   -0.54961  -0.54802  -0.54666  -0.54223  -0.53982
 Alpha  occ. eigenvalues --   -0.53703  -0.53625  -0.53521  -0.53394  -0.53002
 Alpha  occ. eigenvalues --   -0.52770  -0.52647  -0.52499  -0.52184  -0.51740
 Alpha  occ. eigenvalues --   -0.51627  -0.51427  -0.51254  -0.51024  -0.50779
 Alpha  occ. eigenvalues --   -0.50577  -0.50230  -0.50098  -0.49788  -0.49672
 Alpha  occ. eigenvalues --   -0.49599  -0.49339  -0.49133  -0.48998  -0.48871
 Alpha  occ. eigenvalues --   -0.48625  -0.48453  -0.48312  -0.48143  -0.47995
 Alpha  occ. eigenvalues --   -0.47857  -0.47690  -0.47518  -0.47264  -0.46779
 Alpha  occ. eigenvalues --   -0.46460  -0.46063  -0.45818  -0.45703  -0.45448
 Alpha  occ. eigenvalues --   -0.45375  -0.45284  -0.44966  -0.44919  -0.44709
 Alpha  occ. eigenvalues --   -0.44452  -0.44306  -0.44238  -0.44122  -0.44047
 Alpha  occ. eigenvalues --   -0.43991  -0.43690  -0.43575  -0.43492  -0.43330
 Alpha  occ. eigenvalues --   -0.43172  -0.42738  -0.42550  -0.42092  -0.41929
 Alpha  occ. eigenvalues --   -0.41815  -0.41717  -0.41450  -0.41251  -0.41076
 Alpha  occ. eigenvalues --   -0.40807  -0.40778  -0.40428  -0.40187  -0.39972
 Alpha  occ. eigenvalues --   -0.39711  -0.39497  -0.39419  -0.39346  -0.38813
 Alpha  occ. eigenvalues --   -0.38309  -0.37853  -0.37747  -0.37514  -0.37373
 Alpha  occ. eigenvalues --   -0.36982  -0.36898  -0.36872  -0.36657  -0.36418
 Alpha  occ. eigenvalues --   -0.36152  -0.35581  -0.35530  -0.35184  -0.34854
 Alpha  occ. eigenvalues --   -0.34302  -0.33213  -0.32716  -0.31711  -0.31051
 Alpha  occ. eigenvalues --   -0.30803  -0.30333  -0.29904  -0.29887  -0.24153
 Alpha  occ. eigenvalues --   -0.20588
 Alpha virt. eigenvalues --   -0.07596  -0.02003   0.00565   0.02443   0.03050
 Alpha virt. eigenvalues --    0.03258   0.04909   0.05857   0.06528   0.06918
 Alpha virt. eigenvalues --    0.08020   0.08586   0.08931   0.09190   0.09242

 Mulliken charges:
               1
     1  Mg   0.830628
     2  C    0.010623
     3  C   -0.095460
     4  C   -0.074598
     5  C   -0.067958
     6  N   -0.289582
     7  C   -0.043429
     8  C   -0.066837
     9  C   -0.009859
    10  C    0.031126
    11  C    0.069782
    12  C    0.082650
    13  C    0.090305
    14  C    0.164221
    15  O   -0.244732
    16  O   -0.377448
    17  N   -0.428954
    18  C    0.161053
    19  C   -0.179867
    20  C    0.000170
    21  C    0.156585
    22  C    0.145559
    23  C   -0.038477
    24  O   -0.222876
    25  C    0.075668
    26  N   -0.204937
    27  C    0.022243
    28  C   -0.027488
    29  C   -0.023312
    30  C   -0.002730
    31  C    0.069268
    32  C    0.067204
    33  C   -0.024162
    34  N   -0.314236
    35  C    0.052356
    36  C   -0.247845
    37  C    0.072979
    38  C    0.067954
    39  C    0.147896
    40  C   -0.013044
    41  O   -0.163638
    42  C    0.077689
    43  C    0.162420
    44  O   -0.257503
    45  O   -0.292195
    46  C    0.194177
    47  C    0.268919
    48  C   -0.116955
    49  C   -0.188398
    50  C    0.086174
    51  C    0.075368
    52  C    0.004727
    53  C    0.073413
    54  C   -0.116839
    55  C    0.041645
    56  C    0.048687
    57  C    0.014784
    58  C    0.051575
    59  C   -0.150649
    60  C    0.063237
    61  C    0.099590
    62  C   -0.049916
    63  C    0.079895
    64  C   -0.135274
    65  C    0.047509
    66  C    0.043728
    67  H   -0.046295
    68  H    0.014245
    69  H   -0.006670
    70  H    0.048337
    71  H    0.008850
    72  H    0.029111
    73  H    0.029212
    74  H    0.007865
    75  H    0.011339
    76  H    0.016755
    77  H    0.025660
    78  H    0.029121
    79  H    0.023037
    80  H    0.016582
    81  H    0.045668
    82  H    0.016558
    83  H    0.037846
    84  H    0.026086
    85  H    0.011207
    86  H    0.003197
    87  H    0.020868
    88  H    0.018968
    89  H    0.006795
    90  H    0.017983
    91  H    0.014003
    92  H    0.008018
    93  H    0.022186
    94  H    0.001167
    95  H    0.039945
    96  H   -0.001751
    97  H    0.042751
    98  H    0.039736
    99  H    0.036336
   100  H    0.037361
   101  H    0.022801
   102  H    0.030231
   103  H    0.044664
   104  H    0.001314
   105  H    0.003600
   106  H    0.019767
   107  H    0.039814
   108  H    0.001243
   109  H    0.001120
   110  H   -0.001905
   111  H    0.004352
   112  H   -0.008109
   113  H   -0.009296
   114  H   -0.003222
   115  H    0.015709
   116  H    0.000648
   117  H    0.009578
   118  H   -0.020896
   119  H   -0.019088
   120  H   -0.019285
   121  H   -0.006677
   122  H   -0.010422
   123  H   -0.001401
   124  H    0.003086
   125  H    0.002186
   126  H    0.009849
   127  H    0.005883
   128  H   -0.004082
   129  H   -0.014008
   130  H   -0.013042
   131  H   -0.015155
   132  H   -0.009308
   133  H   -0.009610
   134  H   -0.002997
   135  H   -0.012111
   136  H    0.005754
   137  H    0.013454
   138  H    0.004875
   139  H    0.008820
   140  H   -0.002817
 Sum of Mulliken charges =  -0.00000

 Dipole moment (field-independent basis, Debye):
    X=             -5.2641    Y=              3.7913    Z=              3.4179  Tot=              7.3326
 Quadrupole moment (field-independent basis, Debye-Ang):
   XX=           -405.0506   YY=           -429.3334   ZZ=           -405.4124
   XY=             31.1720   XZ=             14.4975   YZ=              0.1728

 Normal termination of Gaussian 16 at Sat Apr 30 04:45:38 2022.
