 Gaussian 16, Revision A.03,
 Gaussian 16:  ES64L-G16RevA.03 25-Dec-2016

 ---------------------------------
 #p PBE1PBE/Def2SVP td=(nstates=5)
 ---------------------------------

 -----------------------------------------------------
 step_601_chromophore_18 TDDFT with PBE1PBE functional
 -----------------------------------------------------
 Symbolic Z-matrix:
 Charge =  0 Multiplicity = 1

                         Standard orientation:
 ---------------------------------------------------------------------
 Center     Atomic      Atomic             Coordinates (Angstroms)
 Number     Number       Type             X           Y           Z
 ---------------------------------------------------------------------
      1         12           0        5.192778    1.151507    0.035018
      2          6           0        4.644375   -2.286848    0.070298
      3          6           0        1.948112    1.741389   -0.020397
      4          6           0        6.019184    4.449394   -0.323273
      5          6           0        8.702947    0.411290    0.029048
      6          7           0        3.472120   -0.119804   -0.042175
      7          6           0        3.517433   -1.503963    0.134069
      8          6           0        2.060497   -2.023085    0.254795
      9          6           0        1.211215   -0.764722    0.110356
     10          6           0        2.242904    0.335074    0.012076
     11          6           0        0.217676   -0.788746   -1.094361
     12          6           0        1.902272   -2.844475    1.634486
     13          6           0        1.158331   -4.191644    1.556988
     14          6           0        0.213998   -4.410652    0.370098
     15          8           0        0.421747   -5.132567   -0.619318
     16          8           0       -0.974288   -3.629336    0.436586
     17          7           0        4.124881    2.819723   -0.207853
     18          6           0        2.796884    2.861652    0.002101
     19          6           0        2.393275    4.270267    0.105932
     20          6           0        3.531660    5.027840   -0.141065
     21          6           0        4.688999    4.095870   -0.260530
     22          6           0        0.946886    4.688450    0.311817
     23          6           0        3.558925    6.509824   -0.241180
     24          8           0        4.577836    7.095403   -0.608188
     25          6           0        2.379924    7.437769    0.012582
     26          7           0        7.124362    2.290681   -0.082579
     27          6           0        7.138813    3.579359   -0.287422
     28          6           0        8.575112    4.147936   -0.509491
     29          6           0        9.426049    2.884641   -0.156060
     30          6           0        8.398463    1.806915   -0.048831
     31          6           0        8.823365    4.611999   -1.930866
     32          6           0       10.386305    2.929742    1.094406
     33          6           0        9.628787    3.113146    2.428096
     34          7           0        6.441326   -0.540978    0.016881
     35          6           0        7.831054   -0.718534   -0.029670
     36          6           0        8.103781   -2.129184   -0.041878
     37          6           0        6.939715   -2.767073   -0.037633
     38          6           0        5.934036   -1.740950    0.092988
     39          6           0        9.465859   -2.730566    0.005604
     40          6           0        6.269312   -4.059251    0.023073
     41          8           0        6.742740   -5.178811    0.098053
     42          6           0        4.781159   -3.795815    0.195507
     43          6           0        4.260718   -4.544258   -0.886351
     44          8           0        4.201537   -4.063947   -2.024242
     45          8           0        3.792479   -5.767349   -0.598125
     46          6           0        3.182309   -6.449621   -1.740143
     47          6           0       -1.843417   -3.777848   -0.751021
     48          6           0       -3.044275   -2.833221   -0.572192
     49          6           0       -4.353230   -3.128957   -0.802082
     50          6           0       -4.905821   -4.544294   -1.076773
     51          6           0       -5.483370   -2.115752   -0.682221
     52          6           0       -5.978706   -2.081042    0.754523
     53          6           0       -6.659719   -0.751486    1.122871
     54          6           0       -8.017859   -0.985708    1.880700
     55          6           0       -7.895864   -0.702233    3.425076
     56          6           0       -9.201999   -0.150205    1.356561
     57          6           0      -10.507339   -0.713954    0.834800
     58          6           0      -11.720358   -0.250357    1.622748
     59          6           0      -12.238254    1.176140    1.086907
     60          6           0      -12.143568    2.355333    2.066595
     61          6           0      -13.672740    1.053028    0.438277
     62          6           0      -13.643752    1.295332   -1.055536
     63          6           0      -14.919397    1.358562   -1.900890
     64          6           0      -15.904098    2.443311   -1.431643
     65          6           0      -17.359642    1.918287   -1.597623
     66          6           0      -15.781902    3.730077   -2.221175
     67          1           0        0.893643    2.019739    0.024151
     68          1           0        6.187415    5.507596   -0.106365
     69          1           0        9.722114    0.118668   -0.228976
     70          1           0        1.889007   -2.688712   -0.591404
     71          1           0        0.644775   -0.530642    1.011958
     72          1           0        0.185661   -1.762266   -1.582143
     73          1           0        0.314918    0.049557   -1.784415
     74          1           0       -0.732464   -0.681517   -0.568958
     75          1           0        1.399064   -2.261224    2.405808
     76          1           0        2.926941   -3.004589    1.971112
     77          1           0        0.622000   -4.409695    2.480404
     78          1           0        1.826803   -5.052265    1.548929
     79          1           0        0.948825    5.365087    1.166576
     80          1           0        0.344900    3.851828    0.666331
     81          1           0        0.592970    5.138555   -0.615101
     82          1           0        1.840802    7.162224    0.919275
     83          1           0        1.765950    7.442583   -0.887890
     84          1           0        2.677626    8.474537    0.170473
     85          1           0        8.755733    4.971476    0.181740
     86          1           0       10.088849    2.645029   -0.988284
     87          1           0        7.944094    4.883195   -2.513815
     88          1           0        9.444213    3.956478   -2.542776
     89          1           0        9.323030    5.580109   -1.899400
     90          1           0       11.037546    3.788514    0.926644
     91          1           0       10.806993    1.924832    1.141671
     92          1           0        9.841270    2.294445    3.116221
     93          1           0        8.548749    3.247525    2.366072
     94          1           0        9.958413    3.936157    3.061481
     95          1           0        9.469072   -3.527546    0.748394
     96          1           0       10.059832   -1.887538    0.360239
     97          1           0        9.664015   -2.948064   -1.044757
     98          1           0        4.453803   -4.153067    1.171549
     99          1           0        3.854156   -6.805196   -2.521605
    100          1           0        2.384023   -5.925066   -2.265422
    101          1           0        2.632523   -7.249837   -1.244552
    102          1           0       -2.159439   -4.817044   -0.841774
    103          1           0       -1.420580   -3.385864   -1.675237
    104          1           0       -2.765297   -1.893949   -0.095060
    105          1           0       -4.058866   -5.154867   -1.388686
    106          1           0       -5.598370   -4.484760   -1.916603
    107          1           0       -5.356040   -4.935880   -0.164006
    108          1           0       -6.361519   -2.326513   -1.293066
    109          1           0       -5.068663   -1.148954   -0.965742
    110          1           0       -5.096224   -2.081097    1.394762
    111          1           0       -6.596053   -2.950396    0.979558
    112          1           0       -6.773136   -0.136365    0.230308
    113          1           0       -5.990254   -0.137558    1.723888
    114          1           0       -8.279593   -2.040857    1.801054
    115          1           0       -8.294256    0.278268    3.687519
    116          1           0       -6.879082   -0.769713    3.810861
    117          1           0       -8.439159   -1.528244    3.885207
    118          1           0       -8.831991    0.451136    0.525789
    119          1           0       -9.498714    0.623690    2.063654
    120          1           0      -10.451202   -1.801138    0.801304
    121          1           0      -10.698691   -0.423014   -0.198295
    122          1           0      -11.308359   -0.155714    2.627773
    123          1           0      -12.507075   -1.004229    1.629646
    124          1           0      -11.548559    1.454809    0.290554
    125          1           0      -11.306085    2.995441    1.788639
    126          1           0      -11.944192    1.957021    3.062010
    127          1           0      -13.008426    3.015153    1.997927
    128          1           0      -14.359740    1.699090    0.983596
    129          1           0      -14.047099    0.036984    0.562358
    130          1           0      -13.082286    0.504068   -1.553286
    131          1           0      -13.033964    2.152006   -1.339707
    132          1           0      -15.370064    0.366376   -1.874205
    133          1           0      -14.554672    1.530930   -2.913684
    134          1           0      -15.611405    2.738277   -0.424132
    135          1           0      -18.034913    2.613488   -2.095958
    136          1           0      -17.861987    1.880520   -0.630440
    137          1           0      -17.455078    1.019678   -2.207570
    138          1           0      -16.321523    4.549378   -1.748056
    139          1           0      -16.196988    3.594732   -3.220055
    140          1           0      -14.726423    4.002514   -2.200706
 ---------------------------------------------------------------------

 SCF Done:  E(RPBE1PBE) =  -3005.37767936     A.U. after   15 cycles

 Excitation energies and oscillator strengths:

 Excited State   1:      Singlet-A      1.9031 eV  651.48 nm  f=0.3427  <S**2>=0.000
     245 -> 248       -0.18035
     246 -> 247        0.68893
 This state for optimization and/or second-order correction.
 Total Energy, E(TD-HF/TD-DFT) =  -3005.30774112
 Copying the excited state density for this state as the 1-particle RhoCI density.

 Excited State   2:      Singlet-A      2.3447 eV  528.79 nm  f=0.0427  <S**2>=0.000
     245 -> 247        0.60946
     246 -> 248        0.34894

 Excited State   3:      Singlet-A      3.0838 eV  402.05 nm  f=0.0187  <S**2>=0.000
     241 -> 247       -0.11280
     242 -> 247        0.44224
     242 -> 249       -0.12643
     243 -> 247        0.44277
     243 -> 249       -0.11711
     246 -> 248        0.14542

 Excited State   4:      Singlet-A      3.2454 eV  382.03 nm  f=0.0181  <S**2>=0.000
     242 -> 247       -0.43721
     242 -> 249       -0.12420
     243 -> 247        0.47120
     243 -> 249        0.11724
     246 -> 248       -0.14083

 Excited State   5:      Singlet-A      3.2666 eV  379.55 nm  f=0.4776  <S**2>=0.000
     240 -> 247       -0.13231
     242 -> 247       -0.19879
     245 -> 247       -0.28792
     246 -> 248        0.53820
     246 -> 249        0.20484
     246 -> 250       -0.10171

 The electronic state is 1-A.
 Alpha  occ. eigenvalues --  -46.91646 -19.26129 -19.25249 -19.21485 -19.18831
 Alpha  occ. eigenvalues --  -19.18621 -19.17952 -14.41528 -14.41423 -14.39212
 Alpha  occ. eigenvalues --  -14.38651 -10.37865 -10.34733 -10.32045 -10.31800
 Alpha  occ. eigenvalues --  -10.29836 -10.28986 -10.28278 -10.28268 -10.28237
 Alpha  occ. eigenvalues --  -10.28094 -10.28033 -10.27065 -10.26719 -10.26382
 Alpha  occ. eigenvalues --  -10.26098 -10.26091 -10.26059 -10.25700 -10.25549
 Alpha  occ. eigenvalues --  -10.25395 -10.25328 -10.25198 -10.25022 -10.25008
 Alpha  occ. eigenvalues --  -10.24984 -10.24915 -10.24652 -10.24525 -10.24416
 Alpha  occ. eigenvalues --  -10.24107 -10.23982 -10.23945 -10.23674 -10.23673
 Alpha  occ. eigenvalues --  -10.23647 -10.23625 -10.23517 -10.23454 -10.22979
 Alpha  occ. eigenvalues --  -10.22910 -10.22790 -10.22732 -10.22712 -10.22501
 Alpha  occ. eigenvalues --  -10.22404 -10.22339 -10.22255 -10.22056 -10.22050
 Alpha  occ. eigenvalues --  -10.22038 -10.21960 -10.21922 -10.21593 -10.21490
 Alpha  occ. eigenvalues --  -10.21452  -3.13858  -1.86710  -1.86218  -1.86103
 Alpha  occ. eigenvalues --   -1.11034  -1.10105  -1.04770  -1.04354  -1.02091
 Alpha  occ. eigenvalues --   -1.00828  -0.99713  -0.99229  -0.98457  -0.97565
 Alpha  occ. eigenvalues --   -0.87421  -0.84915  -0.84055  -0.83855  -0.83399
 Alpha  occ. eigenvalues --   -0.83044  -0.82585  -0.82167  -0.81732  -0.81503
 Alpha  occ. eigenvalues --   -0.81075  -0.80247  -0.79051  -0.78481  -0.77661
 Alpha  occ. eigenvalues --   -0.77069  -0.75932  -0.75374  -0.75221  -0.74769
 Alpha  occ. eigenvalues --   -0.74256  -0.72849  -0.72391  -0.71600  -0.70499
 Alpha  occ. eigenvalues --   -0.69955  -0.69381  -0.69361  -0.69262  -0.68642
 Alpha  occ. eigenvalues --   -0.67695  -0.66988  -0.66458  -0.65427  -0.64348
 Alpha  occ. eigenvalues --   -0.63141  -0.62355  -0.62063  -0.61109  -0.60589
 Alpha  occ. eigenvalues --   -0.59885  -0.59543  -0.59406  -0.58843  -0.58629
 Alpha  occ. eigenvalues --   -0.58017  -0.57538  -0.56329  -0.56236  -0.54776
 Alpha  occ. eigenvalues --   -0.54669  -0.54479  -0.53974  -0.53214  -0.53108
 Alpha  occ. eigenvalues --   -0.51870  -0.50998  -0.50650  -0.50566  -0.50153
 Alpha  occ. eigenvalues --   -0.49496  -0.49321  -0.49235  -0.48803  -0.48427
 Alpha  occ. eigenvalues --   -0.48250  -0.48000  -0.47834  -0.47768  -0.47651
 Alpha  occ. eigenvalues --   -0.47375  -0.47122  -0.47078  -0.46688  -0.46357
 Alpha  occ. eigenvalues --   -0.46143  -0.46111  -0.45786  -0.45562  -0.45154
 Alpha  occ. eigenvalues --   -0.45102  -0.44972  -0.44691  -0.44308  -0.44209
 Alpha  occ. eigenvalues --   -0.44166  -0.43879  -0.43698  -0.43609  -0.43413
 Alpha  occ. eigenvalues --   -0.43192  -0.43083  -0.42854  -0.42806  -0.42618
 Alpha  occ. eigenvalues --   -0.42435  -0.42299  -0.42161  -0.41901  -0.41443
 Alpha  occ. eigenvalues --   -0.41252  -0.40744  -0.40651  -0.40457  -0.40173
 Alpha  occ. eigenvalues --   -0.40123  -0.40020  -0.39757  -0.39512  -0.39485
 Alpha  occ. eigenvalues --   -0.39222  -0.39093  -0.38980  -0.38905  -0.38786
 Alpha  occ. eigenvalues --   -0.38714  -0.38461  -0.38362  -0.38356  -0.37937
 Alpha  occ. eigenvalues --   -0.37883  -0.37575  -0.37252  -0.36819  -0.36792
 Alpha  occ. eigenvalues --   -0.36671  -0.36619  -0.36360  -0.36036  -0.35873
 Alpha  occ. eigenvalues --   -0.35705  -0.35530  -0.35435  -0.35068  -0.34696
 Alpha  occ. eigenvalues --   -0.34602  -0.34351  -0.34250  -0.34197  -0.33837
 Alpha  occ. eigenvalues --   -0.33100  -0.32718  -0.32483  -0.32457  -0.32365
 Alpha  occ. eigenvalues --   -0.32026  -0.31802  -0.31684  -0.31509  -0.31485
 Alpha  occ. eigenvalues --   -0.30968  -0.30585  -0.30401  -0.30146  -0.29663
 Alpha  occ. eigenvalues --   -0.29536  -0.28835  -0.27489  -0.27150  -0.26497
 Alpha  occ. eigenvalues --   -0.25877  -0.25375  -0.25328  -0.25197  -0.20967
 Alpha  occ. eigenvalues --   -0.18249
 Alpha virt. eigenvalues --   -0.10290  -0.05493  -0.03650  -0.01983  -0.01468
 Alpha virt. eigenvalues --    0.00328   0.00418   0.01738   0.02061   0.03226
 Alpha virt. eigenvalues --    0.03955   0.04724   0.05493   0.05700   0.05938

 Mulliken charges:
               1
     1  Mg   0.981661
     2  C    0.014125
     3  C   -0.081856
     4  C   -0.052841
     5  C   -0.063246
     6  N   -0.398470
     7  C    0.028683
     8  C   -0.140215
     9  C   -0.083227
    10  C    0.070776
    11  C    0.009498
    12  C    0.030642
    13  C    0.022606
    14  C    0.217454
    15  O   -0.275310
    16  O   -0.402603
    17  N   -0.548354
    18  C    0.180497
    19  C   -0.205108
    20  C   -0.059735
    21  C    0.182794
    22  C    0.083776
    23  C    0.012212
    24  O   -0.258648
    25  C    0.003016
    26  N   -0.310338
    27  C    0.050335
    28  C   -0.104907
    29  C   -0.096613
    30  C    0.038564
    31  C    0.017406
    32  C   -0.001723
    33  C   -0.093492
    34  N   -0.442988
    35  C    0.085980
    36  C   -0.277585
    37  C    0.041909
    38  C    0.117042
    39  C    0.092527
    40  C    0.082607
    41  O   -0.207207
    42  C   -0.055606
    43  C    0.267457
    44  O   -0.289813
    45  O   -0.328917
    46  C    0.137256
    47  C    0.225525
    48  C   -0.129690
    49  C   -0.229306
    50  C    0.021575
    51  C    0.007528
    52  C   -0.058361
    53  C    0.025269
    54  C   -0.206963
    55  C   -0.017353
    56  C   -0.000287
    57  C   -0.050453
    58  C   -0.008846
    59  C   -0.228837
    60  C    0.002814
    61  C    0.045932
    62  C   -0.116163
    63  C    0.025413
    64  C   -0.230969
    65  C   -0.011943
    66  C   -0.018828
    67  H   -0.011762
    68  H    0.043482
    69  H    0.022558
    70  H    0.088358
    71  H    0.044765
    72  H    0.056232
    73  H    0.056470
    74  H    0.037249
    75  H    0.043094
    76  H    0.051135
    77  H    0.057300
    78  H    0.060771
    79  H    0.050438
    80  H    0.041551
    81  H    0.072231
    82  H    0.042284
    83  H    0.064188
    84  H    0.052539
    85  H    0.047068
    86  H    0.042051
    87  H    0.049173
    88  H    0.044329
    89  H    0.034620
    90  H    0.051570
    91  H    0.047642
    92  H    0.035913
    93  H    0.052421
    94  H    0.030125
    95  H    0.068415
    96  H    0.027821
    97  H    0.072454
    98  H    0.076112
    99  H    0.059065
   100  H    0.060231
   101  H    0.044870
   102  H    0.056546
   103  H    0.072270
   104  H    0.030992
   105  H    0.032170
   106  H    0.047666
   107  H    0.067078
   108  H    0.034063
   109  H    0.034112
   110  H    0.033166
   111  H    0.035283
   112  H    0.023073
   113  H    0.022949
   114  H    0.034521
   115  H    0.041855
   116  H    0.028479
   117  H    0.037654
   118  H    0.012092
   119  H    0.014859
   120  H    0.014127
   121  H    0.027627
   122  H    0.024361
   123  H    0.029914
   124  H    0.040593
   125  H    0.029555
   126  H    0.036572
   127  H    0.032720
   128  H    0.026612
   129  H    0.019123
   130  H    0.021847
   131  H    0.018063
   132  H    0.023338
   133  H    0.023054
   134  H    0.035730
   135  H    0.015360
   136  H    0.033611
   137  H    0.039432
   138  H    0.033800
   139  H    0.036528
   140  H    0.026368
 Sum of Mulliken charges =  -0.00000

 Dipole moment (field-independent basis, Debye):
    X=             -4.7711    Y=              3.1978    Z=              3.4287  Tot=              6.6892
 Quadrupole moment (field-independent basis, Debye-Ang):
   XX=           -395.0196   YY=           -428.0262   ZZ=           -403.0009
   XY=             29.4819   XZ=             14.7522   YZ=              0.2749

 Normal termination of Gaussian 16 at Sat Apr 30 05:05:07 2022.
