 Gaussian 16, Revision A.03,
 Gaussian 16:  ES64L-G16RevA.03 25-Dec-2016

 --------------------------------
 #p wB97XD/Def2SVP td=(nstates=5)
 --------------------------------

 ----------------------------------------------------
 step_601_chromophore_18 TDDFT with wB97XD functional
 ----------------------------------------------------
 Symbolic Z-matrix:
 Charge =  0 Multiplicity = 1

                         Standard orientation:
 ---------------------------------------------------------------------
 Center     Atomic      Atomic             Coordinates (Angstroms)
 Number     Number       Type             X           Y           Z
 ---------------------------------------------------------------------
      1         12           0        5.192778    1.151507    0.035018
      2          6           0        4.644375   -2.286848    0.070298
      3          6           0        1.948112    1.741389   -0.020397
      4          6           0        6.019184    4.449394   -0.323273
      5          6           0        8.702947    0.411290    0.029048
      6          7           0        3.472120   -0.119804   -0.042175
      7          6           0        3.517433   -1.503963    0.134069
      8          6           0        2.060497   -2.023085    0.254795
      9          6           0        1.211215   -0.764722    0.110356
     10          6           0        2.242904    0.335074    0.012076
     11          6           0        0.217676   -0.788746   -1.094361
     12          6           0        1.902272   -2.844475    1.634486
     13          6           0        1.158331   -4.191644    1.556988
     14          6           0        0.213998   -4.410652    0.370098
     15          8           0        0.421747   -5.132567   -0.619318
     16          8           0       -0.974288   -3.629336    0.436586
     17          7           0        4.124881    2.819723   -0.207853
     18          6           0        2.796884    2.861652    0.002101
     19          6           0        2.393275    4.270267    0.105932
     20          6           0        3.531660    5.027840   -0.141065
     21          6           0        4.688999    4.095870   -0.260530
     22          6           0        0.946886    4.688450    0.311817
     23          6           0        3.558925    6.509824   -0.241180
     24          8           0        4.577836    7.095403   -0.608188
     25          6           0        2.379924    7.437769    0.012582
     26          7           0        7.124362    2.290681   -0.082579
     27          6           0        7.138813    3.579359   -0.287422
     28          6           0        8.575112    4.147936   -0.509491
     29          6           0        9.426049    2.884641   -0.156060
     30          6           0        8.398463    1.806915   -0.048831
     31          6           0        8.823365    4.611999   -1.930866
     32          6           0       10.386305    2.929742    1.094406
     33          6           0        9.628787    3.113146    2.428096
     34          7           0        6.441326   -0.540978    0.016881
     35          6           0        7.831054   -0.718534   -0.029670
     36          6           0        8.103781   -2.129184   -0.041878
     37          6           0        6.939715   -2.767073   -0.037633
     38          6           0        5.934036   -1.740950    0.092988
     39          6           0        9.465859   -2.730566    0.005604
     40          6           0        6.269312   -4.059251    0.023073
     41          8           0        6.742740   -5.178811    0.098053
     42          6           0        4.781159   -3.795815    0.195507
     43          6           0        4.260718   -4.544258   -0.886351
     44          8           0        4.201537   -4.063947   -2.024242
     45          8           0        3.792479   -5.767349   -0.598125
     46          6           0        3.182309   -6.449621   -1.740143
     47          6           0       -1.843417   -3.777848   -0.751021
     48          6           0       -3.044275   -2.833221   -0.572192
     49          6           0       -4.353230   -3.128957   -0.802082
     50          6           0       -4.905821   -4.544294   -1.076773
     51          6           0       -5.483370   -2.115752   -0.682221
     52          6           0       -5.978706   -2.081042    0.754523
     53          6           0       -6.659719   -0.751486    1.122871
     54          6           0       -8.017859   -0.985708    1.880700
     55          6           0       -7.895864   -0.702233    3.425076
     56          6           0       -9.201999   -0.150205    1.356561
     57          6           0      -10.507339   -0.713954    0.834800
     58          6           0      -11.720358   -0.250357    1.622748
     59          6           0      -12.238254    1.176140    1.086907
     60          6           0      -12.143568    2.355333    2.066595
     61          6           0      -13.672740    1.053028    0.438277
     62          6           0      -13.643752    1.295332   -1.055536
     63          6           0      -14.919397    1.358562   -1.900890
     64          6           0      -15.904098    2.443311   -1.431643
     65          6           0      -17.359642    1.918287   -1.597623
     66          6           0      -15.781902    3.730077   -2.221175
     67          1           0        0.893643    2.019739    0.024151
     68          1           0        6.187415    5.507596   -0.106365
     69          1           0        9.722114    0.118668   -0.228976
     70          1           0        1.889007   -2.688712   -0.591404
     71          1           0        0.644775   -0.530642    1.011958
     72          1           0        0.185661   -1.762266   -1.582143
     73          1           0        0.314918    0.049557   -1.784415
     74          1           0       -0.732464   -0.681517   -0.568958
     75          1           0        1.399064   -2.261224    2.405808
     76          1           0        2.926941   -3.004589    1.971112
     77          1           0        0.622000   -4.409695    2.480404
     78          1           0        1.826803   -5.052265    1.548929
     79          1           0        0.948825    5.365087    1.166576
     80          1           0        0.344900    3.851828    0.666331
     81          1           0        0.592970    5.138555   -0.615101
     82          1           0        1.840802    7.162224    0.919275
     83          1           0        1.765950    7.442583   -0.887890
     84          1           0        2.677626    8.474537    0.170473
     85          1           0        8.755733    4.971476    0.181740
     86          1           0       10.088849    2.645029   -0.988284
     87          1           0        7.944094    4.883195   -2.513815
     88          1           0        9.444213    3.956478   -2.542776
     89          1           0        9.323030    5.580109   -1.899400
     90          1           0       11.037546    3.788514    0.926644
     91          1           0       10.806993    1.924832    1.141671
     92          1           0        9.841270    2.294445    3.116221
     93          1           0        8.548749    3.247525    2.366072
     94          1           0        9.958413    3.936157    3.061481
     95          1           0        9.469072   -3.527546    0.748394
     96          1           0       10.059832   -1.887538    0.360239
     97          1           0        9.664015   -2.948064   -1.044757
     98          1           0        4.453803   -4.153067    1.171549
     99          1           0        3.854156   -6.805196   -2.521605
    100          1           0        2.384023   -5.925066   -2.265422
    101          1           0        2.632523   -7.249837   -1.244552
    102          1           0       -2.159439   -4.817044   -0.841774
    103          1           0       -1.420580   -3.385864   -1.675237
    104          1           0       -2.765297   -1.893949   -0.095060
    105          1           0       -4.058866   -5.154867   -1.388686
    106          1           0       -5.598370   -4.484760   -1.916603
    107          1           0       -5.356040   -4.935880   -0.164006
    108          1           0       -6.361519   -2.326513   -1.293066
    109          1           0       -5.068663   -1.148954   -0.965742
    110          1           0       -5.096224   -2.081097    1.394762
    111          1           0       -6.596053   -2.950396    0.979558
    112          1           0       -6.773136   -0.136365    0.230308
    113          1           0       -5.990254   -0.137558    1.723888
    114          1           0       -8.279593   -2.040857    1.801054
    115          1           0       -8.294256    0.278268    3.687519
    116          1           0       -6.879082   -0.769713    3.810861
    117          1           0       -8.439159   -1.528244    3.885207
    118          1           0       -8.831991    0.451136    0.525789
    119          1           0       -9.498714    0.623690    2.063654
    120          1           0      -10.451202   -1.801138    0.801304
    121          1           0      -10.698691   -0.423014   -0.198295
    122          1           0      -11.308359   -0.155714    2.627773
    123          1           0      -12.507075   -1.004229    1.629646
    124          1           0      -11.548559    1.454809    0.290554
    125          1           0      -11.306085    2.995441    1.788639
    126          1           0      -11.944192    1.957021    3.062010
    127          1           0      -13.008426    3.015153    1.997927
    128          1           0      -14.359740    1.699090    0.983596
    129          1           0      -14.047099    0.036984    0.562358
    130          1           0      -13.082286    0.504068   -1.553286
    131          1           0      -13.033964    2.152006   -1.339707
    132          1           0      -15.370064    0.366376   -1.874205
    133          1           0      -14.554672    1.530930   -2.913684
    134          1           0      -15.611405    2.738277   -0.424132
    135          1           0      -18.034913    2.613488   -2.095958
    136          1           0      -17.861987    1.880520   -0.630440
    137          1           0      -17.455078    1.019678   -2.207570
    138          1           0      -16.321523    4.549378   -1.748056
    139          1           0      -16.196988    3.594732   -3.220055
    140          1           0      -14.726423    4.002514   -2.200706
 ---------------------------------------------------------------------

 SCF Done:  E(RwB97XD) =  -3007.89031237     A.U. after   19 cycles

 Excitation energies and oscillator strengths:

 Excited State   1:      Singlet-A      1.7830 eV  695.37 nm  f=0.3482  <S**2>=0.000
     245 -> 248       -0.18525
     246 -> 247        0.68073
     245 <- 248       -0.10832
 This state for optimization and/or second-order correction.
 Total Energy, E(TD-HF/TD-DFT) =  -3007.82478867
 Copying the excited state density for this state as the 1-particle RhoCI density.

 Excited State   2:      Singlet-A      2.3200 eV  534.40 nm  f=0.0361  <S**2>=0.000
     245 -> 247        0.58792
     246 -> 248        0.37716

 Excited State   3:      Singlet-A      3.4315 eV  361.31 nm  f=0.6618  <S**2>=0.000
     241 -> 247        0.24080
     241 -> 249        0.12455
     242 -> 247        0.13599
     245 -> 247       -0.31583
     246 -> 248        0.51474

 Excited State   4:      Singlet-A      3.5319 eV  351.04 nm  f=0.2124  <S**2>=0.000
     240 -> 247        0.33798
     240 -> 249        0.19320
     240 -> 250        0.11280
     241 -> 247        0.31918
     241 -> 248       -0.12565
     241 -> 249        0.23667
     241 -> 250        0.14648
     245 -> 247        0.17103
     246 -> 248       -0.26205

 Excited State   5:      Singlet-A      3.8251 eV  324.13 nm  f=0.0044  <S**2>=0.000
     240 -> 247        0.14102
     242 -> 247        0.12119
     242 -> 249       -0.19569
     242 -> 250        0.20676
     243 -> 247       -0.13080
     244 -> 247        0.46072
     244 -> 249       -0.22812
     244 -> 250        0.18602

 The electronic state is 1-A.
 Alpha  occ. eigenvalues --  -46.94599 -19.30662 -19.29708 -19.26105 -19.23788
 Alpha  occ. eigenvalues --  -19.23293 -19.22486 -14.46572 -14.46559 -14.44324
 Alpha  occ. eigenvalues --  -14.43408 -10.44600 -10.41430 -10.39217 -10.38331
 Alpha  occ. eigenvalues --  -10.36326 -10.35682 -10.35011 -10.34954 -10.34811
 Alpha  occ. eigenvalues --  -10.34307 -10.33932 -10.33485 -10.33375 -10.32449
 Alpha  occ. eigenvalues --  -10.32392 -10.32372 -10.32299 -10.32062 -10.31867
 Alpha  occ. eigenvalues --  -10.31857 -10.31735 -10.31598 -10.31457 -10.31427
 Alpha  occ. eigenvalues --  -10.31160 -10.30976 -10.30946 -10.30936 -10.30584
 Alpha  occ. eigenvalues --  -10.30394 -10.30387 -10.30340 -10.30275 -10.30179
 Alpha  occ. eigenvalues --  -10.30128 -10.29936 -10.29901 -10.29847 -10.29290
 Alpha  occ. eigenvalues --  -10.29285 -10.29162 -10.29146 -10.28858 -10.28846
 Alpha  occ. eigenvalues --  -10.28788 -10.28692 -10.28667 -10.28445 -10.28436
 Alpha  occ. eigenvalues --  -10.28428 -10.28403 -10.28300 -10.28025 -10.27954
 Alpha  occ. eigenvalues --  -10.27274  -3.20653  -1.94259  -1.93767  -1.93644
 Alpha  occ. eigenvalues --   -1.18299  -1.17457  -1.12187  -1.11931  -1.09406
 Alpha  occ. eigenvalues --   -1.08066  -1.07058  -1.06603  -1.05642  -1.05121
 Alpha  occ. eigenvalues --   -0.94813  -0.92599  -0.91727  -0.91489  -0.91019
 Alpha  occ. eigenvalues --   -0.90721  -0.90240  -0.89947  -0.89334  -0.89161
 Alpha  occ. eigenvalues --   -0.88616  -0.87893  -0.86710  -0.86019  -0.85198
 Alpha  occ. eigenvalues --   -0.84728  -0.83752  -0.83072  -0.82815  -0.82550
 Alpha  occ. eigenvalues --   -0.81913  -0.80729  -0.79972  -0.79111  -0.77965
 Alpha  occ. eigenvalues --   -0.77646  -0.77078  -0.76978  -0.76949  -0.76319
 Alpha  occ. eigenvalues --   -0.75312  -0.74442  -0.73990  -0.73048  -0.71872
 Alpha  occ. eigenvalues --   -0.70879  -0.70008  -0.69557  -0.68768  -0.68107
 Alpha  occ. eigenvalues --   -0.67552  -0.66948  -0.66796  -0.66312  -0.66232
 Alpha  occ. eigenvalues --   -0.65465  -0.65210  -0.63986  -0.63517  -0.62420
 Alpha  occ. eigenvalues --   -0.62191  -0.61794  -0.61419  -0.60629  -0.60449
 Alpha  occ. eigenvalues --   -0.59220  -0.58404  -0.58122  -0.57926  -0.57601
 Alpha  occ. eigenvalues --   -0.56901  -0.56713  -0.56622  -0.56161  -0.55860
 Alpha  occ. eigenvalues --   -0.55681  -0.55519  -0.55420  -0.55264  -0.54960
 Alpha  occ. eigenvalues --   -0.54684  -0.54503  -0.54404  -0.54113  -0.53631
 Alpha  occ. eigenvalues --   -0.53502  -0.53315  -0.53174  -0.52935  -0.52773
 Alpha  occ. eigenvalues --   -0.52479  -0.52127  -0.52005  -0.51674  -0.51613
 Alpha  occ. eigenvalues --   -0.51497  -0.51213  -0.51111  -0.50930  -0.50806
 Alpha  occ. eigenvalues --   -0.50583  -0.50343  -0.50224  -0.50064  -0.49893
 Alpha  occ. eigenvalues --   -0.49782  -0.49569  -0.49477  -0.49176  -0.48721
 Alpha  occ. eigenvalues --   -0.48375  -0.47946  -0.47719  -0.47598  -0.47294
 Alpha  occ. eigenvalues --   -0.47277  -0.47149  -0.46893  -0.46771  -0.46631
 Alpha  occ. eigenvalues --   -0.46372  -0.46187  -0.46131  -0.46047  -0.45923
 Alpha  occ. eigenvalues --   -0.45909  -0.45590  -0.45495  -0.45400  -0.45294
 Alpha  occ. eigenvalues --   -0.45052  -0.44678  -0.44576  -0.44077  -0.43817
 Alpha  occ. eigenvalues --   -0.43697  -0.43623  -0.43350  -0.43130  -0.42962
 Alpha  occ. eigenvalues --   -0.42683  -0.42644  -0.42355  -0.42090  -0.41801
 Alpha  occ. eigenvalues --   -0.41587  -0.41375  -0.41272  -0.41212  -0.40716
 Alpha  occ. eigenvalues --   -0.40162  -0.39721  -0.39588  -0.39503  -0.39319
 Alpha  occ. eigenvalues --   -0.38922  -0.38779  -0.38722  -0.38513  -0.38492
 Alpha  occ. eigenvalues --   -0.37980  -0.37545  -0.37395  -0.37030  -0.36733
 Alpha  occ. eigenvalues --   -0.36286  -0.35478  -0.34559  -0.33953  -0.33148
 Alpha  occ. eigenvalues --   -0.32847  -0.32382  -0.31941  -0.31928  -0.26118
 Alpha  occ. eigenvalues --   -0.22428
 Alpha virt. eigenvalues --   -0.05911  -0.00088   0.02610   0.04559   0.05447
 Alpha virt. eigenvalues --    0.06161   0.07093   0.08404   0.08905   0.09554
 Alpha virt. eigenvalues --    0.10512   0.11601   0.12216   0.12402   0.12722

 Mulliken charges:
               1
     1  Mg   0.971837
     2  C    0.005484
     3  C   -0.107725
     4  C   -0.076251
     5  C   -0.074526
     6  N   -0.364638
     7  C    0.001435
     8  C   -0.112333
     9  C   -0.061602
    10  C    0.062411
    11  C    0.026118
    12  C    0.042694
    13  C    0.035827
    14  C    0.207796
    15  O   -0.271643
    16  O   -0.401626
    17  N   -0.517803
    18  C    0.180628
    19  C   -0.195347
    20  C   -0.046539
    21  C    0.179869
    22  C    0.097506
    23  C    0.006607
    24  O   -0.251810
    25  C    0.014396
    26  N   -0.272705
    27  C    0.039200
    28  C   -0.083694
    29  C   -0.066524
    30  C    0.018107
    31  C    0.023955
    32  C    0.016276
    33  C   -0.077339
    34  N   -0.403087
    35  C    0.067656
    36  C   -0.268156
    37  C    0.036238
    38  C    0.096723
    39  C    0.104531
    40  C    0.064264
    41  O   -0.200752
    42  C   -0.005813
    43  C    0.237249
    44  O   -0.284830
    45  O   -0.324727
    46  C    0.149633
    47  C    0.239169
    48  C   -0.136367
    49  C   -0.214321
    50  C    0.036225
    51  C    0.024577
    52  C   -0.039560
    53  C    0.036255
    54  C   -0.176470
    55  C   -0.004642
    56  C    0.017494
    57  C   -0.031077
    58  C    0.011887
    59  C   -0.202440
    60  C    0.015926
    61  C    0.059871
    62  C   -0.093268
    63  C    0.036868
    64  C   -0.200023
    65  C   -0.001348
    66  C   -0.005213
    67  H   -0.020607
    68  H    0.040561
    69  H    0.016063
    70  H    0.070856
    71  H    0.035705
    72  H    0.047003
    73  H    0.052162
    74  H    0.027656
    75  H    0.037091
    76  H    0.040279
    77  H    0.053082
    78  H    0.055020
    79  H    0.045304
    80  H    0.039571
    81  H    0.069225
    82  H    0.036968
    83  H    0.060790
    84  H    0.052745
    85  H    0.038642
    86  H    0.030189
    87  H    0.042710
    88  H    0.040127
    89  H    0.029329
    90  H    0.043590
    91  H    0.038640
    92  H    0.030596
    93  H    0.040879
    94  H    0.024085
    95  H    0.063642
    96  H    0.018839
    97  H    0.066535
    98  H    0.068138
    99  H    0.056015
   100  H    0.055709
   101  H    0.042351
   102  H    0.050670
   103  H    0.065922
   104  H    0.025462
   105  H    0.025152
   106  H    0.041972
   107  H    0.061812
   108  H    0.027080
   109  H    0.026152
   110  H    0.022394
   111  H    0.026317
   112  H    0.013026
   113  H    0.015540
   114  H    0.020217
   115  H    0.035917
   116  H    0.022438
   117  H    0.031833
   118  H    0.002934
   119  H   -0.001949
   120  H    0.006724
   121  H    0.016093
   122  H    0.010287
   123  H    0.023206
   124  H    0.023559
   125  H    0.024054
   126  H    0.030271
   127  H    0.027081
   128  H    0.016185
   129  H    0.009790
   130  H    0.012126
   131  H    0.006671
   132  H    0.014516
   133  H    0.015850
   134  H    0.022601
   135  H    0.009101
   136  H    0.028364
   137  H    0.034024
   138  H    0.028102
   139  H    0.029655
   140  H    0.018847
 Sum of Mulliken charges =  -0.00000

 Dipole moment (field-independent basis, Debye):
    X=             -5.4252    Y=              4.0288    Z=              3.4665  Tot=              7.5948
 Quadrupole moment (field-independent basis, Debye-Ang):
   XX=           -401.2700   YY=           -424.5176   ZZ=           -402.6532
   XY=             32.1108   XZ=             14.8821   YZ=              0.1804

 Normal termination of Gaussian 16 at Sat Apr 30 05:36:38 2022.
