 Gaussian 16, Revision A.03,
 Gaussian 16:  ES64L-G16RevA.03 25-Dec-2016

 --------------------
 #p ZINDO=(nstates=5)
 --------------------

 -----------------------------
 step_601_chromophore_18 ZINDO
 -----------------------------
 Symbolic Z-matrix:
 Charge =  0 Multiplicity = 1

                         Standard orientation:
 ---------------------------------------------------------------------
 Center     Atomic      Atomic             Coordinates (Angstroms)
 Number     Number       Type             X           Y           Z
 ---------------------------------------------------------------------
      1         12           0        5.192778    1.151507    0.035018
      2          6           0        4.644375   -2.286848    0.070298
      3          6           0        1.948112    1.741389   -0.020397
      4          6           0        6.019184    4.449394   -0.323273
      5          6           0        8.702947    0.411290    0.029048
      6          7           0        3.472120   -0.119804   -0.042175
      7          6           0        3.517433   -1.503963    0.134069
      8          6           0        2.060497   -2.023085    0.254795
      9          6           0        1.211215   -0.764722    0.110356
     10          6           0        2.242904    0.335074    0.012076
     11          6           0        0.217676   -0.788746   -1.094361
     12          6           0        1.902272   -2.844475    1.634486
     13          6           0        1.158331   -4.191644    1.556988
     14          6           0        0.213998   -4.410652    0.370098
     15          8           0        0.421747   -5.132567   -0.619318
     16          8           0       -0.974288   -3.629336    0.436586
     17          7           0        4.124881    2.819723   -0.207853
     18          6           0        2.796884    2.861652    0.002101
     19          6           0        2.393275    4.270267    0.105932
     20          6           0        3.531660    5.027840   -0.141065
     21          6           0        4.688999    4.095870   -0.260530
     22          6           0        0.946886    4.688450    0.311817
     23          6           0        3.558925    6.509824   -0.241180
     24          8           0        4.577836    7.095403   -0.608188
     25          6           0        2.379924    7.437769    0.012582
     26          7           0        7.124362    2.290681   -0.082579
     27          6           0        7.138813    3.579359   -0.287422
     28          6           0        8.575112    4.147936   -0.509491
     29          6           0        9.426049    2.884641   -0.156060
     30          6           0        8.398463    1.806915   -0.048831
     31          6           0        8.823365    4.611999   -1.930866
     32          6           0       10.386305    2.929742    1.094406
     33          6           0        9.628787    3.113146    2.428096
     34          7           0        6.441326   -0.540978    0.016881
     35          6           0        7.831054   -0.718534   -0.029670
     36          6           0        8.103781   -2.129184   -0.041878
     37          6           0        6.939715   -2.767073   -0.037633
     38          6           0        5.934036   -1.740950    0.092988
     39          6           0        9.465859   -2.730566    0.005604
     40          6           0        6.269312   -4.059251    0.023073
     41          8           0        6.742740   -5.178811    0.098053
     42          6           0        4.781159   -3.795815    0.195507
     43          6           0        4.260718   -4.544258   -0.886351
     44          8           0        4.201537   -4.063947   -2.024242
     45          8           0        3.792479   -5.767349   -0.598125
     46          6           0        3.182309   -6.449621   -1.740143
     47          6           0       -1.843417   -3.777848   -0.751021
     48          6           0       -3.044275   -2.833221   -0.572192
     49          6           0       -4.353230   -3.128957   -0.802082
     50          6           0       -4.905821   -4.544294   -1.076773
     51          6           0       -5.483370   -2.115752   -0.682221
     52          6           0       -5.978706   -2.081042    0.754523
     53          6           0       -6.659719   -0.751486    1.122871
     54          6           0       -8.017859   -0.985708    1.880700
     55          6           0       -7.895864   -0.702233    3.425076
     56          6           0       -9.201999   -0.150205    1.356561
     57          6           0      -10.507339   -0.713954    0.834800
     58          6           0      -11.720358   -0.250357    1.622748
     59          6           0      -12.238254    1.176140    1.086907
     60          6           0      -12.143568    2.355333    2.066595
     61          6           0      -13.672740    1.053028    0.438277
     62          6           0      -13.643752    1.295332   -1.055536
     63          6           0      -14.919397    1.358562   -1.900890
     64          6           0      -15.904098    2.443311   -1.431643
     65          6           0      -17.359642    1.918287   -1.597623
     66          6           0      -15.781902    3.730077   -2.221175
     67          1           0        0.893643    2.019739    0.024151
     68          1           0        6.187415    5.507596   -0.106365
     69          1           0        9.722114    0.118668   -0.228976
     70          1           0        1.889007   -2.688712   -0.591404
     71          1           0        0.644775   -0.530642    1.011958
     72          1           0        0.185661   -1.762266   -1.582143
     73          1           0        0.314918    0.049557   -1.784415
     74          1           0       -0.732464   -0.681517   -0.568958
     75          1           0        1.399064   -2.261224    2.405808
     76          1           0        2.926941   -3.004589    1.971112
     77          1           0        0.622000   -4.409695    2.480404
     78          1           0        1.826803   -5.052265    1.548929
     79          1           0        0.948825    5.365087    1.166576
     80          1           0        0.344900    3.851828    0.666331
     81          1           0        0.592970    5.138555   -0.615101
     82          1           0        1.840802    7.162224    0.919275
     83          1           0        1.765950    7.442583   -0.887890
     84          1           0        2.677626    8.474537    0.170473
     85          1           0        8.755733    4.971476    0.181740
     86          1           0       10.088849    2.645029   -0.988284
     87          1           0        7.944094    4.883195   -2.513815
     88          1           0        9.444213    3.956478   -2.542776
     89          1           0        9.323030    5.580109   -1.899400
     90          1           0       11.037546    3.788514    0.926644
     91          1           0       10.806993    1.924832    1.141671
     92          1           0        9.841270    2.294445    3.116221
     93          1           0        8.548749    3.247525    2.366072
     94          1           0        9.958413    3.936157    3.061481
     95          1           0        9.469072   -3.527546    0.748394
     96          1           0       10.059832   -1.887538    0.360239
     97          1           0        9.664015   -2.948064   -1.044757
     98          1           0        4.453803   -4.153067    1.171549
     99          1           0        3.854156   -6.805196   -2.521605
    100          1           0        2.384023   -5.925066   -2.265422
    101          1           0        2.632523   -7.249837   -1.244552
    102          1           0       -2.159439   -4.817044   -0.841774
    103          1           0       -1.420580   -3.385864   -1.675237
    104          1           0       -2.765297   -1.893949   -0.095060
    105          1           0       -4.058866   -5.154867   -1.388686
    106          1           0       -5.598370   -4.484760   -1.916603
    107          1           0       -5.356040   -4.935880   -0.164006
    108          1           0       -6.361519   -2.326513   -1.293066
    109          1           0       -5.068663   -1.148954   -0.965742
    110          1           0       -5.096224   -2.081097    1.394762
    111          1           0       -6.596053   -2.950396    0.979558
    112          1           0       -6.773136   -0.136365    0.230308
    113          1           0       -5.990254   -0.137558    1.723888
    114          1           0       -8.279593   -2.040857    1.801054
    115          1           0       -8.294256    0.278268    3.687519
    116          1           0       -6.879082   -0.769713    3.810861
    117          1           0       -8.439159   -1.528244    3.885207
    118          1           0       -8.831991    0.451136    0.525789
    119          1           0       -9.498714    0.623690    2.063654
    120          1           0      -10.451202   -1.801138    0.801304
    121          1           0      -10.698691   -0.423014   -0.198295
    122          1           0      -11.308359   -0.155714    2.627773
    123          1           0      -12.507075   -1.004229    1.629646
    124          1           0      -11.548559    1.454809    0.290554
    125          1           0      -11.306085    2.995441    1.788639
    126          1           0      -11.944192    1.957021    3.062010
    127          1           0      -13.008426    3.015153    1.997927
    128          1           0      -14.359740    1.699090    0.983596
    129          1           0      -14.047099    0.036984    0.562358
    130          1           0      -13.082286    0.504068   -1.553286
    131          1           0      -13.033964    2.152006   -1.339707
    132          1           0      -15.370064    0.366376   -1.874205
    133          1           0      -14.554672    1.530930   -2.913684
    134          1           0      -15.611405    2.738277   -0.424132
    135          1           0      -18.034913    2.613488   -2.095958
    136          1           0      -17.861987    1.880520   -0.630440
    137          1           0      -17.455078    1.019678   -2.207570
    138          1           0      -16.321523    4.549378   -1.748056
    139          1           0      -16.196988    3.594732   -3.220055
    140          1           0      -14.726423    4.002514   -2.200706
 ---------------------------------------------------------------------

 SCF Done:  E(RZINDO/S) =  -474.646010844     A.U. after   19 cycles

 Excitation energies and oscillator strengths:

 Excited State   1:      Singlet-A      1.3673 eV  906.78 nm  f=0.5124  <S**2>=0.000
     175 ->178         0.16566
     176 ->177         0.66950
 This state for optimization and/or second-order correction.
 Total Energy, E(CIS/TDA) =  -474.595763247
 Copying the excited state density for this state as the 1-particle RhoCI density.

 Excited State   2:      Singlet-A      1.9848 eV  624.67 nm  f=0.0055  <S**2>=0.000
     175 ->177        -0.45421
     176 ->178         0.51498

 Excited State   3:      Singlet-A      2.8253 eV  438.83 nm  f=0.0178  <S**2>=0.000
     166 ->179        -0.10836
     168 ->177         0.32869
     168 ->178        -0.13579
     168 ->179        -0.38397
     168 ->181         0.25257
     168 ->184         0.16371
     168 ->186        -0.15053

 Excited State   4:      Singlet-A      2.9013 eV  427.33 nm  f=0.0928  <S**2>=0.000
     176 ->179         0.59325
     176 ->181         0.26769
     176 ->184         0.10239

 Excited State   5:      Singlet-A      3.0140 eV  411.36 nm  f=1.0343  <S**2>=0.000
     171 ->179        -0.10380
     171 ->181        -0.13498
     173 ->177         0.10911
     175 ->177         0.43634
     176 ->178         0.40845
     176 ->179         0.17266

 The electronic state is 1-A.
 Alpha  occ. eigenvalues --   -1.86034  -1.82638  -1.81736  -1.74992  -1.73061
 Alpha  occ. eigenvalues --   -1.69735  -1.65561  -1.61440  -1.60048  -1.59779
 Alpha  occ. eigenvalues --   -1.56833  -1.50561  -1.49229  -1.47233  -1.46038
 Alpha  occ. eigenvalues --   -1.43794  -1.41523  -1.40494  -1.39444  -1.38712
 Alpha  occ. eigenvalues --   -1.36053  -1.34895  -1.33592  -1.32518  -1.29413
 Alpha  occ. eigenvalues --   -1.28877  -1.24815  -1.21641  -1.20271  -1.18410
 Alpha  occ. eigenvalues --   -1.18005  -1.15552  -1.15074  -1.14455  -1.13509
 Alpha  occ. eigenvalues --   -1.12962  -1.11203  -1.10954  -1.04546  -1.03680
 Alpha  occ. eigenvalues --   -1.02046  -1.00887  -0.98694  -0.97990  -0.97291
 Alpha  occ. eigenvalues --   -0.96871  -0.95922  -0.94348  -0.92827  -0.92349
 Alpha  occ. eigenvalues --   -0.91258  -0.90591  -0.90089  -0.88292  -0.86825
 Alpha  occ. eigenvalues --   -0.85967  -0.84720  -0.83467  -0.81492  -0.80299
 Alpha  occ. eigenvalues --   -0.79685  -0.78604  -0.76868  -0.76301  -0.75882
 Alpha  occ. eigenvalues --   -0.75098  -0.74848  -0.74711  -0.74467  -0.74199
 Alpha  occ. eigenvalues --   -0.73267  -0.72778  -0.72146  -0.71399  -0.71115
 Alpha  occ. eigenvalues --   -0.69922  -0.69555  -0.68873  -0.68696  -0.68441
 Alpha  occ. eigenvalues --   -0.67822  -0.67255  -0.66468  -0.66190  -0.65795
 Alpha  occ. eigenvalues --   -0.65314  -0.64537  -0.64383  -0.63977  -0.63718
 Alpha  occ. eigenvalues --   -0.63230  -0.62938  -0.62772  -0.62344  -0.62141
 Alpha  occ. eigenvalues --   -0.61852  -0.61625  -0.61448  -0.60999  -0.60105
 Alpha  occ. eigenvalues --   -0.59908  -0.59054  -0.58758  -0.58674  -0.58331
 Alpha  occ. eigenvalues --   -0.58129  -0.57924  -0.56683  -0.56557  -0.56056
 Alpha  occ. eigenvalues --   -0.55939  -0.55761  -0.55289  -0.54969  -0.54534
 Alpha  occ. eigenvalues --   -0.54452  -0.54144  -0.53954  -0.53142  -0.52736
 Alpha  occ. eigenvalues --   -0.52404  -0.52134  -0.51946  -0.51595  -0.50884
 Alpha  occ. eigenvalues --   -0.50711  -0.50625  -0.50237  -0.50092  -0.49692
 Alpha  occ. eigenvalues --   -0.49262  -0.49027  -0.49006  -0.48690  -0.48556
 Alpha  occ. eigenvalues --   -0.48461  -0.48147  -0.48063  -0.47714  -0.47625
 Alpha  occ. eigenvalues --   -0.47242  -0.46786  -0.46734  -0.46636  -0.46328
 Alpha  occ. eigenvalues --   -0.46116  -0.45760  -0.45560  -0.45470  -0.45176
 Alpha  occ. eigenvalues --   -0.44727  -0.44622  -0.44438  -0.44228  -0.43858
 Alpha  occ. eigenvalues --   -0.43801  -0.43332  -0.43072  -0.42846  -0.42611
 Alpha  occ. eigenvalues --   -0.42456  -0.40450  -0.39743  -0.39256  -0.38585
 Alpha  occ. eigenvalues --   -0.36796  -0.36317  -0.35586  -0.34746  -0.34195
 Alpha  occ. eigenvalues --   -0.33956  -0.32185  -0.32116  -0.31831  -0.26824
 Alpha  occ. eigenvalues --   -0.21140
 Alpha virt. eigenvalues --   -0.07195  -0.01999  -0.00431   0.01094   0.01290
 Alpha virt. eigenvalues --    0.03064   0.03318   0.04176   0.04261   0.05474
 Alpha virt. eigenvalues --    0.06805   0.07007   0.07070   0.07840   0.08291

 Mulliken charges:
               1
     1  Mg   0.425345
     2  C   -0.026249
     3  C   -0.122400
     4  C   -0.070161
     5  C   -0.066379
     6  N   -0.274330
     7  C    0.075819
     8  C   -0.002163
     9  C    0.015682
    10  C    0.187860
    11  C   -0.053064
    12  C   -0.023479
    13  C    0.010047
    14  C    0.462429
    15  O   -0.509859
    16  O   -0.284269
    17  N   -0.330702
    18  C    0.150646
    19  C    0.021773
    20  C   -0.021749
    21  C    0.135902
    22  C   -0.043714
    23  C    0.322995
    24  O   -0.526395
    25  C   -0.026966
    26  N   -0.244631
    27  C    0.170632
    28  C    0.010107
    29  C    0.001387
    30  C    0.076084
    31  C   -0.047590
    32  C   -0.026850
    33  C   -0.061999
    34  N   -0.300398
    35  C    0.030673
    36  C    0.037912
    37  C   -0.069779
    38  C    0.100405
    39  C   -0.052046
    40  C    0.343710
    41  O   -0.532191
    42  C    0.066160
    43  C    0.508028
    44  O   -0.563047
    45  O   -0.252044
    46  C    0.077542
    47  C    0.103185
    48  C   -0.103643
    49  C   -0.010941
    50  C   -0.046997
    51  C   -0.017543
    52  C   -0.029138
    53  C   -0.035287
    54  C   -0.009366
    55  C   -0.061324
    56  C   -0.036584
    57  C   -0.027593
    58  C   -0.036615
    59  C   -0.021060
    60  C   -0.056796
    61  C   -0.027557
    62  C   -0.035022
    63  C   -0.031163
    64  C   -0.008839
    65  C   -0.061952
    66  C   -0.052759
    67  H    0.015790
    68  H    0.052315
    69  H    0.022270
    70  H    0.049804
    71  H    0.029753
    72  H    0.038032
    73  H    0.031981
    74  H    0.013020
    75  H    0.024441
    76  H    0.029225
    77  H    0.035200
    78  H    0.037533
    79  H    0.029905
    80  H    0.027636
    81  H    0.043586
    82  H    0.027297
    83  H    0.043327
    84  H    0.036904
    85  H    0.034671
    86  H    0.021543
    87  H    0.024149
    88  H    0.026663
    89  H    0.011771
    90  H    0.027107
    91  H    0.033468
    92  H    0.014388
    93  H    0.024752
    94  H    0.010899
    95  H    0.041764
    96  H    0.018138
    97  H    0.045672
    98  H    0.052881
    99  H    0.051128
   100  H    0.047489
   101  H    0.021534
   102  H    0.054983
   103  H    0.055982
   104  H    0.032084
   105  H    0.021780
   106  H    0.026704
   107  H    0.037973
   108  H    0.024323
   109  H    0.018975
   110  H    0.015612
   111  H    0.028225
   112  H    0.017256
   113  H    0.016842
   114  H    0.022514
   115  H    0.026291
   116  H    0.014483
   117  H    0.016242
   118  H    0.004646
   119  H    0.017406
   120  H    0.009912
   121  H    0.015309
   122  H    0.017237
   123  H    0.022393
   124  H    0.019581
   125  H    0.012570
   126  H    0.022746
   127  H    0.022965
   128  H    0.023146
   129  H    0.015964
   130  H    0.004237
   131  H    0.012368
   132  H    0.016463
   133  H    0.017650
   134  H    0.027388
   135  H    0.009162
   136  H    0.016390
   137  H    0.026951
   138  H    0.013065
   139  H    0.022405
   140  H    0.012054
 Sum of Mulliken charges =  -0.00000

 Dipole moment (field-independent basis, Debye):
    X=             -8.5223    Y=              6.6448    Z=              6.0728  Tot=             12.3960
 N-N= 4.301280364505D+03 E-N= 0.000000000000D+00  KE=-9.277478911229D+03
 Leave Link  601 at Sat Apr 30 05:49:33 2022, MaxMem=  6710886400 cpu:               0.8 elap:               0.1
 (Enter /sw/apps/gaussian-16.0/g16/l9999.exe)
 1\1\GINC-BP1-COMPUTE159\SP\RZINDO CIS\STO-3G\C55H74Mg1N4O6\OF15641\30-
 Apr-2022\0\\#p ZINDO=(nstates=5)\\step_601_chromophore_18 ZINDO\\0,1\M
 g,0,35.121,49.206,24.879\C,0,35.246,47.401,27.854\C,0,33.928,51.85,26.
 449\C,0,34.798,50.626,21.786\C,0,36.358,46.26,23.248\N,0,34.571,49.579
 ,26.914\C,0,34.863,48.715,27.971\C,0,34.527,49.445,29.298\C,0,34.004,5
 0.804,28.845\C,0,34.171,50.752,27.344\C,0,32.541,51.117,29.293\C,0,35.
 834,49.455,30.244\C,0,35.619,49.092,31.726\C,0,34.205,49.251,32.295\O,

 Normal termination of Gaussian 16 at Sat Apr 30 05:49:33 2022.
