 Gaussian 16, Revision A.03,
 Gaussian 16:  ES64L-G16RevA.03 25-Dec-2016

 ------------------------------
 #p blyp/Def2SVP td=(nstates=5)
 ------------------------------

 ---------------------------------------------------
 step_1651_chromophore_19 TDDFT with blyp functional
 ---------------------------------------------------
 Symbolic Z-matrix:
 Charge =  0 Multiplicity = 1

                         Standard orientation:
 ---------------------------------------------------------------------
 Center     Atomic      Atomic             Coordinates (Angstroms)
 Number     Number       Type             X           Y           Z
 ---------------------------------------------------------------------
      1         12           0       -5.913166    0.461741   -0.165129
      2          6           0       -3.529445   -2.150081   -0.459866
      3          6           0       -3.483615    2.597406    0.605280
      4          6           0       -8.398608    2.550190    0.181482
      5          6           0       -8.424499   -2.320019   -0.206196
      6          7           0       -3.716208    0.223137    0.201502
      7          6           0       -2.986960   -0.878826   -0.187216
      8          6           0       -1.476430   -0.527286   -0.052848
      9          6           0       -1.582027    0.934780    0.547529
     10          6           0       -2.991314    1.306175    0.549990
     11          6           0       -0.936376    1.223795    1.954032
     12          6           0       -0.650020   -0.705265   -1.357775
     13          6           0        0.678749   -1.484520   -1.159457
     14          6           0        1.703104   -0.937257   -0.009300
     15          8           0        1.526683   -1.012577    1.165712
     16          8           0        2.845652   -0.405740   -0.600168
     17          7           0       -5.865087    2.282940    0.317934
     18          6           0       -4.805630    3.135577    0.426290
     19          6           0       -5.269755    4.481810    0.534701
     20          6           0       -6.646640    4.473348    0.429991
     21          6           0       -7.028419    3.047764    0.349756
     22          6           0       -4.303754    5.521049    0.557175
     23          6           0       -7.570644    5.686170    0.432069
     24          8           0       -8.815217    5.668652    0.320998
     25          6           0       -6.964791    7.076532    0.721480
     26          7           0       -8.150876    0.092958    0.141349
     27          6           0       -8.876223    1.257217    0.126838
     28          6           0      -10.391794    0.893660    0.269569
     29          6           0      -10.327830   -0.721336    0.145109
     30          6           0       -8.899289   -1.029567   -0.072156
     31          6           0      -10.974010    1.481898    1.539361
     32          6           0      -11.305573   -1.222899   -0.937692
     33          6           0      -11.250988   -0.676104   -2.365523
     34          7           0       -6.061402   -1.764176   -0.328729
     35          6           0       -7.096785   -2.708390   -0.373617
     36          6           0       -6.576706   -4.066223   -0.511499
     37          6           0       -5.120765   -3.907430   -0.594245
     38          6           0       -4.886311   -2.495100   -0.492454
     39          6           0       -7.374384   -5.345206   -0.523229
     40          6           0       -3.885476   -4.589800   -0.729669
     41          8           0       -3.729536   -5.806444   -0.745975
     42          6           0       -2.748063   -3.475255   -0.663196
     43          6           0       -1.780477   -3.803846    0.414958
     44          8           0       -1.942798   -3.549516    1.595323
     45          8           0       -0.810278   -4.705258   -0.097113
     46          6           0        0.220386   -5.167085    0.859771
     47          6           0        3.963650   -0.211832    0.330581
     48          6           0        5.293283   -0.150649   -0.403941
     49          6           0        6.511979   -0.099778    0.156432
     50          6           0        6.808810    0.122235    1.660495
     51          6           0        7.721998   -0.044032   -0.727760
     52          6           0        8.004327    1.381807   -1.259176
     53          6           0        8.539878    1.475079   -2.701787
     54          6           0        9.804541    2.445766   -2.909382
     55          6           0        9.372272    3.501803   -4.026673
     56          6           0       11.116593    1.679791   -3.236451
     57          6           0       11.956059    1.458792   -2.014359
     58          6           0       12.771943    0.096823   -1.968307
     59          6           0       13.801845    0.098799   -0.829888
     60          6           0       15.178421   -0.394499   -1.384468
     61          6           0       13.359549   -0.829253    0.377675
     62          6           0       13.489101   -0.145344    1.668872
     63          6           0       12.111960    0.112378    2.273847
     64          6           0       11.939402   -0.268911    3.797531
     65          6           0       11.152947   -1.584107    3.934055
     66          6           0       11.269404    0.847377    4.681258
     67          1           0       -2.659173    3.308426    0.689295
     68          1           0       -9.217604    3.270598    0.241313
     69          1           0       -9.084060   -3.190758   -0.196162
     70          1           0       -1.029302   -1.189561    0.689035
     71          1           0       -1.083723    1.618442   -0.140193
     72          1           0       -0.248335    0.420411    2.217339
     73          1           0       -1.712924    1.276576    2.717450
     74          1           0       -0.452323    2.185933    1.785136
     75          1           0       -0.355321    0.266597   -1.750828
     76          1           0       -1.306886   -1.241428   -2.042827
     77          1           0        1.142907   -1.442594   -2.144802
     78          1           0        0.575047   -2.549395   -0.948037
     79          1           0       -3.273575    5.179628    0.652792
     80          1           0       -4.500782    6.112541    1.450395
     81          1           0       -4.323776    6.115307   -0.356184
     82          1           0       -6.374041    7.117590    1.636187
     83          1           0       -7.796519    7.777572    0.639788
     84          1           0       -6.292573    7.369696   -0.084858
     85          1           0      -10.962193    1.310246   -0.560383
     86          1           0      -10.589008   -1.239675    1.067624
     87          1           0      -11.620776    2.327687    1.308614
     88          1           0      -10.180647    1.724253    2.246740
     89          1           0      -11.537426    0.691325    2.033600
     90          1           0      -12.266511   -1.017620   -0.464651
     91          1           0      -11.200913   -2.305897   -1.001528
     92          1           0      -10.844003   -1.459559   -3.004016
     93          1           0      -10.637874    0.224578   -2.324566
     94          1           0      -12.270298   -0.547866   -2.729672
     95          1           0       -6.780841   -6.071113   -1.077496
     96          1           0       -8.283169   -5.177862   -1.101228
     97          1           0       -7.642753   -5.658689    0.486260
     98          1           0       -2.187458   -3.457080   -1.597398
     99          1           0       -0.204523   -5.300512    1.854977
    100          1           0        1.142299   -4.586312    0.893665
    101          1           0        0.426740   -6.203242    0.590639
    102          1           0        4.053154   -1.021220    1.054748
    103          1           0        3.807938    0.691359    0.920682
    104          1           0        5.259066   -0.251738   -1.488920
    105          1           0        7.076318   -0.851436    2.069940
    106          1           0        6.027359    0.578526    2.266998
    107          1           0        7.599381    0.861977    1.784808
    108          1           0        7.650215   -0.698525   -1.596052
    109          1           0        8.531479   -0.434325   -0.111254
    110          1           0        8.720591    1.848735   -0.581361
    111          1           0        7.015313    1.836608   -1.311120
    112          1           0        7.709065    1.756645   -3.349556
    113          1           0        8.769710    0.489251   -3.105227
    114          1           0       10.005641    3.043530   -2.019713
    115          1           0        9.942104    3.418397   -4.952438
    116          1           0        9.587658    4.505228   -3.657612
    117          1           0        8.315621    3.434106   -4.284595
    118          1           0       11.727543    2.221390   -3.959868
    119          1           0       10.913935    0.713292   -3.697067
    120          1           0       11.304895    1.489848   -1.140194
    121          1           0       12.601131    2.324901   -1.868000
    122          1           0       13.192510   -0.074710   -2.958907
    123          1           0       12.022897   -0.662685   -1.745940
    124          1           0       14.008166    1.072800   -0.385834
    125          1           0       15.833366   -0.567862   -0.531435
    126          1           0       15.662143    0.261617   -2.107695
    127          1           0       14.941882   -1.294285   -1.952775
    128          1           0       14.055410   -1.666141    0.434446
    129          1           0       12.417597   -1.364742    0.258184
    130          1           0       13.971697    0.827813    1.577703
    131          1           0       14.167349   -0.627115    2.373235
    132          1           0       11.402063   -0.391759    1.617779
    133          1           0       11.973464    1.193439    2.258560
    134          1           0       12.863300   -0.528081    4.315060
    135          1           0       10.464645   -1.507849    4.774717
    136          1           0       11.801676   -2.429099    4.166926
    137          1           0       10.600314   -1.837676    3.029091
    138          1           0       10.239844    0.560080    4.891376
    139          1           0       11.169418    1.740561    4.063854
    140          1           0       11.783814    1.094313    5.610390
 ---------------------------------------------------------------------

 SCF Done:  E(RB-LYP) =  -3007.38563082     A.U. after   21 cycles

 Excitation energies and oscillator strengths:

 Excited State   1:      Singlet-A      1.8046 eV  687.05 nm  f=0.3012  <S**2>=0.000
     245 -> 248        0.18698
     246 -> 247        0.68743
     246 <- 247       -0.14932
 This state for optimization and/or second-order correction.
 Total Energy, E(TD-HF/TD-DFT) =  -3007.31931354
 Copying the excited state density for this state as the 1-particle RhoCI density.

 Excited State   2:      Singlet-A      1.9516 eV  635.30 nm  f=0.0559  <S**2>=0.000
     243 -> 247        0.34326
     244 -> 247        0.16687
     245 -> 247        0.55847
     246 -> 248       -0.16499

 Excited State   3:      Singlet-A      1.9827 eV  625.34 nm  f=0.0000  <S**2>=0.000
     243 -> 247       -0.29680
     244 -> 247        0.64134

 Excited State   4:      Singlet-A      2.0237 eV  612.67 nm  f=0.0266  <S**2>=0.000
     242 -> 247       -0.10530
     243 -> 247        0.53894
     244 -> 247        0.24389
     245 -> 247       -0.34015
     246 -> 248        0.12773

 Excited State   5:      Singlet-A      2.3599 eV  525.38 nm  f=0.0001  <S**2>=0.000
     241 -> 247        0.70708

 The electronic state is 1-A.
 Alpha  occ. eigenvalues --  -46.27166 -18.82786 -18.81557 -18.78715 -18.76963
 Alpha  occ. eigenvalues --  -18.75877 -18.75617 -14.02695 -14.02273 -14.01385
 Alpha  occ. eigenvalues --  -14.00535 -10.05335 -10.03751 -10.00387  -9.99581
 Alpha  occ. eigenvalues --   -9.98366  -9.97052  -9.96816  -9.96639  -9.95855
 Alpha  occ. eigenvalues --   -9.95784  -9.95746  -9.95692  -9.95202  -9.94503
 Alpha  occ. eigenvalues --   -9.94391  -9.94304  -9.94226  -9.93896  -9.93788
 Alpha  occ. eigenvalues --   -9.93349  -9.93304  -9.93139  -9.93130  -9.93003
 Alpha  occ. eigenvalues --   -9.92979  -9.92973  -9.92933  -9.92845  -9.92752
 Alpha  occ. eigenvalues --   -9.92571  -9.92435  -9.92388  -9.92195  -9.92161
 Alpha  occ. eigenvalues --   -9.92095  -9.92087  -9.91968  -9.91906  -9.91895
 Alpha  occ. eigenvalues --   -9.91731  -9.91657  -9.91561  -9.91544  -9.91489
 Alpha  occ. eigenvalues --   -9.91429  -9.91365  -9.91132  -9.91091  -9.91018
 Alpha  occ. eigenvalues --   -9.90999  -9.90955  -9.90927  -9.90710  -9.90604
 Alpha  occ. eigenvalues --   -9.90511  -2.91881  -1.72266  -1.71792  -1.71608
 Alpha  occ. eigenvalues --   -0.98987  -0.96102  -0.91795  -0.90957  -0.90292
 Alpha  occ. eigenvalues --   -0.89313  -0.86234  -0.85371  -0.84895  -0.83419
 Alpha  occ. eigenvalues --   -0.75117  -0.73776  -0.73356  -0.72601  -0.72039
 Alpha  occ. eigenvalues --   -0.71837  -0.71790  -0.71143  -0.70868  -0.70491
 Alpha  occ. eigenvalues --   -0.69265  -0.68745  -0.68183  -0.67237  -0.67152
 Alpha  occ. eigenvalues --   -0.66449  -0.65761  -0.65284  -0.64821  -0.64237
 Alpha  occ. eigenvalues --   -0.64028  -0.62906  -0.61966  -0.61729  -0.60597
 Alpha  occ. eigenvalues --   -0.60333  -0.59913  -0.59509  -0.59412  -0.59117
 Alpha  occ. eigenvalues --   -0.58049  -0.57423  -0.56495  -0.55428  -0.54619
 Alpha  occ. eigenvalues --   -0.53924  -0.53504  -0.52909  -0.52091  -0.51258
 Alpha  occ. eigenvalues --   -0.51018  -0.50612  -0.50585  -0.50430  -0.50276
 Alpha  occ. eigenvalues --   -0.49829  -0.49732  -0.49375  -0.47529  -0.46518
 Alpha  occ. eigenvalues --   -0.46404  -0.45961  -0.45293  -0.44564  -0.44021
 Alpha  occ. eigenvalues --   -0.43850  -0.43047  -0.42835  -0.42686  -0.42564
 Alpha  occ. eigenvalues --   -0.42182  -0.41861  -0.41568  -0.41380  -0.40920
 Alpha  occ. eigenvalues --   -0.40716  -0.40507  -0.40369  -0.40331  -0.40281
 Alpha  occ. eigenvalues --   -0.39786  -0.39666  -0.39617  -0.39533  -0.39323
 Alpha  occ. eigenvalues --   -0.39287  -0.38639  -0.38501  -0.38357  -0.38058
 Alpha  occ. eigenvalues --   -0.37837  -0.37563  -0.37473  -0.37392  -0.37256
 Alpha  occ. eigenvalues --   -0.37243  -0.36959  -0.36897  -0.36669  -0.36610
 Alpha  occ. eigenvalues --   -0.36362  -0.36285  -0.36086  -0.35990  -0.35661
 Alpha  occ. eigenvalues --   -0.35611  -0.35329  -0.35089  -0.35080  -0.34805
 Alpha  occ. eigenvalues --   -0.34226  -0.34104  -0.33958  -0.33894  -0.33755
 Alpha  occ. eigenvalues --   -0.33665  -0.33585  -0.33145  -0.33137  -0.33044
 Alpha  occ. eigenvalues --   -0.32900  -0.32635  -0.32600  -0.32417  -0.32401
 Alpha  occ. eigenvalues --   -0.32272  -0.31740  -0.31693  -0.31461  -0.31305
 Alpha  occ. eigenvalues --   -0.31189  -0.30912  -0.30868  -0.30773  -0.30216
 Alpha  occ. eigenvalues --   -0.30194  -0.30050  -0.29951  -0.29883  -0.29712
 Alpha  occ. eigenvalues --   -0.29481  -0.29354  -0.29100  -0.29038  -0.28905
 Alpha  occ. eigenvalues --   -0.28671  -0.28487  -0.28349  -0.28246  -0.27858
 Alpha  occ. eigenvalues --   -0.27799  -0.27385  -0.27106  -0.26713  -0.26562
 Alpha  occ. eigenvalues --   -0.26293  -0.26268  -0.26145  -0.25671  -0.25615
 Alpha  occ. eigenvalues --   -0.24789  -0.24528  -0.24197  -0.24099  -0.23626
 Alpha  occ. eigenvalues --   -0.23238  -0.22188  -0.22040  -0.21858  -0.21341
 Alpha  occ. eigenvalues --   -0.20266  -0.19845  -0.18818  -0.18810  -0.17144
 Alpha  occ. eigenvalues --   -0.15858
 Alpha virt. eigenvalues --   -0.11594  -0.06958  -0.06414  -0.04892  -0.03476
 Alpha virt. eigenvalues --   -0.03131  -0.02713  -0.01953  -0.01186   0.00344
 Alpha virt. eigenvalues --    0.00842   0.01658   0.02176   0.02855   0.02918

 Mulliken charges:
               1
     1  Mg   0.702997
     2  C    0.055086
     3  C   -0.041892
     4  C   -0.013654
     5  C   -0.099609
     6  N   -0.212905
     7  C   -0.100617
     8  C    0.008518
     9  C   -0.021985
    10  C    0.022903
    11  C    0.123782
    12  C    0.135087
    13  C    0.076569
    14  C    0.094082
    15  O   -0.151476
    16  O   -0.277916
    17  N   -0.390343
    18  C    0.128867
    19  C   -0.118355
    20  C    0.050916
    21  C    0.110416
    22  C    0.190659
    23  C   -0.072141
    24  O   -0.179563
    25  C    0.125408
    26  N   -0.200696
    27  C    0.002322
    28  C   -0.019678
    29  C    0.045187
    30  C    0.084330
    31  C    0.146815
    32  C    0.039146
    33  C    0.089828
    34  N   -0.244352
    35  C    0.097628
    36  C   -0.179141
    37  C    0.098461
    38  C    0.074680
    39  C    0.177736
    40  C   -0.067280
    41  O   -0.130053
    42  C    0.057078
    43  C    0.122274
    44  O   -0.165541
    45  O   -0.302512
    46  C    0.209396
    47  C    0.307804
    48  C   -0.101722
    49  C   -0.153589
    50  C    0.119962
    51  C    0.120207
    52  C    0.094067
    53  C    0.098000
    54  C   -0.087884
    55  C    0.083802
    56  C    0.160792
    57  C   -0.005307
    58  C    0.129427
    59  C   -0.050507
    60  C    0.086406
    61  C    0.108783
    62  C    0.071127
    63  C    0.106978
    64  C   -0.102643
    65  C    0.093255
    66  C    0.098836
    67  H   -0.072695
    68  H   -0.042565
    69  H   -0.066651
    70  H    0.011767
    71  H   -0.036913
    72  H    0.018813
    73  H   -0.002930
    74  H   -0.009918
    75  H   -0.015700
    76  H   -0.013687
    77  H   -0.016463
    78  H    0.013476
    79  H   -0.027552
    80  H   -0.009013
    81  H    0.010115
    82  H    0.013848
    83  H   -0.005946
    84  H   -0.010529
    85  H   -0.018393
    86  H   -0.023969
    87  H    0.003823
    88  H   -0.001367
    89  H   -0.023150
    90  H   -0.025544
    91  H   -0.029992
    92  H   -0.010664
    93  H    0.011241
    94  H   -0.007859
    95  H    0.011115
    96  H   -0.009964
    97  H    0.017762
    98  H   -0.005621
    99  H    0.015804
   100  H    0.024067
   101  H    0.009886
   102  H    0.006214
   103  H    0.002988
   104  H   -0.036659
   105  H    0.014770
   106  H   -0.014384
   107  H   -0.001979
   108  H   -0.030851
   109  H   -0.035763
   110  H   -0.014733
   111  H   -0.027010
   112  H   -0.035152
   113  H   -0.040008
   114  H   -0.024716
   115  H   -0.018494
   116  H   -0.019179
   117  H   -0.014822
   118  H   -0.038470
   119  H   -0.039008
   120  H   -0.032616
   121  H   -0.030582
   122  H   -0.028509
   123  H   -0.031274
   124  H   -0.030978
   125  H   -0.014335
   126  H   -0.014971
   127  H   -0.015552
   128  H   -0.052270
   129  H   -0.035659
   130  H   -0.040207
   131  H   -0.038311
   132  H   -0.016158
   133  H   -0.035727
   134  H   -0.029803
   135  H   -0.024304
   136  H   -0.018975
   137  H   -0.019913
   138  H   -0.022194
   139  H   -0.030391
   140  H   -0.002899
 Sum of Mulliken charges =  -0.00000

 Dipole moment (field-independent basis, Debye):
    X=              3.9632    Y=              2.7696    Z=             -1.6447  Tot=              5.1071
 Quadrupole moment (field-independent basis, Debye-Ang):
   XX=           -375.5982   YY=           -424.6538   ZZ=           -407.7689
   XY=             13.5762   XZ=             11.5973   YZ=              0.2108

 Normal termination of Gaussian 16 at Thu Apr 28 17:09:01 2022.
