 Gaussian 16, Revision A.03,
 Gaussian 16:  ES64L-G16RevA.03 25-Dec-2016

 -----------------------------------
 #p cam-b3lyp/Def2SVP td=(nstates=5)
 -----------------------------------

 --------------------------------------------------------
 step_1651_chromophore_19 TDDFT with cam-b3lyp functional
 --------------------------------------------------------
 Symbolic Z-matrix:
 Charge =  0 Multiplicity = 1

                         Standard orientation:
 ---------------------------------------------------------------------
 Center     Atomic      Atomic             Coordinates (Angstroms)
 Number     Number       Type             X           Y           Z
 ---------------------------------------------------------------------
      1         12           0       -5.913166    0.461741   -0.165129
      2          6           0       -3.529445   -2.150081   -0.459866
      3          6           0       -3.483615    2.597406    0.605280
      4          6           0       -8.398608    2.550190    0.181482
      5          6           0       -8.424499   -2.320019   -0.206196
      6          7           0       -3.716208    0.223137    0.201502
      7          6           0       -2.986960   -0.878826   -0.187216
      8          6           0       -1.476430   -0.527286   -0.052848
      9          6           0       -1.582027    0.934780    0.547529
     10          6           0       -2.991314    1.306175    0.549990
     11          6           0       -0.936376    1.223795    1.954032
     12          6           0       -0.650020   -0.705265   -1.357775
     13          6           0        0.678749   -1.484520   -1.159457
     14          6           0        1.703104   -0.937257   -0.009300
     15          8           0        1.526683   -1.012577    1.165712
     16          8           0        2.845652   -0.405740   -0.600168
     17          7           0       -5.865087    2.282940    0.317934
     18          6           0       -4.805630    3.135577    0.426290
     19          6           0       -5.269755    4.481810    0.534701
     20          6           0       -6.646640    4.473348    0.429991
     21          6           0       -7.028419    3.047764    0.349756
     22          6           0       -4.303754    5.521049    0.557175
     23          6           0       -7.570644    5.686170    0.432069
     24          8           0       -8.815217    5.668652    0.320998
     25          6           0       -6.964791    7.076532    0.721480
     26          7           0       -8.150876    0.092958    0.141349
     27          6           0       -8.876223    1.257217    0.126838
     28          6           0      -10.391794    0.893660    0.269569
     29          6           0      -10.327830   -0.721336    0.145109
     30          6           0       -8.899289   -1.029567   -0.072156
     31          6           0      -10.974010    1.481898    1.539361
     32          6           0      -11.305573   -1.222899   -0.937692
     33          6           0      -11.250988   -0.676104   -2.365523
     34          7           0       -6.061402   -1.764176   -0.328729
     35          6           0       -7.096785   -2.708390   -0.373617
     36          6           0       -6.576706   -4.066223   -0.511499
     37          6           0       -5.120765   -3.907430   -0.594245
     38          6           0       -4.886311   -2.495100   -0.492454
     39          6           0       -7.374384   -5.345206   -0.523229
     40          6           0       -3.885476   -4.589800   -0.729669
     41          8           0       -3.729536   -5.806444   -0.745975
     42          6           0       -2.748063   -3.475255   -0.663196
     43          6           0       -1.780477   -3.803846    0.414958
     44          8           0       -1.942798   -3.549516    1.595323
     45          8           0       -0.810278   -4.705258   -0.097113
     46          6           0        0.220386   -5.167085    0.859771
     47          6           0        3.963650   -0.211832    0.330581
     48          6           0        5.293283   -0.150649   -0.403941
     49          6           0        6.511979   -0.099778    0.156432
     50          6           0        6.808810    0.122235    1.660495
     51          6           0        7.721998   -0.044032   -0.727760
     52          6           0        8.004327    1.381807   -1.259176
     53          6           0        8.539878    1.475079   -2.701787
     54          6           0        9.804541    2.445766   -2.909382
     55          6           0        9.372272    3.501803   -4.026673
     56          6           0       11.116593    1.679791   -3.236451
     57          6           0       11.956059    1.458792   -2.014359
     58          6           0       12.771943    0.096823   -1.968307
     59          6           0       13.801845    0.098799   -0.829888
     60          6           0       15.178421   -0.394499   -1.384468
     61          6           0       13.359549   -0.829253    0.377675
     62          6           0       13.489101   -0.145344    1.668872
     63          6           0       12.111960    0.112378    2.273847
     64          6           0       11.939402   -0.268911    3.797531
     65          6           0       11.152947   -1.584107    3.934055
     66          6           0       11.269404    0.847377    4.681258
     67          1           0       -2.659173    3.308426    0.689295
     68          1           0       -9.217604    3.270598    0.241313
     69          1           0       -9.084060   -3.190758   -0.196162
     70          1           0       -1.029302   -1.189561    0.689035
     71          1           0       -1.083723    1.618442   -0.140193
     72          1           0       -0.248335    0.420411    2.217339
     73          1           0       -1.712924    1.276576    2.717450
     74          1           0       -0.452323    2.185933    1.785136
     75          1           0       -0.355321    0.266597   -1.750828
     76          1           0       -1.306886   -1.241428   -2.042827
     77          1           0        1.142907   -1.442594   -2.144802
     78          1           0        0.575047   -2.549395   -0.948037
     79          1           0       -3.273575    5.179628    0.652792
     80          1           0       -4.500782    6.112541    1.450395
     81          1           0       -4.323776    6.115307   -0.356184
     82          1           0       -6.374041    7.117590    1.636187
     83          1           0       -7.796519    7.777572    0.639788
     84          1           0       -6.292573    7.369696   -0.084858
     85          1           0      -10.962193    1.310246   -0.560383
     86          1           0      -10.589008   -1.239675    1.067624
     87          1           0      -11.620776    2.327687    1.308614
     88          1           0      -10.180647    1.724253    2.246740
     89          1           0      -11.537426    0.691325    2.033600
     90          1           0      -12.266511   -1.017620   -0.464651
     91          1           0      -11.200913   -2.305897   -1.001528
     92          1           0      -10.844003   -1.459559   -3.004016
     93          1           0      -10.637874    0.224578   -2.324566
     94          1           0      -12.270298   -0.547866   -2.729672
     95          1           0       -6.780841   -6.071113   -1.077496
     96          1           0       -8.283169   -5.177862   -1.101228
     97          1           0       -7.642753   -5.658689    0.486260
     98          1           0       -2.187458   -3.457080   -1.597398
     99          1           0       -0.204523   -5.300512    1.854977
    100          1           0        1.142299   -4.586312    0.893665
    101          1           0        0.426740   -6.203242    0.590639
    102          1           0        4.053154   -1.021220    1.054748
    103          1           0        3.807938    0.691359    0.920682
    104          1           0        5.259066   -0.251738   -1.488920
    105          1           0        7.076318   -0.851436    2.069940
    106          1           0        6.027359    0.578526    2.266998
    107          1           0        7.599381    0.861977    1.784808
    108          1           0        7.650215   -0.698525   -1.596052
    109          1           0        8.531479   -0.434325   -0.111254
    110          1           0        8.720591    1.848735   -0.581361
    111          1           0        7.015313    1.836608   -1.311120
    112          1           0        7.709065    1.756645   -3.349556
    113          1           0        8.769710    0.489251   -3.105227
    114          1           0       10.005641    3.043530   -2.019713
    115          1           0        9.942104    3.418397   -4.952438
    116          1           0        9.587658    4.505228   -3.657612
    117          1           0        8.315621    3.434106   -4.284595
    118          1           0       11.727543    2.221390   -3.959868
    119          1           0       10.913935    0.713292   -3.697067
    120          1           0       11.304895    1.489848   -1.140194
    121          1           0       12.601131    2.324901   -1.868000
    122          1           0       13.192510   -0.074710   -2.958907
    123          1           0       12.022897   -0.662685   -1.745940
    124          1           0       14.008166    1.072800   -0.385834
    125          1           0       15.833366   -0.567862   -0.531435
    126          1           0       15.662143    0.261617   -2.107695
    127          1           0       14.941882   -1.294285   -1.952775
    128          1           0       14.055410   -1.666141    0.434446
    129          1           0       12.417597   -1.364742    0.258184
    130          1           0       13.971697    0.827813    1.577703
    131          1           0       14.167349   -0.627115    2.373235
    132          1           0       11.402063   -0.391759    1.617779
    133          1           0       11.973464    1.193439    2.258560
    134          1           0       12.863300   -0.528081    4.315060
    135          1           0       10.464645   -1.507849    4.774717
    136          1           0       11.801676   -2.429099    4.166926
    137          1           0       10.600314   -1.837676    3.029091
    138          1           0       10.239844    0.560080    4.891376
    139          1           0       11.169418    1.740561    4.063854
    140          1           0       11.783814    1.094313    5.610390
 ---------------------------------------------------------------------

 SCF Done:  E(RCAM-B3LYP) =  -3007.17149416     A.U. after   17 cycles

 Excitation energies and oscillator strengths:

 Excited State   1:      Singlet-A      1.6947 eV  731.58 nm  f=0.3887  <S**2>=0.000
     245 -> 248        0.18915
     246 -> 247        0.68335
     245 <- 248        0.11057
 This state for optimization and/or second-order correction.
 Total Energy, E(TD-HF/TD-DFT) =  -3007.10921368
 Copying the excited state density for this state as the 1-particle RhoCI density.

 Excited State   2:      Singlet-A      2.1941 eV  565.08 nm  f=0.1251  <S**2>=0.000
     245 -> 247        0.64533
     246 -> 248       -0.27312

 Excited State   3:      Singlet-A      3.1965 eV  387.88 nm  f=0.0008  <S**2>=0.000
     244 -> 247        0.67729
     246 -> 248        0.14155

 Excited State   4:      Singlet-A      3.4225 eV  362.26 nm  f=0.0088  <S**2>=0.000
     240 -> 247       -0.17431
     241 -> 247        0.55974
     241 -> 249       -0.27832
     241 -> 250       -0.15245

 Excited State   5:      Singlet-A      3.5386 eV  350.38 nm  f=0.6920  <S**2>=0.000
     242 -> 247        0.11812
     244 -> 247       -0.10490
     245 -> 247        0.27348
     246 -> 248        0.61642
     245 <- 247       -0.11141

 The electronic state is 1-A.
 Alpha  occ. eigenvalues --  -46.88755 -19.25623 -19.24647 -19.21784 -19.20321
 Alpha  occ. eigenvalues --  -19.19028 -19.18904 -14.41593 -14.41040 -14.39839
 Alpha  occ. eigenvalues --  -14.38994 -10.40743 -10.39498 -10.35602 -10.35089
 Alpha  occ. eigenvalues --  -10.32392 -10.31296 -10.31240 -10.31143 -10.30196
 Alpha  occ. eigenvalues --  -10.30160 -10.30025 -10.29810 -10.29605 -10.29011
 Alpha  occ. eigenvalues --  -10.28978 -10.28960 -10.28515 -10.28165 -10.27916
 Alpha  occ. eigenvalues --  -10.27466 -10.27446 -10.27261 -10.27155 -10.27112
 Alpha  occ. eigenvalues --  -10.27084 -10.27002 -10.26879 -10.26562 -10.26535
 Alpha  occ. eigenvalues --  -10.26420 -10.26336 -10.26219 -10.26198 -10.25968
 Alpha  occ. eigenvalues --  -10.25956 -10.25920 -10.25844 -10.25784 -10.25635
 Alpha  occ. eigenvalues --  -10.25599 -10.25384 -10.25256 -10.25220 -10.25117
 Alpha  occ. eigenvalues --  -10.25111 -10.25100 -10.24805 -10.24745 -10.24649
 Alpha  occ. eigenvalues --  -10.24601 -10.24578 -10.24555 -10.24326 -10.24190
 Alpha  occ. eigenvalues --  -10.24080  -3.17375  -1.92232  -1.91844  -1.91694
 Alpha  occ. eigenvalues --   -1.17524  -1.14821  -1.09663  -1.09449  -1.08572
 Alpha  occ. eigenvalues --   -1.07370  -1.03894  -1.02973  -1.02490  -1.00972
 Alpha  occ. eigenvalues --   -0.92357  -0.90666  -0.90164  -0.89346  -0.88830
 Alpha  occ. eigenvalues --   -0.88534  -0.88406  -0.87728  -0.87407  -0.87035
 Alpha  occ. eigenvalues --   -0.85823  -0.85038  -0.84485  -0.83460  -0.83266
 Alpha  occ. eigenvalues --   -0.82552  -0.81795  -0.81218  -0.80749  -0.80157
 Alpha  occ. eigenvalues --   -0.79801  -0.78667  -0.77540  -0.77279  -0.75979
 Alpha  occ. eigenvalues --   -0.75761  -0.75258  -0.74722  -0.74685  -0.74362
 Alpha  occ. eigenvalues --   -0.73067  -0.72464  -0.71353  -0.70256  -0.69250
 Alpha  occ. eigenvalues --   -0.68647  -0.68042  -0.67382  -0.66425  -0.65432
 Alpha  occ. eigenvalues --   -0.65208  -0.64719  -0.64685  -0.64355  -0.64116
 Alpha  occ. eigenvalues --   -0.63745  -0.63713  -0.63335  -0.61266  -0.60020
 Alpha  occ. eigenvalues --   -0.59995  -0.59446  -0.58842  -0.57901  -0.57726
 Alpha  occ. eigenvalues --   -0.57342  -0.56365  -0.56333  -0.55811  -0.55789
 Alpha  occ. eigenvalues --   -0.55309  -0.54924  -0.54692  -0.54192  -0.53761
 Alpha  occ. eigenvalues --   -0.53531  -0.53309  -0.53149  -0.53017  -0.52951
 Alpha  occ. eigenvalues --   -0.52834  -0.52532  -0.52371  -0.52127  -0.51882
 Alpha  occ. eigenvalues --   -0.51720  -0.51109  -0.50884  -0.50800  -0.50583
 Alpha  occ. eigenvalues --   -0.50225  -0.49888  -0.49774  -0.49744  -0.49595
 Alpha  occ. eigenvalues --   -0.49558  -0.49193  -0.49091  -0.48962  -0.48778
 Alpha  occ. eigenvalues --   -0.48658  -0.48625  -0.48394  -0.48335  -0.48203
 Alpha  occ. eigenvalues --   -0.47546  -0.47525  -0.47362  -0.47148  -0.46783
 Alpha  occ. eigenvalues --   -0.46314  -0.45908  -0.45881  -0.45666  -0.45591
 Alpha  occ. eigenvalues --   -0.45556  -0.45387  -0.45168  -0.44918  -0.44827
 Alpha  occ. eigenvalues --   -0.44586  -0.44434  -0.44118  -0.44103  -0.43979
 Alpha  occ. eigenvalues --   -0.43888  -0.43542  -0.43340  -0.43094  -0.42922
 Alpha  occ. eigenvalues --   -0.42822  -0.42334  -0.42133  -0.42074  -0.41655
 Alpha  occ. eigenvalues --   -0.41386  -0.41380  -0.41229  -0.41200  -0.41052
 Alpha  occ. eigenvalues --   -0.40862  -0.40681  -0.40478  -0.40275  -0.40110
 Alpha  occ. eigenvalues --   -0.39657  -0.39421  -0.39310  -0.39257  -0.38856
 Alpha  occ. eigenvalues --   -0.38666  -0.38243  -0.37942  -0.37866  -0.37790
 Alpha  occ. eigenvalues --   -0.37317  -0.37210  -0.36719  -0.36522  -0.36362
 Alpha  occ. eigenvalues --   -0.36165  -0.35482  -0.35003  -0.34926  -0.34494
 Alpha  occ. eigenvalues --   -0.34447  -0.33135  -0.32693  -0.31431  -0.30985
 Alpha  occ. eigenvalues --   -0.30911  -0.30661  -0.29935  -0.29031  -0.23853
 Alpha  occ. eigenvalues --   -0.21151
 Alpha virt. eigenvalues --   -0.08793  -0.01689  -0.00046   0.01721   0.02498
 Alpha virt. eigenvalues --    0.04195   0.04486   0.05553   0.06087   0.06575
 Alpha virt. eigenvalues --    0.07175   0.08153   0.09011   0.09156   0.09317

 Mulliken charges:
               1
     1  Mg   0.834063
     2  C    0.020972
     3  C   -0.053632
     4  C   -0.037351
     5  C   -0.106221
     6  N   -0.283794
     7  C   -0.047878
     8  C   -0.049413
     9  C   -0.076393
    10  C    0.043306
    11  C    0.068702
    12  C    0.083836
    13  C    0.019201
    14  C    0.167107
    15  O   -0.192042
    16  O   -0.343414
    17  N   -0.481831
    18  C    0.137980
    19  C   -0.123521
    20  C   -0.021373
    21  C    0.139626
    22  C    0.121497
    23  C    0.009220
    24  O   -0.221274
    25  C    0.045103
    26  N   -0.268505
    27  C    0.021221
    28  C   -0.072713
    29  C   -0.016056
    30  C    0.104418
    31  C    0.085711
    32  C   -0.008749
    33  C    0.026356
    34  N   -0.326573
    35  C    0.103392
    36  C   -0.168425
    37  C    0.019707
    38  C    0.110261
    39  C    0.125044
    40  C    0.029279
    41  O   -0.168284
    42  C   -0.014839
    43  C    0.206557
    44  O   -0.198449
    45  O   -0.366258
    46  C    0.172541
    47  C    0.277696
    48  C   -0.121038
    49  C   -0.179533
    50  C    0.061026
    51  C    0.063117
    52  C    0.039125
    53  C    0.048520
    54  C   -0.148636
    55  C    0.030982
    56  C    0.104470
    57  C   -0.046511
    58  C    0.074635
    59  C   -0.107398
    60  C    0.033129
    61  C    0.046031
    62  C    0.017072
    63  C    0.057559
    64  C   -0.164794
    65  C    0.038397
    66  C    0.041892
    67  H   -0.039248
    68  H   -0.001884
    69  H   -0.030401
    70  H    0.045521
    71  H   -0.002340
    72  H    0.042727
    73  H    0.023293
    74  H    0.012194
    75  H    0.015222
    76  H    0.016659
    77  H    0.020605
    78  H    0.038692
    79  H    0.003047
    80  H    0.016819
    81  H    0.036227
    82  H    0.040185
    83  H    0.029517
    84  H    0.017452
    85  H    0.015122
    86  H    0.012434
    87  H    0.027564
    88  H    0.025527
    89  H    0.001375
    90  H    0.002751
    91  H   -0.002584
    92  H    0.013728
    93  H    0.030504
    94  H    0.017016
    95  H    0.039067
    96  H    0.014486
    97  H    0.044722
    98  H    0.036095
    99  H    0.042411
   100  H    0.042050
   101  H    0.033580
   102  H    0.033517
   103  H    0.028890
   104  H   -0.001073
   105  H    0.037841
   106  H    0.010811
   107  H    0.020816
   108  H    0.000129
   109  H   -0.008464
   110  H    0.009348
   111  H    0.003714
   112  H   -0.006365
   113  H   -0.012571
   114  H    0.006774
   115  H    0.004886
   116  H    0.004652
   117  H    0.008311
   118  H   -0.008419
   119  H   -0.010462
   120  H   -0.010660
   121  H   -0.003340
   122  H    0.000083
   123  H   -0.004442
   124  H   -0.000759
   125  H    0.008672
   126  H    0.009622
   127  H    0.006842
   128  H   -0.018903
   129  H   -0.006408
   130  H   -0.010366
   131  H   -0.008449
   132  H    0.005345
   133  H   -0.007773
   134  H    0.001987
   135  H    0.000119
   136  H    0.005220
   137  H    0.001487
   138  H    0.000951
   139  H   -0.006481
   140  H    0.020923
 Sum of Mulliken charges =  -0.00000

 Dipole moment (field-independent basis, Debye):
    X=              4.1415    Y=              2.8655    Z=             -1.7962  Tot=              5.3469
 Quadrupole moment (field-independent basis, Debye-Ang):
   XX=           -375.7111   YY=           -420.5587   ZZ=           -407.6365
   XY=             13.2922   XZ=             12.1949   YZ=              0.6286

 Normal termination of Gaussian 16 at Thu Apr 28 16:19:32 2022.
