 Gaussian 16, Revision A.03,
 Gaussian 16:  ES64L-G16RevA.03 25-Dec-2016

 ---------------------------------
 #p PBE1PBE/Def2SVP td=(nstates=5)
 ---------------------------------

 ------------------------------------------------------
 step_1651_chromophore_19 TDDFT with PBE1PBE functional
 ------------------------------------------------------
 Symbolic Z-matrix:
 Charge =  0 Multiplicity = 1

                         Standard orientation:
 ---------------------------------------------------------------------
 Center     Atomic      Atomic             Coordinates (Angstroms)
 Number     Number       Type             X           Y           Z
 ---------------------------------------------------------------------
      1         12           0       -5.913166    0.461741   -0.165129
      2          6           0       -3.529445   -2.150081   -0.459866
      3          6           0       -3.483615    2.597406    0.605280
      4          6           0       -8.398608    2.550190    0.181482
      5          6           0       -8.424499   -2.320019   -0.206196
      6          7           0       -3.716208    0.223137    0.201502
      7          6           0       -2.986960   -0.878826   -0.187216
      8          6           0       -1.476430   -0.527286   -0.052848
      9          6           0       -1.582027    0.934780    0.547529
     10          6           0       -2.991314    1.306175    0.549990
     11          6           0       -0.936376    1.223795    1.954032
     12          6           0       -0.650020   -0.705265   -1.357775
     13          6           0        0.678749   -1.484520   -1.159457
     14          6           0        1.703104   -0.937257   -0.009300
     15          8           0        1.526683   -1.012577    1.165712
     16          8           0        2.845652   -0.405740   -0.600168
     17          7           0       -5.865087    2.282940    0.317934
     18          6           0       -4.805630    3.135577    0.426290
     19          6           0       -5.269755    4.481810    0.534701
     20          6           0       -6.646640    4.473348    0.429991
     21          6           0       -7.028419    3.047764    0.349756
     22          6           0       -4.303754    5.521049    0.557175
     23          6           0       -7.570644    5.686170    0.432069
     24          8           0       -8.815217    5.668652    0.320998
     25          6           0       -6.964791    7.076532    0.721480
     26          7           0       -8.150876    0.092958    0.141349
     27          6           0       -8.876223    1.257217    0.126838
     28          6           0      -10.391794    0.893660    0.269569
     29          6           0      -10.327830   -0.721336    0.145109
     30          6           0       -8.899289   -1.029567   -0.072156
     31          6           0      -10.974010    1.481898    1.539361
     32          6           0      -11.305573   -1.222899   -0.937692
     33          6           0      -11.250988   -0.676104   -2.365523
     34          7           0       -6.061402   -1.764176   -0.328729
     35          6           0       -7.096785   -2.708390   -0.373617
     36          6           0       -6.576706   -4.066223   -0.511499
     37          6           0       -5.120765   -3.907430   -0.594245
     38          6           0       -4.886311   -2.495100   -0.492454
     39          6           0       -7.374384   -5.345206   -0.523229
     40          6           0       -3.885476   -4.589800   -0.729669
     41          8           0       -3.729536   -5.806444   -0.745975
     42          6           0       -2.748063   -3.475255   -0.663196
     43          6           0       -1.780477   -3.803846    0.414958
     44          8           0       -1.942798   -3.549516    1.595323
     45          8           0       -0.810278   -4.705258   -0.097113
     46          6           0        0.220386   -5.167085    0.859771
     47          6           0        3.963650   -0.211832    0.330581
     48          6           0        5.293283   -0.150649   -0.403941
     49          6           0        6.511979   -0.099778    0.156432
     50          6           0        6.808810    0.122235    1.660495
     51          6           0        7.721998   -0.044032   -0.727760
     52          6           0        8.004327    1.381807   -1.259176
     53          6           0        8.539878    1.475079   -2.701787
     54          6           0        9.804541    2.445766   -2.909382
     55          6           0        9.372272    3.501803   -4.026673
     56          6           0       11.116593    1.679791   -3.236451
     57          6           0       11.956059    1.458792   -2.014359
     58          6           0       12.771943    0.096823   -1.968307
     59          6           0       13.801845    0.098799   -0.829888
     60          6           0       15.178421   -0.394499   -1.384468
     61          6           0       13.359549   -0.829253    0.377675
     62          6           0       13.489101   -0.145344    1.668872
     63          6           0       12.111960    0.112378    2.273847
     64          6           0       11.939402   -0.268911    3.797531
     65          6           0       11.152947   -1.584107    3.934055
     66          6           0       11.269404    0.847377    4.681258
     67          1           0       -2.659173    3.308426    0.689295
     68          1           0       -9.217604    3.270598    0.241313
     69          1           0       -9.084060   -3.190758   -0.196162
     70          1           0       -1.029302   -1.189561    0.689035
     71          1           0       -1.083723    1.618442   -0.140193
     72          1           0       -0.248335    0.420411    2.217339
     73          1           0       -1.712924    1.276576    2.717450
     74          1           0       -0.452323    2.185933    1.785136
     75          1           0       -0.355321    0.266597   -1.750828
     76          1           0       -1.306886   -1.241428   -2.042827
     77          1           0        1.142907   -1.442594   -2.144802
     78          1           0        0.575047   -2.549395   -0.948037
     79          1           0       -3.273575    5.179628    0.652792
     80          1           0       -4.500782    6.112541    1.450395
     81          1           0       -4.323776    6.115307   -0.356184
     82          1           0       -6.374041    7.117590    1.636187
     83          1           0       -7.796519    7.777572    0.639788
     84          1           0       -6.292573    7.369696   -0.084858
     85          1           0      -10.962193    1.310246   -0.560383
     86          1           0      -10.589008   -1.239675    1.067624
     87          1           0      -11.620776    2.327687    1.308614
     88          1           0      -10.180647    1.724253    2.246740
     89          1           0      -11.537426    0.691325    2.033600
     90          1           0      -12.266511   -1.017620   -0.464651
     91          1           0      -11.200913   -2.305897   -1.001528
     92          1           0      -10.844003   -1.459559   -3.004016
     93          1           0      -10.637874    0.224578   -2.324566
     94          1           0      -12.270298   -0.547866   -2.729672
     95          1           0       -6.780841   -6.071113   -1.077496
     96          1           0       -8.283169   -5.177862   -1.101228
     97          1           0       -7.642753   -5.658689    0.486260
     98          1           0       -2.187458   -3.457080   -1.597398
     99          1           0       -0.204523   -5.300512    1.854977
    100          1           0        1.142299   -4.586312    0.893665
    101          1           0        0.426740   -6.203242    0.590639
    102          1           0        4.053154   -1.021220    1.054748
    103          1           0        3.807938    0.691359    0.920682
    104          1           0        5.259066   -0.251738   -1.488920
    105          1           0        7.076318   -0.851436    2.069940
    106          1           0        6.027359    0.578526    2.266998
    107          1           0        7.599381    0.861977    1.784808
    108          1           0        7.650215   -0.698525   -1.596052
    109          1           0        8.531479   -0.434325   -0.111254
    110          1           0        8.720591    1.848735   -0.581361
    111          1           0        7.015313    1.836608   -1.311120
    112          1           0        7.709065    1.756645   -3.349556
    113          1           0        8.769710    0.489251   -3.105227
    114          1           0       10.005641    3.043530   -2.019713
    115          1           0        9.942104    3.418397   -4.952438
    116          1           0        9.587658    4.505228   -3.657612
    117          1           0        8.315621    3.434106   -4.284595
    118          1           0       11.727543    2.221390   -3.959868
    119          1           0       10.913935    0.713292   -3.697067
    120          1           0       11.304895    1.489848   -1.140194
    121          1           0       12.601131    2.324901   -1.868000
    122          1           0       13.192510   -0.074710   -2.958907
    123          1           0       12.022897   -0.662685   -1.745940
    124          1           0       14.008166    1.072800   -0.385834
    125          1           0       15.833366   -0.567862   -0.531435
    126          1           0       15.662143    0.261617   -2.107695
    127          1           0       14.941882   -1.294285   -1.952775
    128          1           0       14.055410   -1.666141    0.434446
    129          1           0       12.417597   -1.364742    0.258184
    130          1           0       13.971697    0.827813    1.577703
    131          1           0       14.167349   -0.627115    2.373235
    132          1           0       11.402063   -0.391759    1.617779
    133          1           0       11.973464    1.193439    2.258560
    134          1           0       12.863300   -0.528081    4.315060
    135          1           0       10.464645   -1.507849    4.774717
    136          1           0       11.801676   -2.429099    4.166926
    137          1           0       10.600314   -1.837676    3.029091
    138          1           0       10.239844    0.560080    4.891376
    139          1           0       11.169418    1.740561    4.063854
    140          1           0       11.783814    1.094313    5.610390
 ---------------------------------------------------------------------

 SCF Done:  E(RPBE1PBE) =  -3005.35968026     A.U. after   15 cycles

 Excitation energies and oscillator strengths:

 Excited State   1:      Singlet-A      1.8547 eV  668.47 nm  f=0.3745  <S**2>=0.000
     245 -> 248        0.18023
     246 -> 247        0.69079
     246 <- 247       -0.10690
 This state for optimization and/or second-order correction.
 Total Energy, E(TD-HF/TD-DFT) =  -3005.29151955
 Copying the excited state density for this state as the 1-particle RhoCI density.

 Excited State   2:      Singlet-A      2.1950 eV  564.85 nm  f=0.1171  <S**2>=0.000
     245 -> 247        0.65507
     246 -> 248       -0.24390

 Excited State   3:      Singlet-A      2.9007 eV  427.43 nm  f=0.0065  <S**2>=0.000
     242 -> 247        0.20988
     244 -> 247        0.65236
     246 -> 248        0.10705

 Excited State   4:      Singlet-A      2.9915 eV  414.46 nm  f=0.0027  <S**2>=0.000
     242 -> 247        0.64035
     242 -> 249       -0.15767
     244 -> 247       -0.22089

 Excited State   5:      Singlet-A      3.1486 eV  393.78 nm  f=0.0000  <S**2>=0.000
     241 -> 247        0.66513
     241 -> 248        0.10697
     241 -> 249        0.16267
     241 -> 250        0.11116

 The electronic state is 1-A.
 Alpha  occ. eigenvalues --  -46.92143 -19.26334 -19.25239 -19.22012 -19.20423
 Alpha  occ. eigenvalues --  -19.19324 -19.19049 -14.41079 -14.40586 -14.39534
 Alpha  occ. eigenvalues --  -14.38653 -10.37795 -10.36413 -10.32828 -10.32128
 Alpha  occ. eigenvalues --  -10.29793 -10.29050 -10.28981 -10.28318 -10.27983
 Alpha  occ. eigenvalues --  -10.27804 -10.27773 -10.27637 -10.27229 -10.26629
 Alpha  occ. eigenvalues --  -10.26571 -10.26506 -10.25990 -10.25924 -10.25495
 Alpha  occ. eigenvalues --  -10.25246 -10.25168 -10.25124 -10.24967 -10.24835
 Alpha  occ. eigenvalues --  -10.24779 -10.24757 -10.24704 -10.24321 -10.24168
 Alpha  occ. eigenvalues --  -10.23916 -10.23807 -10.23803 -10.23620 -10.23582
 Alpha  occ. eigenvalues --  -10.23566 -10.23517 -10.23410 -10.23301 -10.23299
 Alpha  occ. eigenvalues --  -10.23151 -10.22939 -10.22863 -10.22679 -10.22648
 Alpha  occ. eigenvalues --  -10.22626 -10.22613 -10.22391 -10.22263 -10.22182
 Alpha  occ. eigenvalues --  -10.21998 -10.21994 -10.21986 -10.21909 -10.21605
 Alpha  occ. eigenvalues --  -10.21584  -3.14343  -1.87140  -1.86732  -1.86585
 Alpha  occ. eigenvalues --   -1.12322  -1.09455  -1.04553  -1.04110  -1.03352
 Alpha  occ. eigenvalues --   -1.02111  -0.98551  -0.97624  -0.97096  -0.95565
 Alpha  occ. eigenvalues --   -0.86639  -0.84797  -0.84268  -0.83682  -0.83000
 Alpha  occ. eigenvalues --   -0.82722  -0.82648  -0.82083  -0.81746  -0.81146
 Alpha  occ. eigenvalues --   -0.80089  -0.79256  -0.78716  -0.77725  -0.77477
 Alpha  occ. eigenvalues --   -0.76798  -0.76048  -0.75420  -0.75020  -0.74444
 Alpha  occ. eigenvalues --   -0.73960  -0.72997  -0.71833  -0.71559  -0.70193
 Alpha  occ. eigenvalues --   -0.69979  -0.69353  -0.69116  -0.68829  -0.68541
 Alpha  occ. eigenvalues --   -0.67406  -0.66877  -0.65804  -0.64570  -0.63571
 Alpha  occ. eigenvalues --   -0.63097  -0.62285  -0.61880  -0.60656  -0.59894
 Alpha  occ. eigenvalues --   -0.59431  -0.59236  -0.58940  -0.58779  -0.58604
 Alpha  occ. eigenvalues --   -0.58199  -0.57895  -0.57523  -0.55812  -0.54640
 Alpha  occ. eigenvalues --   -0.54459  -0.53981  -0.53314  -0.52517  -0.52121
 Alpha  occ. eigenvalues --   -0.51854  -0.50917  -0.50737  -0.50393  -0.50224
 Alpha  occ. eigenvalues --   -0.49817  -0.49483  -0.49168  -0.48575  -0.48296
 Alpha  occ. eigenvalues --   -0.47986  -0.47798  -0.47623  -0.47498  -0.47472
 Alpha  occ. eigenvalues --   -0.47377  -0.47090  -0.47019  -0.46639  -0.46452
 Alpha  occ. eigenvalues --   -0.46218  -0.45736  -0.45380  -0.45255  -0.45088
 Alpha  occ. eigenvalues --   -0.44796  -0.44475  -0.44344  -0.44309  -0.44184
 Alpha  occ. eigenvalues --   -0.44160  -0.43783  -0.43666  -0.43589  -0.43443
 Alpha  occ. eigenvalues --   -0.43221  -0.43196  -0.42997  -0.42921  -0.42796
 Alpha  occ. eigenvalues --   -0.42240  -0.42097  -0.42053  -0.41825  -0.41503
 Alpha  occ. eigenvalues --   -0.41004  -0.40655  -0.40559  -0.40331  -0.40254
 Alpha  occ. eigenvalues --   -0.40179  -0.40012  -0.39859  -0.39632  -0.39576
 Alpha  occ. eigenvalues --   -0.39300  -0.39253  -0.38940  -0.38809  -0.38794
 Alpha  occ. eigenvalues --   -0.38565  -0.38262  -0.38152  -0.37864  -0.37695
 Alpha  occ. eigenvalues --   -0.37644  -0.37207  -0.36994  -0.36824  -0.36463
 Alpha  occ. eigenvalues --   -0.36136  -0.36111  -0.36077  -0.36006  -0.35957
 Alpha  occ. eigenvalues --   -0.35690  -0.35575  -0.35455  -0.35175  -0.34936
 Alpha  occ. eigenvalues --   -0.34410  -0.34212  -0.34131  -0.34066  -0.33856
 Alpha  occ. eigenvalues --   -0.33463  -0.33019  -0.32822  -0.32772  -0.32664
 Alpha  occ. eigenvalues --   -0.32263  -0.32146  -0.31783  -0.31398  -0.31186
 Alpha  occ. eigenvalues --   -0.31074  -0.30461  -0.29938  -0.29869  -0.29437
 Alpha  occ. eigenvalues --   -0.29193  -0.28554  -0.28061  -0.27069  -0.26324
 Alpha  occ. eigenvalues --   -0.25836  -0.25738  -0.25203  -0.24664  -0.20815
 Alpha  occ. eigenvalues --   -0.18790
 Alpha virt. eigenvalues --   -0.11217  -0.05222  -0.04217  -0.02398  -0.00511
 Alpha virt. eigenvalues --   -0.00311  -0.00074   0.01057   0.01671   0.03373
 Alpha virt. eigenvalues --    0.03447   0.04448   0.05063   0.05807   0.05876

 Mulliken charges:
               1
     1  Mg   0.980059
     2  C    0.004477
     3  C   -0.054129
     4  C   -0.030373
     5  C   -0.092422
     6  N   -0.390926
     7  C    0.029250
     8  C   -0.117694
     9  C   -0.154029
    10  C    0.086871
    11  C    0.010032
    12  C    0.032065
    13  C   -0.061613
    14  C    0.232068
    15  O   -0.225285
    16  O   -0.374506
    17  N   -0.603419
    18  C    0.173557
    19  C   -0.163584
    20  C   -0.065644
    21  C    0.172986
    22  C    0.058436
    23  C    0.062766
    24  O   -0.257261
    25  C   -0.030092
    26  N   -0.364897
    27  C    0.050931
    28  C   -0.148198
    29  C   -0.096070
    30  C    0.145457
    31  C    0.027228
    32  C   -0.067586
    33  C   -0.048091
    34  N   -0.439342
    35  C    0.119291
    36  C   -0.179703
    37  C   -0.025758
    38  C    0.151268
    39  C    0.068187
    40  C    0.118973
    41  O   -0.214174
    42  C   -0.113415
    43  C    0.287196
    44  O   -0.233053
    45  O   -0.396384
    46  C    0.118416
    47  C    0.240546
    48  C   -0.130187
    49  C   -0.226019
    50  C   -0.001595
    51  C   -0.002857
    52  C   -0.027585
    53  C    0.003025
    54  C   -0.238445
    55  C   -0.026530
    56  C    0.052049
    57  C   -0.108402
    58  C    0.017807
    59  C   -0.192337
    60  C   -0.030376
    61  C   -0.009705
    62  C   -0.038024
    63  C   -0.002266
    64  C   -0.254931
    65  C   -0.018337
    66  C   -0.019243
    67  H   -0.006301
    68  H    0.030415
    69  H    0.001590
    70  H    0.086197
    71  H    0.035990
    72  H    0.072075
    73  H    0.051710
    74  H    0.039162
    75  H    0.046635
    76  H    0.050291
    77  H    0.052951
    78  H    0.075755
    79  H    0.032091
    80  H    0.046150
    81  H    0.064393
    82  H    0.066667
    83  H    0.057398
    84  H    0.045346
    85  H    0.051457
    86  H    0.049500
    87  H    0.054239
    88  H    0.054148
    89  H    0.030726
    90  H    0.036425
    91  H    0.030899
    92  H    0.042103
    93  H    0.058399
    94  H    0.045000
    95  H    0.066629
    96  H    0.041016
    97  H    0.071728
    98  H    0.072262
    99  H    0.063442
   100  H    0.062723
   101  H    0.055352
   102  H    0.059998
   103  H    0.054886
   104  H    0.029060
   105  H    0.065324
   106  H    0.037268
   107  H    0.047613
   108  H    0.032676
   109  H    0.026400
   110  H    0.040389
   111  H    0.038575
   112  H    0.024787
   113  H    0.018189
   114  H    0.043848
   115  H    0.031863
   116  H    0.032313
   117  H    0.034862
   118  H    0.024539
   119  H    0.021837
   120  H    0.026307
   121  H    0.029325
   122  H    0.031768
   123  H    0.029150
   124  H    0.035542
   125  H    0.037198
   126  H    0.038166
   127  H    0.035280
   128  H    0.014923
   129  H    0.023343
   130  H    0.021900
   131  H    0.023132
   132  H    0.037433
   133  H    0.025081
   134  H    0.039191
   135  H    0.027204
   136  H    0.033005
   137  H    0.027913
   138  H    0.027915
   139  H    0.021104
   140  H    0.047677
 Sum of Mulliken charges =  -0.00000

 Dipole moment (field-independent basis, Debye):
    X=              4.0736    Y=              3.0505    Z=             -1.7351  Tot=              5.3768
 Quadrupole moment (field-independent basis, Debye-Ang):
   XX=           -368.8224   YY=           -417.8899   ZZ=           -404.9852
   XY=             13.2401   XZ=             11.9823   YZ=              0.6349

 Normal termination of Gaussian 16 at Thu Apr 28 16:35:06 2022.
