 Gaussian 16, Revision A.03,
 Gaussian 16:  ES64L-G16RevA.03 25-Dec-2016

 --------------------------------
 #p wB97XD/Def2SVP td=(nstates=5)
 --------------------------------

 -----------------------------------------------------
 step_1651_chromophore_19 TDDFT with wB97XD functional
 -----------------------------------------------------
 Symbolic Z-matrix:
 Charge =  0 Multiplicity = 1

                         Standard orientation:
 ---------------------------------------------------------------------
 Center     Atomic      Atomic             Coordinates (Angstroms)
 Number     Number       Type             X           Y           Z
 ---------------------------------------------------------------------
      1         12           0       -5.913166    0.461741   -0.165129
      2          6           0       -3.529445   -2.150081   -0.459866
      3          6           0       -3.483615    2.597406    0.605280
      4          6           0       -8.398608    2.550190    0.181482
      5          6           0       -8.424499   -2.320019   -0.206196
      6          7           0       -3.716208    0.223137    0.201502
      7          6           0       -2.986960   -0.878826   -0.187216
      8          6           0       -1.476430   -0.527286   -0.052848
      9          6           0       -1.582027    0.934780    0.547529
     10          6           0       -2.991314    1.306175    0.549990
     11          6           0       -0.936376    1.223795    1.954032
     12          6           0       -0.650020   -0.705265   -1.357775
     13          6           0        0.678749   -1.484520   -1.159457
     14          6           0        1.703104   -0.937257   -0.009300
     15          8           0        1.526683   -1.012577    1.165712
     16          8           0        2.845652   -0.405740   -0.600168
     17          7           0       -5.865087    2.282940    0.317934
     18          6           0       -4.805630    3.135577    0.426290
     19          6           0       -5.269755    4.481810    0.534701
     20          6           0       -6.646640    4.473348    0.429991
     21          6           0       -7.028419    3.047764    0.349756
     22          6           0       -4.303754    5.521049    0.557175
     23          6           0       -7.570644    5.686170    0.432069
     24          8           0       -8.815217    5.668652    0.320998
     25          6           0       -6.964791    7.076532    0.721480
     26          7           0       -8.150876    0.092958    0.141349
     27          6           0       -8.876223    1.257217    0.126838
     28          6           0      -10.391794    0.893660    0.269569
     29          6           0      -10.327830   -0.721336    0.145109
     30          6           0       -8.899289   -1.029567   -0.072156
     31          6           0      -10.974010    1.481898    1.539361
     32          6           0      -11.305573   -1.222899   -0.937692
     33          6           0      -11.250988   -0.676104   -2.365523
     34          7           0       -6.061402   -1.764176   -0.328729
     35          6           0       -7.096785   -2.708390   -0.373617
     36          6           0       -6.576706   -4.066223   -0.511499
     37          6           0       -5.120765   -3.907430   -0.594245
     38          6           0       -4.886311   -2.495100   -0.492454
     39          6           0       -7.374384   -5.345206   -0.523229
     40          6           0       -3.885476   -4.589800   -0.729669
     41          8           0       -3.729536   -5.806444   -0.745975
     42          6           0       -2.748063   -3.475255   -0.663196
     43          6           0       -1.780477   -3.803846    0.414958
     44          8           0       -1.942798   -3.549516    1.595323
     45          8           0       -0.810278   -4.705258   -0.097113
     46          6           0        0.220386   -5.167085    0.859771
     47          6           0        3.963650   -0.211832    0.330581
     48          6           0        5.293283   -0.150649   -0.403941
     49          6           0        6.511979   -0.099778    0.156432
     50          6           0        6.808810    0.122235    1.660495
     51          6           0        7.721998   -0.044032   -0.727760
     52          6           0        8.004327    1.381807   -1.259176
     53          6           0        8.539878    1.475079   -2.701787
     54          6           0        9.804541    2.445766   -2.909382
     55          6           0        9.372272    3.501803   -4.026673
     56          6           0       11.116593    1.679791   -3.236451
     57          6           0       11.956059    1.458792   -2.014359
     58          6           0       12.771943    0.096823   -1.968307
     59          6           0       13.801845    0.098799   -0.829888
     60          6           0       15.178421   -0.394499   -1.384468
     61          6           0       13.359549   -0.829253    0.377675
     62          6           0       13.489101   -0.145344    1.668872
     63          6           0       12.111960    0.112378    2.273847
     64          6           0       11.939402   -0.268911    3.797531
     65          6           0       11.152947   -1.584107    3.934055
     66          6           0       11.269404    0.847377    4.681258
     67          1           0       -2.659173    3.308426    0.689295
     68          1           0       -9.217604    3.270598    0.241313
     69          1           0       -9.084060   -3.190758   -0.196162
     70          1           0       -1.029302   -1.189561    0.689035
     71          1           0       -1.083723    1.618442   -0.140193
     72          1           0       -0.248335    0.420411    2.217339
     73          1           0       -1.712924    1.276576    2.717450
     74          1           0       -0.452323    2.185933    1.785136
     75          1           0       -0.355321    0.266597   -1.750828
     76          1           0       -1.306886   -1.241428   -2.042827
     77          1           0        1.142907   -1.442594   -2.144802
     78          1           0        0.575047   -2.549395   -0.948037
     79          1           0       -3.273575    5.179628    0.652792
     80          1           0       -4.500782    6.112541    1.450395
     81          1           0       -4.323776    6.115307   -0.356184
     82          1           0       -6.374041    7.117590    1.636187
     83          1           0       -7.796519    7.777572    0.639788
     84          1           0       -6.292573    7.369696   -0.084858
     85          1           0      -10.962193    1.310246   -0.560383
     86          1           0      -10.589008   -1.239675    1.067624
     87          1           0      -11.620776    2.327687    1.308614
     88          1           0      -10.180647    1.724253    2.246740
     89          1           0      -11.537426    0.691325    2.033600
     90          1           0      -12.266511   -1.017620   -0.464651
     91          1           0      -11.200913   -2.305897   -1.001528
     92          1           0      -10.844003   -1.459559   -3.004016
     93          1           0      -10.637874    0.224578   -2.324566
     94          1           0      -12.270298   -0.547866   -2.729672
     95          1           0       -6.780841   -6.071113   -1.077496
     96          1           0       -8.283169   -5.177862   -1.101228
     97          1           0       -7.642753   -5.658689    0.486260
     98          1           0       -2.187458   -3.457080   -1.597398
     99          1           0       -0.204523   -5.300512    1.854977
    100          1           0        1.142299   -4.586312    0.893665
    101          1           0        0.426740   -6.203242    0.590639
    102          1           0        4.053154   -1.021220    1.054748
    103          1           0        3.807938    0.691359    0.920682
    104          1           0        5.259066   -0.251738   -1.488920
    105          1           0        7.076318   -0.851436    2.069940
    106          1           0        6.027359    0.578526    2.266998
    107          1           0        7.599381    0.861977    1.784808
    108          1           0        7.650215   -0.698525   -1.596052
    109          1           0        8.531479   -0.434325   -0.111254
    110          1           0        8.720591    1.848735   -0.581361
    111          1           0        7.015313    1.836608   -1.311120
    112          1           0        7.709065    1.756645   -3.349556
    113          1           0        8.769710    0.489251   -3.105227
    114          1           0       10.005641    3.043530   -2.019713
    115          1           0        9.942104    3.418397   -4.952438
    116          1           0        9.587658    4.505228   -3.657612
    117          1           0        8.315621    3.434106   -4.284595
    118          1           0       11.727543    2.221390   -3.959868
    119          1           0       10.913935    0.713292   -3.697067
    120          1           0       11.304895    1.489848   -1.140194
    121          1           0       12.601131    2.324901   -1.868000
    122          1           0       13.192510   -0.074710   -2.958907
    123          1           0       12.022897   -0.662685   -1.745940
    124          1           0       14.008166    1.072800   -0.385834
    125          1           0       15.833366   -0.567862   -0.531435
    126          1           0       15.662143    0.261617   -2.107695
    127          1           0       14.941882   -1.294285   -1.952775
    128          1           0       14.055410   -1.666141    0.434446
    129          1           0       12.417597   -1.364742    0.258184
    130          1           0       13.971697    0.827813    1.577703
    131          1           0       14.167349   -0.627115    2.373235
    132          1           0       11.402063   -0.391759    1.617779
    133          1           0       11.973464    1.193439    2.258560
    134          1           0       12.863300   -0.528081    4.315060
    135          1           0       10.464645   -1.507849    4.774717
    136          1           0       11.801676   -2.429099    4.166926
    137          1           0       10.600314   -1.837676    3.029091
    138          1           0       10.239844    0.560080    4.891376
    139          1           0       11.169418    1.740561    4.063854
    140          1           0       11.783814    1.094313    5.610390
 ---------------------------------------------------------------------

 SCF Done:  E(RwB97XD) =  -3007.86882851     A.U. after   20 cycles

 Excitation energies and oscillator strengths:

 Excited State   1:      Singlet-A      1.6331 eV  759.21 nm  f=0.3869  <S**2>=0.000
     245 -> 248        0.19518
     246 -> 247        0.68109
     245 <- 248        0.12037
 This state for optimization and/or second-order correction.
 Total Energy, E(TD-HF/TD-DFT) =  -3007.80881429
 Copying the excited state density for this state as the 1-particle RhoCI density.

 Excited State   2:      Singlet-A      2.1358 eV  580.51 nm  f=0.1213  <S**2>=0.000
     245 -> 247        0.64303
     246 -> 248       -0.27586

 Excited State   3:      Singlet-A      3.2079 eV  386.50 nm  f=0.0002  <S**2>=0.000
     244 -> 247        0.66874
     246 -> 248        0.16359

 Excited State   4:      Singlet-A      3.4369 eV  360.74 nm  f=0.0091  <S**2>=0.000
     240 -> 247        0.43325
     240 -> 249       -0.23510
     240 -> 250       -0.12486
     241 -> 247        0.36875
     241 -> 249       -0.20365
     241 -> 250       -0.11146
     242 -> 247        0.10319

 Excited State   5:      Singlet-A      3.5579 eV  348.47 nm  f=0.7261  <S**2>=0.000
     242 -> 247        0.12386
     244 -> 247       -0.12592
     245 -> 247        0.27749
     246 -> 248        0.60958
     245 <- 247       -0.11711

 The electronic state is 1-A.
 Alpha  occ. eigenvalues --  -46.95083 -19.30888 -19.29889 -19.26697 -19.25252
 Alpha  occ. eigenvalues --  -19.24033 -19.24006 -14.46189 -14.45617 -14.44428
 Alpha  occ. eigenvalues --  -14.43632 -10.44579 -10.43368 -10.39567 -10.39144
 Alpha  occ. eigenvalues --  -10.36289 -10.35358 -10.35279 -10.34887 -10.34199
 Alpha  occ. eigenvalues --  -10.34163 -10.33990 -10.33801 -10.33668 -10.33196
 Alpha  occ. eigenvalues --  -10.33069 -10.33036 -10.32454 -10.32321 -10.31896
 Alpha  occ. eigenvalues --  -10.31532 -10.31507 -10.31297 -10.31202 -10.31135
 Alpha  occ. eigenvalues --  -10.31113 -10.31032 -10.30897 -10.30584 -10.30467
 Alpha  occ. eigenvalues --  -10.30367 -10.30225 -10.30219 -10.30140 -10.29913
 Alpha  occ. eigenvalues --  -10.29876 -10.29837 -10.29814 -10.29752 -10.29714
 Alpha  occ. eigenvalues --  -10.29526 -10.29314 -10.29209 -10.29051 -10.29025
 Alpha  occ. eigenvalues --  -10.28973 -10.28936 -10.28727 -10.28648 -10.28561
 Alpha  occ. eigenvalues --  -10.28437 -10.28402 -10.28397 -10.28248 -10.27997
 Alpha  occ. eigenvalues --  -10.27960  -3.21159  -1.94702  -1.94293  -1.94143
 Alpha  occ. eigenvalues --   -1.19689  -1.16971  -1.11886  -1.11734  -1.10756
 Alpha  occ. eigenvalues --   -1.09579  -1.05886  -1.04981  -1.04480  -1.03026
 Alpha  occ. eigenvalues --   -0.94359  -0.92474  -0.91922  -0.91251  -0.90675
 Alpha  occ. eigenvalues --   -0.90315  -0.90288  -0.89651  -0.89307  -0.88809
 Alpha  occ. eigenvalues --   -0.87805  -0.86899  -0.86351  -0.85382  -0.85120
 Alpha  occ. eigenvalues --   -0.84432  -0.83696  -0.83087  -0.82688  -0.82100
 Alpha  occ. eigenvalues --   -0.81640  -0.80618  -0.79464  -0.79183  -0.77875
 Alpha  occ. eigenvalues --   -0.77662  -0.77047  -0.76661  -0.76512  -0.76193
 Alpha  occ. eigenvalues --   -0.75005  -0.74464  -0.73318  -0.72186  -0.71141
 Alpha  occ. eigenvalues --   -0.70668  -0.69919  -0.69377  -0.68286  -0.67394
 Alpha  occ. eigenvalues --   -0.67064  -0.66700  -0.66480  -0.66378  -0.66091
 Alpha  occ. eigenvalues --   -0.65674  -0.65543  -0.65160  -0.63278  -0.61994
 Alpha  occ. eigenvalues --   -0.61941  -0.61425  -0.60797  -0.59923  -0.59681
 Alpha  occ. eigenvalues --   -0.59326  -0.58307  -0.58237  -0.57762  -0.57710
 Alpha  occ. eigenvalues --   -0.57230  -0.56872  -0.56616  -0.56038  -0.55713
 Alpha  occ. eigenvalues --   -0.55382  -0.55235  -0.55053  -0.54891  -0.54856
 Alpha  occ. eigenvalues --   -0.54779  -0.54439  -0.54292  -0.54000  -0.53787
 Alpha  occ. eigenvalues --   -0.53589  -0.53034  -0.52777  -0.52738  -0.52445
 Alpha  occ. eigenvalues --   -0.52130  -0.51822  -0.51700  -0.51659  -0.51487
 Alpha  occ. eigenvalues --   -0.51467  -0.51107  -0.50981  -0.50899  -0.50687
 Alpha  occ. eigenvalues --   -0.50578  -0.50505  -0.50310  -0.50223  -0.50106
 Alpha  occ. eigenvalues --   -0.49491  -0.49376  -0.49316  -0.49051  -0.48737
 Alpha  occ. eigenvalues --   -0.48221  -0.47814  -0.47766  -0.47586  -0.47516
 Alpha  occ. eigenvalues --   -0.47427  -0.47251  -0.47087  -0.46866  -0.46786
 Alpha  occ. eigenvalues --   -0.46481  -0.46372  -0.45993  -0.45978  -0.45917
 Alpha  occ. eigenvalues --   -0.45754  -0.45558  -0.45267  -0.44966  -0.44823
 Alpha  occ. eigenvalues --   -0.44746  -0.44263  -0.44043  -0.43947  -0.43632
 Alpha  occ. eigenvalues --   -0.43333  -0.43241  -0.43173  -0.43072  -0.42995
 Alpha  occ. eigenvalues --   -0.42748  -0.42564  -0.42471  -0.42153  -0.41979
 Alpha  occ. eigenvalues --   -0.41508  -0.41270  -0.41140  -0.41128  -0.40758
 Alpha  occ. eigenvalues --   -0.40517  -0.40099  -0.39847  -0.39771  -0.39724
 Alpha  occ. eigenvalues --   -0.39179  -0.39126  -0.38861  -0.38548  -0.38204
 Alpha  occ. eigenvalues --   -0.38033  -0.37395  -0.36855  -0.36831  -0.36387
 Alpha  occ. eigenvalues --   -0.36328  -0.35256  -0.34825  -0.33580  -0.32946
 Alpha  occ. eigenvalues --   -0.32926  -0.32826  -0.31965  -0.31250  -0.25766
 Alpha  occ. eigenvalues --   -0.22942
 Alpha virt. eigenvalues --   -0.07159   0.00232   0.02020   0.04026   0.05409
 Alpha virt. eigenvalues --    0.06330   0.06747   0.07782   0.08450   0.09981
 Alpha virt. eigenvalues --    0.10094   0.10784   0.11856   0.12585   0.12619

 Mulliken charges:
               1
     1  Mg   0.970740
     2  C    0.002052
     3  C   -0.067281
     4  C   -0.046971
     5  C   -0.112216
     6  N   -0.353971
     7  C   -0.001209
     8  C   -0.090774
     9  C   -0.127112
    10  C    0.071621
    11  C    0.022587
    12  C    0.041723
    13  C   -0.034861
    14  C    0.218394
    15  O   -0.221877
    16  O   -0.373879
    17  N   -0.572076
    18  C    0.159391
    19  C   -0.145208
    20  C   -0.063887
    21  C    0.163486
    22  C    0.069292
    23  C    0.056108
    24  O   -0.252306
    25  C   -0.015419
    26  N   -0.333747
    27  C    0.040055
    28  C   -0.123505
    29  C   -0.068653
    30  C    0.130368
    31  C    0.037319
    32  C   -0.052494
    33  C   -0.030919
    34  N   -0.406472
    35  C    0.115948
    36  C   -0.177627
    37  C   -0.023275
    38  C    0.140117
    39  C    0.079591
    40  C    0.102322
    41  O   -0.203330
    42  C   -0.076785
    43  C    0.264312
    44  O   -0.226116
    45  O   -0.394809
    46  C    0.133410
    47  C    0.252763
    48  C   -0.141881
    49  C   -0.209169
    50  C    0.011345
    51  C    0.016305
    52  C   -0.007577
    53  C    0.015340
    54  C   -0.208582
    55  C   -0.012638
    56  C    0.062740
    57  C   -0.086106
    58  C    0.032796
    59  C   -0.163535
    60  C   -0.014466
    61  C    0.005133
    62  C   -0.025440
    63  C    0.020311
    64  C   -0.229933
    65  C   -0.006012
    66  C   -0.004040
    67  H   -0.015090
    68  H    0.024981
    69  H   -0.005392
    70  H    0.067555
    71  H    0.023592
    72  H    0.064927
    73  H    0.045747
    74  H    0.033516
    75  H    0.040157
    76  H    0.040878
    77  H    0.048774
    78  H    0.061918
    79  H    0.027871
    80  H    0.038900
    81  H    0.058910
    82  H    0.060942
    83  H    0.055688
    84  H    0.038560
    85  H    0.040367
    86  H    0.040218
    87  H    0.049947
    88  H    0.047487
    89  H    0.023830
    90  H    0.027601
    91  H    0.021949
    92  H    0.036356
    93  H    0.049208
    94  H    0.040253
    95  H    0.063511
    96  H    0.035611
    97  H    0.068443
    98  H    0.064944
    99  H    0.059514
   100  H    0.059807
   101  H    0.051695
   102  H    0.054148
   103  H    0.049952
   104  H    0.026677
   105  H    0.059959
   106  H    0.032557
   107  H    0.041656
   108  H    0.024109
   109  H    0.017596
   110  H    0.030626
   111  H    0.028056
   112  H    0.016518
   113  H    0.007925
   114  H    0.030874
   115  H    0.025629
   116  H    0.026767
   117  H    0.028240
   118  H    0.017027
   119  H    0.012168
   120  H    0.010260
   121  H    0.020845
   122  H    0.023728
   123  H    0.018499
   124  H    0.021299
   125  H    0.030403
   126  H    0.032724
   127  H    0.027191
   128  H    0.006380
   129  H    0.014125
   130  H    0.013015
   131  H    0.015579
   132  H    0.023276
   133  H    0.014931
   134  H    0.028527
   135  H    0.020264
   136  H    0.027466
   137  H    0.021015
   138  H    0.020508
   139  H    0.013750
   140  H    0.043142
 Sum of Mulliken charges =  -0.00000

 Dipole moment (field-independent basis, Debye):
    X=              4.1987    Y=              2.8477    Z=             -1.8339  Tot=              5.3946
 Quadrupole moment (field-independent basis, Debye-Ang):
   XX=           -370.4572   YY=           -416.1826   ZZ=           -404.6043
   XY=             13.9839   XZ=             12.3018   YZ=              0.7476

 Normal termination of Gaussian 16 at Thu Apr 28 16:57:47 2022.
