 Gaussian 16, Revision A.03,
 Gaussian 16:  ES64L-G16RevA.03 25-Dec-2016

 --------------------
 #p ZINDO=(nstates=5)
 --------------------

 ------------------------------
 step_1651_chromophore_19 ZINDO
 ------------------------------
 Symbolic Z-matrix:
 Charge =  0 Multiplicity = 1

                         Standard orientation:
 ---------------------------------------------------------------------
 Center     Atomic      Atomic             Coordinates (Angstroms)
 Number     Number       Type             X           Y           Z
 ---------------------------------------------------------------------
      1         12           0       -5.913166    0.461741   -0.165129
      2          6           0       -3.529445   -2.150081   -0.459866
      3          6           0       -3.483615    2.597406    0.605280
      4          6           0       -8.398608    2.550190    0.181482
      5          6           0       -8.424499   -2.320019   -0.206196
      6          7           0       -3.716208    0.223137    0.201502
      7          6           0       -2.986960   -0.878826   -0.187216
      8          6           0       -1.476430   -0.527286   -0.052848
      9          6           0       -1.582027    0.934780    0.547529
     10          6           0       -2.991314    1.306175    0.549990
     11          6           0       -0.936376    1.223795    1.954032
     12          6           0       -0.650020   -0.705265   -1.357775
     13          6           0        0.678749   -1.484520   -1.159457
     14          6           0        1.703104   -0.937257   -0.009300
     15          8           0        1.526683   -1.012577    1.165712
     16          8           0        2.845652   -0.405740   -0.600168
     17          7           0       -5.865087    2.282940    0.317934
     18          6           0       -4.805630    3.135577    0.426290
     19          6           0       -5.269755    4.481810    0.534701
     20          6           0       -6.646640    4.473348    0.429991
     21          6           0       -7.028419    3.047764    0.349756
     22          6           0       -4.303754    5.521049    0.557175
     23          6           0       -7.570644    5.686170    0.432069
     24          8           0       -8.815217    5.668652    0.320998
     25          6           0       -6.964791    7.076532    0.721480
     26          7           0       -8.150876    0.092958    0.141349
     27          6           0       -8.876223    1.257217    0.126838
     28          6           0      -10.391794    0.893660    0.269569
     29          6           0      -10.327830   -0.721336    0.145109
     30          6           0       -8.899289   -1.029567   -0.072156
     31          6           0      -10.974010    1.481898    1.539361
     32          6           0      -11.305573   -1.222899   -0.937692
     33          6           0      -11.250988   -0.676104   -2.365523
     34          7           0       -6.061402   -1.764176   -0.328729
     35          6           0       -7.096785   -2.708390   -0.373617
     36          6           0       -6.576706   -4.066223   -0.511499
     37          6           0       -5.120765   -3.907430   -0.594245
     38          6           0       -4.886311   -2.495100   -0.492454
     39          6           0       -7.374384   -5.345206   -0.523229
     40          6           0       -3.885476   -4.589800   -0.729669
     41          8           0       -3.729536   -5.806444   -0.745975
     42          6           0       -2.748063   -3.475255   -0.663196
     43          6           0       -1.780477   -3.803846    0.414958
     44          8           0       -1.942798   -3.549516    1.595323
     45          8           0       -0.810278   -4.705258   -0.097113
     46          6           0        0.220386   -5.167085    0.859771
     47          6           0        3.963650   -0.211832    0.330581
     48          6           0        5.293283   -0.150649   -0.403941
     49          6           0        6.511979   -0.099778    0.156432
     50          6           0        6.808810    0.122235    1.660495
     51          6           0        7.721998   -0.044032   -0.727760
     52          6           0        8.004327    1.381807   -1.259176
     53          6           0        8.539878    1.475079   -2.701787
     54          6           0        9.804541    2.445766   -2.909382
     55          6           0        9.372272    3.501803   -4.026673
     56          6           0       11.116593    1.679791   -3.236451
     57          6           0       11.956059    1.458792   -2.014359
     58          6           0       12.771943    0.096823   -1.968307
     59          6           0       13.801845    0.098799   -0.829888
     60          6           0       15.178421   -0.394499   -1.384468
     61          6           0       13.359549   -0.829253    0.377675
     62          6           0       13.489101   -0.145344    1.668872
     63          6           0       12.111960    0.112378    2.273847
     64          6           0       11.939402   -0.268911    3.797531
     65          6           0       11.152947   -1.584107    3.934055
     66          6           0       11.269404    0.847377    4.681258
     67          1           0       -2.659173    3.308426    0.689295
     68          1           0       -9.217604    3.270598    0.241313
     69          1           0       -9.084060   -3.190758   -0.196162
     70          1           0       -1.029302   -1.189561    0.689035
     71          1           0       -1.083723    1.618442   -0.140193
     72          1           0       -0.248335    0.420411    2.217339
     73          1           0       -1.712924    1.276576    2.717450
     74          1           0       -0.452323    2.185933    1.785136
     75          1           0       -0.355321    0.266597   -1.750828
     76          1           0       -1.306886   -1.241428   -2.042827
     77          1           0        1.142907   -1.442594   -2.144802
     78          1           0        0.575047   -2.549395   -0.948037
     79          1           0       -3.273575    5.179628    0.652792
     80          1           0       -4.500782    6.112541    1.450395
     81          1           0       -4.323776    6.115307   -0.356184
     82          1           0       -6.374041    7.117590    1.636187
     83          1           0       -7.796519    7.777572    0.639788
     84          1           0       -6.292573    7.369696   -0.084858
     85          1           0      -10.962193    1.310246   -0.560383
     86          1           0      -10.589008   -1.239675    1.067624
     87          1           0      -11.620776    2.327687    1.308614
     88          1           0      -10.180647    1.724253    2.246740
     89          1           0      -11.537426    0.691325    2.033600
     90          1           0      -12.266511   -1.017620   -0.464651
     91          1           0      -11.200913   -2.305897   -1.001528
     92          1           0      -10.844003   -1.459559   -3.004016
     93          1           0      -10.637874    0.224578   -2.324566
     94          1           0      -12.270298   -0.547866   -2.729672
     95          1           0       -6.780841   -6.071113   -1.077496
     96          1           0       -8.283169   -5.177862   -1.101228
     97          1           0       -7.642753   -5.658689    0.486260
     98          1           0       -2.187458   -3.457080   -1.597398
     99          1           0       -0.204523   -5.300512    1.854977
    100          1           0        1.142299   -4.586312    0.893665
    101          1           0        0.426740   -6.203242    0.590639
    102          1           0        4.053154   -1.021220    1.054748
    103          1           0        3.807938    0.691359    0.920682
    104          1           0        5.259066   -0.251738   -1.488920
    105          1           0        7.076318   -0.851436    2.069940
    106          1           0        6.027359    0.578526    2.266998
    107          1           0        7.599381    0.861977    1.784808
    108          1           0        7.650215   -0.698525   -1.596052
    109          1           0        8.531479   -0.434325   -0.111254
    110          1           0        8.720591    1.848735   -0.581361
    111          1           0        7.015313    1.836608   -1.311120
    112          1           0        7.709065    1.756645   -3.349556
    113          1           0        8.769710    0.489251   -3.105227
    114          1           0       10.005641    3.043530   -2.019713
    115          1           0        9.942104    3.418397   -4.952438
    116          1           0        9.587658    4.505228   -3.657612
    117          1           0        8.315621    3.434106   -4.284595
    118          1           0       11.727543    2.221390   -3.959868
    119          1           0       10.913935    0.713292   -3.697067
    120          1           0       11.304895    1.489848   -1.140194
    121          1           0       12.601131    2.324901   -1.868000
    122          1           0       13.192510   -0.074710   -2.958907
    123          1           0       12.022897   -0.662685   -1.745940
    124          1           0       14.008166    1.072800   -0.385834
    125          1           0       15.833366   -0.567862   -0.531435
    126          1           0       15.662143    0.261617   -2.107695
    127          1           0       14.941882   -1.294285   -1.952775
    128          1           0       14.055410   -1.666141    0.434446
    129          1           0       12.417597   -1.364742    0.258184
    130          1           0       13.971697    0.827813    1.577703
    131          1           0       14.167349   -0.627115    2.373235
    132          1           0       11.402063   -0.391759    1.617779
    133          1           0       11.973464    1.193439    2.258560
    134          1           0       12.863300   -0.528081    4.315060
    135          1           0       10.464645   -1.507849    4.774717
    136          1           0       11.801676   -2.429099    4.166926
    137          1           0       10.600314   -1.837676    3.029091
    138          1           0       10.239844    0.560080    4.891376
    139          1           0       11.169418    1.740561    4.063854
    140          1           0       11.783814    1.094313    5.610390
 ---------------------------------------------------------------------

 SCF Done:  E(RZINDO/S) =  -474.118423017     A.U. after   19 cycles

 Excitation energies and oscillator strengths:

 Excited State   1:      Singlet-A      1.2364 eV 1002.80 nm  f=0.6135  <S**2>=0.000
     175 ->178         0.19841
     176 ->177         0.65976
 This state for optimization and/or second-order correction.
 Total Energy, E(CIS/TDA) =  -474.072986963
 Copying the excited state density for this state as the 1-particle RhoCI density.

 Excited State   2:      Singlet-A      1.8861 eV  657.36 nm  f=0.0587  <S**2>=0.000
     175 ->177         0.55779
     176 ->178        -0.40321

 Excited State   3:      Singlet-A      2.9072 eV  426.47 nm  f=0.2469  <S**2>=0.000
     168 ->177        -0.18540
     168 ->179         0.19227
     169 ->177         0.21323
     169 ->178        -0.10709
     169 ->179        -0.19362
     172 ->177        -0.11336
     175 ->177         0.18615
     176 ->178         0.31917
     176 ->179         0.23865

 Excited State   4:      Singlet-A      2.9404 eV  421.66 nm  f=0.3348  <S**2>=0.000
     168 ->177         0.17256
     168 ->179        -0.17611
     169 ->177        -0.17131
     169 ->179         0.18491
     175 ->177         0.21458
     176 ->178         0.35549
     176 ->179         0.27738

 Excited State   5:      Singlet-A      3.0035 eV  412.79 nm  f=0.2127  <S**2>=0.000
     168 ->177        -0.11860
     168 ->179        -0.16619
     168 ->180        -0.20050
     168 ->183         0.11072
     169 ->177        -0.10615
     169 ->179        -0.15147
     169 ->180        -0.16141
     175 ->177        -0.16295
     176 ->178        -0.18077
     176 ->179         0.39267
     176 ->180         0.16386

 The electronic state is 1-A.
 Alpha  occ. eigenvalues --   -1.82481  -1.80007  -1.79067  -1.72077  -1.70967
 Alpha  occ. eigenvalues --   -1.68712  -1.65147  -1.60530  -1.56828  -1.56162
 Alpha  occ. eigenvalues --   -1.54987  -1.51309  -1.49376  -1.48693  -1.47001
 Alpha  occ. eigenvalues --   -1.43838  -1.43619  -1.41767  -1.39441  -1.39372
 Alpha  occ. eigenvalues --   -1.36611  -1.33531  -1.33111  -1.31913  -1.28779
 Alpha  occ. eigenvalues --   -1.27990  -1.24701  -1.21492  -1.20237  -1.18081
 Alpha  occ. eigenvalues --   -1.16978  -1.14844  -1.14817  -1.13480  -1.13162
 Alpha  occ. eigenvalues --   -1.12740  -1.10638  -1.10283  -1.03960  -1.03323
 Alpha  occ. eigenvalues --   -1.01268  -1.00220  -0.98324  -0.98022  -0.96900
 Alpha  occ. eigenvalues --   -0.96066  -0.94808  -0.94004  -0.92921  -0.92381
 Alpha  occ. eigenvalues --   -0.90284  -0.89975  -0.89493  -0.88863  -0.87405
 Alpha  occ. eigenvalues --   -0.85165  -0.84801  -0.83142  -0.81144  -0.80888
 Alpha  occ. eigenvalues --   -0.79547  -0.78331  -0.77065  -0.76782  -0.75291
 Alpha  occ. eigenvalues --   -0.75038  -0.74650  -0.74296  -0.74199  -0.72969
 Alpha  occ. eigenvalues --   -0.72569  -0.72212  -0.71522  -0.71236  -0.70974
 Alpha  occ. eigenvalues --   -0.69937  -0.69092  -0.68585  -0.68500  -0.68057
 Alpha  occ. eigenvalues --   -0.67667  -0.67295  -0.66952  -0.66322  -0.65361
 Alpha  occ. eigenvalues --   -0.65238  -0.64625  -0.64073  -0.64036  -0.63440
 Alpha  occ. eigenvalues --   -0.63188  -0.63099  -0.62839  -0.62311  -0.61877
 Alpha  occ. eigenvalues --   -0.61692  -0.61353  -0.61155  -0.60285  -0.60079
 Alpha  occ. eigenvalues --   -0.59549  -0.59385  -0.59140  -0.58386  -0.58169
 Alpha  occ. eigenvalues --   -0.57862  -0.57667  -0.57290  -0.56767  -0.56308
 Alpha  occ. eigenvalues --   -0.55409  -0.55276  -0.55183  -0.54777  -0.54431
 Alpha  occ. eigenvalues --   -0.54165  -0.53524  -0.53227  -0.52777  -0.52652
 Alpha  occ. eigenvalues --   -0.52305  -0.52198  -0.51917  -0.51704  -0.51246
 Alpha  occ. eigenvalues --   -0.51066  -0.50889  -0.50809  -0.50438  -0.50207
 Alpha  occ. eigenvalues --   -0.50102  -0.49905  -0.49551  -0.49316  -0.48894
 Alpha  occ. eigenvalues --   -0.48548  -0.48375  -0.48114  -0.48029  -0.47926
 Alpha  occ. eigenvalues --   -0.47752  -0.47618  -0.47101  -0.46555  -0.46426
 Alpha  occ. eigenvalues --   -0.46273  -0.45897  -0.45630  -0.45517  -0.45171
 Alpha  occ. eigenvalues --   -0.44946  -0.44585  -0.44184  -0.44116  -0.44052
 Alpha  occ. eigenvalues --   -0.43539  -0.43433  -0.43112  -0.42694  -0.42541
 Alpha  occ. eigenvalues --   -0.41954  -0.41905  -0.40881  -0.39470  -0.38844
 Alpha  occ. eigenvalues --   -0.38417  -0.36322  -0.35358  -0.35182  -0.34424
 Alpha  occ. eigenvalues --   -0.33260  -0.32456  -0.32161  -0.32077  -0.26315
 Alpha  occ. eigenvalues --   -0.21622
 Alpha virt. eigenvalues --   -0.08550  -0.02020  -0.00698   0.00961   0.01999
 Alpha virt. eigenvalues --    0.02053   0.02243   0.03162   0.04680   0.04959
 Alpha virt. eigenvalues --    0.06485   0.07086   0.07530   0.07881   0.08290

 Mulliken charges:
               1
     1  Mg   0.436640
     2  C   -0.044250
     3  C   -0.078178
     4  C   -0.067558
     5  C   -0.066784
     6  N   -0.283263
     7  C    0.129943
     8  C   -0.004086
     9  C    0.006833
    10  C    0.138933
    11  C   -0.052051
    12  C   -0.017370
    13  C   -0.000499
    14  C    0.458247
    15  O   -0.486932
    16  O   -0.276272
    17  N   -0.305251
    18  C    0.082938
    19  C    0.024016
    20  C   -0.050524
    21  C    0.118718
    22  C   -0.036818
    23  C    0.320097
    24  O   -0.530044
    25  C   -0.035550
    26  N   -0.288976
    27  C    0.124058
    28  C   -0.003554
    29  C    0.005688
    30  C    0.153976
    31  C   -0.046696
    32  C   -0.031799
    33  C   -0.056123
    34  N   -0.356742
    35  C    0.115883
    36  C    0.039477
    37  C   -0.055891
    38  C    0.120222
    39  C   -0.032567
    40  C    0.340743
    41  O   -0.517228
    42  C    0.058193
    43  C    0.482219
    44  O   -0.499755
    45  O   -0.280421
    46  C    0.070577
    47  C    0.106837
    48  C   -0.090413
    49  C   -0.009738
    50  C   -0.045866
    51  C   -0.020438
    52  C   -0.031936
    53  C   -0.040927
    54  C   -0.015982
    55  C   -0.066644
    56  C   -0.026017
    57  C   -0.040592
    58  C   -0.034382
    59  C   -0.014582
    60  C   -0.061521
    61  C   -0.031488
    62  C   -0.028999
    63  C   -0.036485
    64  C   -0.017944
    65  C   -0.059646
    66  C   -0.062012
    67  H    0.016829
    68  H    0.046650
    69  H    0.026166
    70  H    0.048800
    71  H    0.017592
    72  H    0.038222
    73  H    0.027962
    74  H    0.021951
    75  H    0.029077
    76  H    0.027117
    77  H    0.025295
    78  H    0.045336
    79  H    0.019372
    80  H    0.027267
    81  H    0.031237
    82  H    0.042288
    83  H    0.038483
    84  H    0.027652
    85  H    0.032458
    86  H    0.035615
    87  H    0.029797
    88  H    0.027672
    89  H    0.011998
    90  H    0.011834
    91  H    0.011825
    92  H    0.019344
    93  H    0.033490
    94  H    0.022779
    95  H    0.036765
    96  H    0.022849
    97  H    0.045106
    98  H    0.049373
    99  H    0.048806
   100  H    0.047349
   101  H    0.029815
   102  H    0.050677
   103  H    0.047611
   104  H    0.032585
   105  H    0.033936
   106  H    0.022102
   107  H    0.022695
   108  H    0.021758
   109  H    0.014866
   110  H    0.026865
   111  H    0.026064
   112  H    0.018112
   113  H    0.016381
   114  H    0.025611
   115  H    0.017663
   116  H    0.013159
   117  H    0.022563
   118  H    0.015870
   119  H    0.018127
   120  H    0.011931
   121  H    0.016065
   122  H    0.024903
   123  H    0.020291
   124  H    0.027115
   125  H    0.019343
   126  H    0.016895
   127  H    0.017301
   128  H    0.005474
   129  H    0.026476
   130  H    0.012433
   131  H    0.016758
   132  H    0.029407
   133  H    0.015085
   134  H    0.022762
   135  H    0.015586
   136  H    0.013005
   137  H    0.017808
   138  H    0.017608
   139  H    0.013151
   140  H    0.026344
 Sum of Mulliken charges =  -0.00000

 Dipole moment (field-independent basis, Debye):
    X=              4.9892    Y=              3.3109    Z=             -3.9384  Tot=              7.1669
 N-N= 4.274046798676D+03 E-N= 0.000000000000D+00  KE=-9.222587697880D+03
 Leave Link  601 at Thu Apr 28 17:09:09 2022, MaxMem=  6710886400 cpu:               0.7 elap:               0.0
 (Enter /sw/apps/gaussian-16.0/g16/l9999.exe)
 1\1\GINC-BP1-COMPUTE161\SP\RZINDO CIS\STO-3G\C55H74Mg1N4O6\OF15641\28-
 Apr-2022\0\\#p ZINDO=(nstates=5)\\step_1651_chromophore_19 ZINDO\\0,1\
 Mg,0,25.823,49.741,26.74\C,0,23.665,50.841,29.333\C,0,28.077,48.816,29
 .003\C,0,27.594,49.008,24.097\C,0,23.498,51.641,24.497\N,0,25.941,49.9
 52,28.967\C,0,24.859,50.235,29.771\C,0,25.277,49.976,31.248\C,0,26.797
 ,49.58,31.043\C,0,27.039,49.501,29.608\C,0,27.907,50.453,31.739\C,0,24
 .373,48.967,32.011\C,0,23.927,49.459,33.415\C,0,25.1,49.935,34.449\O,0

 Normal termination of Gaussian 16 at Thu Apr 28 17:09:10 2022.
