 Gaussian 16, Revision A.03,
 Gaussian 16:  ES64L-G16RevA.03 25-Dec-2016

 ------------------------------
 #p blyp/Def2SVP td=(nstates=5)
 ------------------------------

 ---------------------------------------------------
 step_1701_chromophore_10 TDDFT with blyp functional
 ---------------------------------------------------
 Symbolic Z-matrix:
 Charge =  0 Multiplicity = 1

                         Standard orientation:
 ---------------------------------------------------------------------
 Center     Atomic      Atomic             Coordinates (Angstroms)
 Number     Number       Type             X           Y           Z
 ---------------------------------------------------------------------
      1         12           0        6.007189    0.750221    0.184315
      2          6           0        3.968013   -2.160049    0.179923
      3          6           0        3.882832    2.233609   -1.856402
      4          6           0        8.284132    3.150013   -0.139097
      5          6           0        8.529618   -1.235905    1.869311
      6          7           0        4.101265    0.109400   -0.651495
      7          6           0        3.399814   -1.057822   -0.502520
      8          6           0        1.991480   -1.011233   -1.161116
      9          6           0        2.111799    0.333082   -1.970339
     10          6           0        3.504814    0.910272   -1.546650
     11          6           0        2.075125    0.170994   -3.545921
     12          6           0        0.873868   -1.100346   -0.122580
     13          6           0       -0.403506   -1.659375   -0.672346
     14          6           0       -1.454378   -2.224024    0.199348
     15          8           0       -1.720312   -1.864981    1.341972
     16          8           0       -2.235872   -3.133706   -0.556909
     17          7           0        5.970563    2.515381   -0.736520
     18          6           0        4.983693    2.998905   -1.507819
     19          6           0        5.278940    4.393737   -1.897928
     20          6           0        6.550024    4.639366   -1.346943
     21          6           0        7.009549    3.370925   -0.732852
     22          6           0        4.363463    5.250641   -2.844475
     23          6           0        7.249173    6.000788   -1.399986
     24          8           0        8.372787    6.036021   -0.918265
     25          6           0        6.598023    7.262047   -1.740054
     26          7           0        8.097035    0.907545    0.750535
     27          6           0        8.786113    2.091339    0.553162
     28          6           0       10.135511    2.155547    1.220093
     29          6           0       10.180256    0.809230    2.027426
     30          6           0        8.868826    0.129352    1.592184
     31          6           0       11.320944    2.395989    0.211121
     32          6           0       10.252024    1.014325    3.566200
     33          6           0        8.968628    1.621224    4.280456
     34          7           0        6.309789   -1.351618    0.737040
     35          6           0        7.345213   -1.944322    1.475153
     36          6           0        6.911756   -3.295650    1.782260
     37          6           0        5.613323   -3.457070    1.362543
     38          6           0        5.311692   -2.196564    0.652597
     39          6           0        7.751956   -4.345266    2.472958
     40          6           0        4.415314   -4.355473    1.284660
     41          8           0        4.133596   -5.500093    1.717194
     42          6           0        3.281556   -3.483522    0.523477
     43          6           0        2.796408   -4.250842   -0.573944
     44          8           0        3.351272   -4.750074   -1.535031
     45          8           0        1.444779   -4.385909   -0.446936
     46          6           0        0.578296   -5.028670   -1.461038
     47          6           0       -3.491327   -3.499299    0.068202
     48          6           0       -4.659497   -3.154260   -0.804651
     49          6           0       -5.840032   -3.787208   -0.982084
     50          6           0       -6.348401   -4.968172   -0.200583
     51          6           0       -6.781030   -3.310026   -2.090609
     52          6           0       -7.233787   -1.861734   -1.793014
     53          6           0       -8.526070   -1.550145   -2.486946
     54          6           0       -9.778185   -0.989428   -1.659033
     55          6           0      -11.165849   -1.489893   -2.079801
     56          6           0       -9.642315    0.545611   -1.860359
     57          6           0      -10.374224    1.340168   -0.814292
     58          6           0      -11.620290    1.981780   -1.365291
     59          6           0      -12.907630    1.699776   -0.540502
     60          6           0      -14.185456    1.765506   -1.451398
     61          6           0      -13.038499    2.669581    0.674786
     62          6           0      -13.652573    2.022501    1.914739
     63          6           0      -14.066260    3.144078    2.961659
     64          6           0      -15.478398    3.097176    3.488357
     65          6           0      -16.132422    4.534544    3.616462
     66          6           0      -15.433317    2.321813    4.880293
     67          1           0        3.024162    2.570074   -2.438936
     68          1           0        9.018539    3.958273   -0.134233
     69          1           0        9.303797   -1.743768    2.447978
     70          1           0        1.949735   -1.836605   -1.873103
     71          1           0        1.259381    0.984978   -1.783524
     72          1           0        2.041339   -0.875184   -3.847383
     73          1           0        3.009149    0.574246   -3.937401
     74          1           0        1.210328    0.725924   -3.910398
     75          1           0        0.712064   -0.062547    0.169750
     76          1           0        1.166218   -1.655746    0.768807
     77          1           0       -0.162289   -2.395439   -1.439191
     78          1           0       -0.816231   -0.789068   -1.181413
     79          1           0        5.038250    5.646937   -3.604136
     80          1           0        3.954077    6.125681   -2.338993
     81          1           0        3.634031    4.672997   -3.412548
     82          1           0        7.404383    7.995099   -1.744956
     83          1           0        5.810707    7.408100   -1.000283
     84          1           0        6.114247    7.193836   -2.714553
     85          1           0        9.996305    2.992822    1.904312
     86          1           0       11.055634    0.268215    1.667947
     87          1           0       11.698953    3.399504    0.016643
     88          1           0       10.888282    2.134848   -0.754075
     89          1           0       12.195822    1.815702    0.505594
     90          1           0       11.120314    1.650462    3.738842
     91          1           0       10.405650   -0.000094    3.935350
     92          1           0        8.241281    1.858893    3.504644
     93          1           0        9.290644    2.472022    4.881355
     94          1           0        8.547896    0.858042    4.936090
     95          1           0        7.205749   -5.114612    3.018447
     96          1           0        8.507580   -3.895845    3.116304
     97          1           0        8.273916   -4.925328    1.711090
     98          1           0        2.451895   -3.268419    1.197712
     99          1           0        0.586239   -4.623661   -2.473585
    100          1           0       -0.398926   -4.810611   -1.029655
    101          1           0        0.748050   -6.104229   -1.491557
    102          1           0       -3.702253   -2.891193    0.947897
    103          1           0       -3.602172   -4.538603    0.378584
    104          1           0       -4.492181   -2.449467   -1.618564
    105          1           0       -6.342569   -5.876014   -0.803336
    106          1           0       -7.406074   -4.833244    0.026979
    107          1           0       -5.701213   -5.117969    0.663852
    108          1           0       -7.640540   -3.980043   -2.100764
    109          1           0       -6.324571   -3.225725   -3.077540
    110          1           0       -6.455141   -1.180166   -2.134700
    111          1           0       -7.264228   -1.819504   -0.703886
    112          1           0       -8.801113   -2.483962   -2.976784
    113          1           0       -8.248403   -0.857740   -3.282338
    114          1           0       -9.672171   -1.202211   -0.595951
    115          1           0      -11.854904   -1.725375   -1.268864
    116          1           0      -11.033389   -2.315588   -2.779199
    117          1           0      -11.603953   -0.632401   -2.591251
    118          1           0       -9.950571    0.645371   -2.901597
    119          1           0       -8.576281    0.739884   -1.743080
    120          1           0       -9.628897    2.010408   -0.385093
    121          1           0      -10.664924    0.753526    0.056766
    122          1           0      -11.920060    1.858350   -2.406174
    123          1           0      -11.444691    3.048721   -1.225380
    124          1           0      -12.979774    0.672931   -0.181820
    125          1           0      -15.057885    1.806032   -0.799955
    126          1           0      -14.434673    0.809470   -1.910899
    127          1           0      -14.205092    2.588373   -2.165679
    128          1           0      -13.614365    3.541350    0.365231
    129          1           0      -12.020560    2.972384    0.921591
    130          1           0      -12.933857    1.376756    2.419397
    131          1           0      -14.522422    1.382899    1.766827
    132          1           0      -13.794096    4.165645    2.697089
    133          1           0      -13.390141    2.996075    3.803341
    134          1           0      -16.116574    2.556487    2.789602
    135          1           0      -15.421817    5.293301    3.289716
    136          1           0      -16.417650    4.726097    4.650897
    137          1           0      -16.979199    4.459214    2.933825
    138          1           0      -15.367183    2.912441    5.793758
    139          1           0      -14.570640    1.656400    4.919527
    140          1           0      -16.290154    1.648207    4.851324
 ---------------------------------------------------------------------

 SCF Done:  E(RB-LYP) =  -3007.37732945     A.U. after   21 cycles

 Excitation energies and oscillator strengths:

 Excited State   1:      Singlet-A      1.8117 eV  684.35 nm  f=0.2908  <S**2>=0.000
     245 -> 248        0.18865
     246 -> 247        0.69009
     246 <- 247       -0.14736
 This state for optimization and/or second-order correction.
 Total Energy, E(TD-HF/TD-DFT) =  -3007.31075083
 Copying the excited state density for this state as the 1-particle RhoCI density.

 Excited State   2:      Singlet-A      2.0100 eV  616.83 nm  f=0.0043  <S**2>=0.000
     244 -> 247        0.68868
     245 -> 247        0.14712

 Excited State   3:      Singlet-A      2.0571 eV  602.72 nm  f=0.0315  <S**2>=0.000
     243 -> 247        0.55820
     244 -> 247        0.11472
     245 -> 247       -0.37870
     246 -> 248        0.15427

 Excited State   4:      Singlet-A      2.0808 eV  595.85 nm  f=0.0459  <S**2>=0.000
     243 -> 247        0.43065
     244 -> 247       -0.10789
     245 -> 247        0.49142
     246 -> 248       -0.22176

 Excited State   5:      Singlet-A      2.1653 eV  572.61 nm  f=0.0001  <S**2>=0.000
     242 -> 247        0.70708

 The electronic state is 1-A.
 Alpha  occ. eigenvalues --  -46.27723 -18.82853 -18.80768 -18.78067 -18.76193
 Alpha  occ. eigenvalues --  -18.75438 -18.75349 -14.03624 -14.03149 -14.01708
 Alpha  occ. eigenvalues --  -14.01036 -10.05022 -10.02728 -10.00665  -9.99851
 Alpha  occ. eigenvalues --   -9.97669  -9.97284  -9.96790  -9.96705  -9.96676
 Alpha  occ. eigenvalues --   -9.96491  -9.95993  -9.95970  -9.95571  -9.94802
 Alpha  occ. eigenvalues --   -9.94700  -9.94513  -9.94397  -9.94207  -9.94099
 Alpha  occ. eigenvalues --   -9.93981  -9.93805  -9.93748  -9.93577  -9.93548
 Alpha  occ. eigenvalues --   -9.93384  -9.93291  -9.93163  -9.92980  -9.92893
 Alpha  occ. eigenvalues --   -9.92729  -9.92668  -9.92492  -9.92412  -9.92372
 Alpha  occ. eigenvalues --   -9.92367  -9.91924  -9.91916  -9.91773  -9.91751
 Alpha  occ. eigenvalues --   -9.91633  -9.91618  -9.91547  -9.91313  -9.91161
 Alpha  occ. eigenvalues --   -9.91105  -9.91053  -9.90838  -9.90835  -9.90810
 Alpha  occ. eigenvalues --   -9.90788  -9.90759  -9.90683  -9.90673  -9.90606
 Alpha  occ. eigenvalues --   -9.90257  -2.92376  -1.72793  -1.72238  -1.72114
 Alpha  occ. eigenvalues --   -0.97640  -0.96948  -0.92014  -0.90616  -0.89652
 Alpha  occ. eigenvalues --   -0.88250  -0.87280  -0.86424  -0.85775  -0.84931
 Alpha  occ. eigenvalues --   -0.74865  -0.74067  -0.73770  -0.73036  -0.72053
 Alpha  occ. eigenvalues --   -0.71839  -0.71816  -0.70831  -0.70567  -0.70487
 Alpha  occ. eigenvalues --   -0.69957  -0.69716  -0.68432  -0.67644  -0.67090
 Alpha  occ. eigenvalues --   -0.66501  -0.66350  -0.65601  -0.65056  -0.64655
 Alpha  occ. eigenvalues --   -0.64136  -0.62840  -0.62564  -0.61721  -0.60872
 Alpha  occ. eigenvalues --   -0.60635  -0.60250  -0.59918  -0.59601  -0.58692
 Alpha  occ. eigenvalues --   -0.58316  -0.57739  -0.56834  -0.55652  -0.55243
 Alpha  occ. eigenvalues --   -0.53817  -0.53608  -0.52999  -0.52179  -0.51662
 Alpha  occ. eigenvalues --   -0.51230  -0.51105  -0.50447  -0.50350  -0.50000
 Alpha  occ. eigenvalues --   -0.49584  -0.49138  -0.48513  -0.47909  -0.46942
 Alpha  occ. eigenvalues --   -0.46668  -0.46070  -0.45885  -0.45222  -0.44470
 Alpha  occ. eigenvalues --   -0.44227  -0.43976  -0.43683  -0.42957  -0.42527
 Alpha  occ. eigenvalues --   -0.42334  -0.42240  -0.41789  -0.41459  -0.41317
 Alpha  occ. eigenvalues --   -0.41064  -0.40821  -0.40644  -0.40299  -0.39920
 Alpha  occ. eigenvalues --   -0.39908  -0.39829  -0.39623  -0.39383  -0.39055
 Alpha  occ. eigenvalues --   -0.38862  -0.38664  -0.38550  -0.38320  -0.38174
 Alpha  occ. eigenvalues --   -0.37943  -0.37710  -0.37545  -0.37443  -0.37191
 Alpha  occ. eigenvalues --   -0.37056  -0.36986  -0.36787  -0.36600  -0.36381
 Alpha  occ. eigenvalues --   -0.36235  -0.36098  -0.35909  -0.35828  -0.35734
 Alpha  occ. eigenvalues --   -0.35600  -0.35399  -0.34941  -0.34890  -0.34817
 Alpha  occ. eigenvalues --   -0.34485  -0.34310  -0.34191  -0.33903  -0.33777
 Alpha  occ. eigenvalues --   -0.33668  -0.33597  -0.33494  -0.33263  -0.33033
 Alpha  occ. eigenvalues --   -0.32948  -0.32744  -0.32591  -0.32410  -0.32182
 Alpha  occ. eigenvalues --   -0.32143  -0.32052  -0.31743  -0.31621  -0.31390
 Alpha  occ. eigenvalues --   -0.31140  -0.30887  -0.30865  -0.30742  -0.30657
 Alpha  occ. eigenvalues --   -0.30541  -0.30508  -0.30389  -0.30260  -0.30236
 Alpha  occ. eigenvalues --   -0.29927  -0.29463  -0.29396  -0.29184  -0.29009
 Alpha  occ. eigenvalues --   -0.28949  -0.28870  -0.28514  -0.28354  -0.27697
 Alpha  occ. eigenvalues --   -0.27673  -0.27254  -0.26996  -0.26828  -0.26736
 Alpha  occ. eigenvalues --   -0.26630  -0.26413  -0.26300  -0.25915  -0.25492
 Alpha  occ. eigenvalues --   -0.25150  -0.24314  -0.23817  -0.23674  -0.23462
 Alpha  occ. eigenvalues --   -0.23149  -0.22734  -0.22374  -0.21424  -0.20947
 Alpha  occ. eigenvalues --   -0.20526  -0.19361  -0.18877  -0.18720  -0.17445
 Alpha  occ. eigenvalues --   -0.15718
 Alpha virt. eigenvalues --   -0.11404  -0.06885  -0.06352  -0.05095  -0.04218
 Alpha virt. eigenvalues --   -0.03254  -0.02075  -0.01687  -0.01615   0.00234
 Alpha virt. eigenvalues --    0.00905   0.01776   0.02378   0.02743   0.02874

 Mulliken charges:
               1
     1  Mg   0.709920
     2  C   -0.008023
     3  C   -0.068337
     4  C   -0.045415
     5  C   -0.058539
     6  N   -0.209376
     7  C   -0.104290
     8  C    0.064038
     9  C   -0.067114
    10  C   -0.011620
    11  C    0.111139
    12  C    0.142119
    13  C    0.129698
    14  C    0.118204
    15  O   -0.171624
    16  O   -0.292945
    17  N   -0.300123
    18  C    0.197430
    19  C   -0.144969
    20  C    0.033984
    21  C    0.134142
    22  C    0.160629
    23  C   -0.099742
    24  O   -0.172244
    25  C    0.168653
    26  N   -0.224370
    27  C   -0.041733
    28  C    0.052188
    29  C    0.046642
    30  C   -0.021528
    31  C    0.116495
    32  C    0.062458
    33  C    0.061045
    34  N   -0.196229
    35  C    0.124136
    36  C   -0.179770
    37  C    0.065905
    38  C    0.041286
    39  C    0.161554
    40  C    0.026984
    41  O   -0.154662
    42  C    0.066636
    43  C    0.086748
    44  O   -0.172913
    45  O   -0.298805
    46  C    0.212621
    47  C    0.345095
    48  C   -0.100164
    49  C   -0.194380
    50  C    0.156975
    51  C    0.126564
    52  C    0.044269
    53  C    0.125398
    54  C   -0.107716
    55  C    0.130726
    56  C    0.074727
    57  C    0.141414
    58  C    0.136926
    59  C   -0.099996
    60  C    0.085827
    61  C    0.111035
    62  C    0.075436
    63  C    0.097304
    64  C   -0.116097
    65  C    0.110193
    66  C    0.092221
    67  H   -0.071451
    68  H   -0.052059
    69  H   -0.062155
    70  H   -0.013251
    71  H   -0.019643
    72  H   -0.003197
    73  H   -0.001986
    74  H   -0.005306
    75  H   -0.027767
    76  H   -0.008771
    77  H   -0.016364
    78  H    0.001699
    79  H    0.004406
    80  H    0.006445
    81  H   -0.000952
    82  H    0.005005
    83  H    0.021153
    84  H   -0.015483
    85  H   -0.019699
    86  H   -0.029638
    87  H    0.000752
    88  H   -0.000402
    89  H   -0.003376
    90  H   -0.011957
    91  H   -0.018620
    92  H    0.011894
    93  H    0.001318
    94  H   -0.001829
    95  H    0.003756
    96  H   -0.013918
    97  H    0.002570
    98  H    0.009606
    99  H    0.016614
   100  H    0.016000
   101  H    0.018933
   102  H    0.006578
   103  H   -0.003014
   104  H   -0.047443
   105  H   -0.001939
   106  H   -0.007809
   107  H   -0.012210
   108  H   -0.037401
   109  H   -0.018680
   110  H   -0.026087
   111  H   -0.026438
   112  H   -0.049192
   113  H   -0.038379
   114  H   -0.044563
   115  H   -0.004826
   116  H   -0.017839
   117  H   -0.025344
   118  H   -0.022108
   119  H   -0.040310
   120  H   -0.039728
   121  H   -0.035987
   122  H   -0.031757
   123  H   -0.045386
   124  H   -0.042755
   125  H   -0.037870
   126  H   -0.023522
   127  H   -0.006666
   128  H   -0.025761
   129  H   -0.032929
   130  H   -0.033469
   131  H   -0.029576
   132  H   -0.044928
   133  H   -0.048332
   134  H   -0.029974
   135  H   -0.015417
   136  H   -0.012404
   137  H   -0.008905
   138  H   -0.004313
   139  H   -0.022401
   140  H   -0.019280
 Sum of Mulliken charges =  -0.00000

 Dipole moment (field-independent basis, Debye):
    X=             -2.1040    Y=              4.8168    Z=             -1.3493  Tot=              5.4267
 Quadrupole moment (field-independent basis, Debye-Ang):
   XX=           -387.4500   YY=           -428.6024   ZZ=           -401.8866
   XY=             25.2464   XZ=             19.8077   YZ=             -1.1824

 Normal termination of Gaussian 16 at Wed May  4 12:28:45 2022.
