 Gaussian 16, Revision A.03,
 Gaussian 16:  ES64L-G16RevA.03 25-Dec-2016

 -----------------------------------
 #p cam-b3lyp/Def2SVP td=(nstates=5)
 -----------------------------------

 --------------------------------------------------------
 step_1701_chromophore_10 TDDFT with cam-b3lyp functional
 --------------------------------------------------------
 Symbolic Z-matrix:
 Charge =  0 Multiplicity = 1

                         Standard orientation:
 ---------------------------------------------------------------------
 Center     Atomic      Atomic             Coordinates (Angstroms)
 Number     Number       Type             X           Y           Z
 ---------------------------------------------------------------------
      1         12           0        6.007189    0.750221    0.184315
      2          6           0        3.968013   -2.160049    0.179923
      3          6           0        3.882832    2.233609   -1.856402
      4          6           0        8.284132    3.150013   -0.139097
      5          6           0        8.529618   -1.235905    1.869311
      6          7           0        4.101265    0.109400   -0.651495
      7          6           0        3.399814   -1.057822   -0.502520
      8          6           0        1.991480   -1.011233   -1.161116
      9          6           0        2.111799    0.333082   -1.970339
     10          6           0        3.504814    0.910272   -1.546650
     11          6           0        2.075125    0.170994   -3.545921
     12          6           0        0.873868   -1.100346   -0.122580
     13          6           0       -0.403506   -1.659375   -0.672346
     14          6           0       -1.454378   -2.224024    0.199348
     15          8           0       -1.720312   -1.864981    1.341972
     16          8           0       -2.235872   -3.133706   -0.556909
     17          7           0        5.970563    2.515381   -0.736520
     18          6           0        4.983693    2.998905   -1.507819
     19          6           0        5.278940    4.393737   -1.897928
     20          6           0        6.550024    4.639366   -1.346943
     21          6           0        7.009549    3.370925   -0.732852
     22          6           0        4.363463    5.250641   -2.844475
     23          6           0        7.249173    6.000788   -1.399986
     24          8           0        8.372787    6.036021   -0.918265
     25          6           0        6.598023    7.262047   -1.740054
     26          7           0        8.097035    0.907545    0.750535
     27          6           0        8.786113    2.091339    0.553162
     28          6           0       10.135511    2.155547    1.220093
     29          6           0       10.180256    0.809230    2.027426
     30          6           0        8.868826    0.129352    1.592184
     31          6           0       11.320944    2.395989    0.211121
     32          6           0       10.252024    1.014325    3.566200
     33          6           0        8.968628    1.621224    4.280456
     34          7           0        6.309789   -1.351618    0.737040
     35          6           0        7.345213   -1.944322    1.475153
     36          6           0        6.911756   -3.295650    1.782260
     37          6           0        5.613323   -3.457070    1.362543
     38          6           0        5.311692   -2.196564    0.652597
     39          6           0        7.751956   -4.345266    2.472958
     40          6           0        4.415314   -4.355473    1.284660
     41          8           0        4.133596   -5.500093    1.717194
     42          6           0        3.281556   -3.483522    0.523477
     43          6           0        2.796408   -4.250842   -0.573944
     44          8           0        3.351272   -4.750074   -1.535031
     45          8           0        1.444779   -4.385909   -0.446936
     46          6           0        0.578296   -5.028670   -1.461038
     47          6           0       -3.491327   -3.499299    0.068202
     48          6           0       -4.659497   -3.154260   -0.804651
     49          6           0       -5.840032   -3.787208   -0.982084
     50          6           0       -6.348401   -4.968172   -0.200583
     51          6           0       -6.781030   -3.310026   -2.090609
     52          6           0       -7.233787   -1.861734   -1.793014
     53          6           0       -8.526070   -1.550145   -2.486946
     54          6           0       -9.778185   -0.989428   -1.659033
     55          6           0      -11.165849   -1.489893   -2.079801
     56          6           0       -9.642315    0.545611   -1.860359
     57          6           0      -10.374224    1.340168   -0.814292
     58          6           0      -11.620290    1.981780   -1.365291
     59          6           0      -12.907630    1.699776   -0.540502
     60          6           0      -14.185456    1.765506   -1.451398
     61          6           0      -13.038499    2.669581    0.674786
     62          6           0      -13.652573    2.022501    1.914739
     63          6           0      -14.066260    3.144078    2.961659
     64          6           0      -15.478398    3.097176    3.488357
     65          6           0      -16.132422    4.534544    3.616462
     66          6           0      -15.433317    2.321813    4.880293
     67          1           0        3.024162    2.570074   -2.438936
     68          1           0        9.018539    3.958273   -0.134233
     69          1           0        9.303797   -1.743768    2.447978
     70          1           0        1.949735   -1.836605   -1.873103
     71          1           0        1.259381    0.984978   -1.783524
     72          1           0        2.041339   -0.875184   -3.847383
     73          1           0        3.009149    0.574246   -3.937401
     74          1           0        1.210328    0.725924   -3.910398
     75          1           0        0.712064   -0.062547    0.169750
     76          1           0        1.166218   -1.655746    0.768807
     77          1           0       -0.162289   -2.395439   -1.439191
     78          1           0       -0.816231   -0.789068   -1.181413
     79          1           0        5.038250    5.646937   -3.604136
     80          1           0        3.954077    6.125681   -2.338993
     81          1           0        3.634031    4.672997   -3.412548
     82          1           0        7.404383    7.995099   -1.744956
     83          1           0        5.810707    7.408100   -1.000283
     84          1           0        6.114247    7.193836   -2.714553
     85          1           0        9.996305    2.992822    1.904312
     86          1           0       11.055634    0.268215    1.667947
     87          1           0       11.698953    3.399504    0.016643
     88          1           0       10.888282    2.134848   -0.754075
     89          1           0       12.195822    1.815702    0.505594
     90          1           0       11.120314    1.650462    3.738842
     91          1           0       10.405650   -0.000094    3.935350
     92          1           0        8.241281    1.858893    3.504644
     93          1           0        9.290644    2.472022    4.881355
     94          1           0        8.547896    0.858042    4.936090
     95          1           0        7.205749   -5.114612    3.018447
     96          1           0        8.507580   -3.895845    3.116304
     97          1           0        8.273916   -4.925328    1.711090
     98          1           0        2.451895   -3.268419    1.197712
     99          1           0        0.586239   -4.623661   -2.473585
    100          1           0       -0.398926   -4.810611   -1.029655
    101          1           0        0.748050   -6.104229   -1.491557
    102          1           0       -3.702253   -2.891193    0.947897
    103          1           0       -3.602172   -4.538603    0.378584
    104          1           0       -4.492181   -2.449467   -1.618564
    105          1           0       -6.342569   -5.876014   -0.803336
    106          1           0       -7.406074   -4.833244    0.026979
    107          1           0       -5.701213   -5.117969    0.663852
    108          1           0       -7.640540   -3.980043   -2.100764
    109          1           0       -6.324571   -3.225725   -3.077540
    110          1           0       -6.455141   -1.180166   -2.134700
    111          1           0       -7.264228   -1.819504   -0.703886
    112          1           0       -8.801113   -2.483962   -2.976784
    113          1           0       -8.248403   -0.857740   -3.282338
    114          1           0       -9.672171   -1.202211   -0.595951
    115          1           0      -11.854904   -1.725375   -1.268864
    116          1           0      -11.033389   -2.315588   -2.779199
    117          1           0      -11.603953   -0.632401   -2.591251
    118          1           0       -9.950571    0.645371   -2.901597
    119          1           0       -8.576281    0.739884   -1.743080
    120          1           0       -9.628897    2.010408   -0.385093
    121          1           0      -10.664924    0.753526    0.056766
    122          1           0      -11.920060    1.858350   -2.406174
    123          1           0      -11.444691    3.048721   -1.225380
    124          1           0      -12.979774    0.672931   -0.181820
    125          1           0      -15.057885    1.806032   -0.799955
    126          1           0      -14.434673    0.809470   -1.910899
    127          1           0      -14.205092    2.588373   -2.165679
    128          1           0      -13.614365    3.541350    0.365231
    129          1           0      -12.020560    2.972384    0.921591
    130          1           0      -12.933857    1.376756    2.419397
    131          1           0      -14.522422    1.382899    1.766827
    132          1           0      -13.794096    4.165645    2.697089
    133          1           0      -13.390141    2.996075    3.803341
    134          1           0      -16.116574    2.556487    2.789602
    135          1           0      -15.421817    5.293301    3.289716
    136          1           0      -16.417650    4.726097    4.650897
    137          1           0      -16.979199    4.459214    2.933825
    138          1           0      -15.367183    2.912441    5.793758
    139          1           0      -14.570640    1.656400    4.919527
    140          1           0      -16.290154    1.648207    4.851324
 ---------------------------------------------------------------------

 SCF Done:  E(RCAM-B3LYP) =  -3007.17247862     A.U. after   17 cycles

 Excitation energies and oscillator strengths:

 Excited State   1:      Singlet-A      1.7013 eV  728.75 nm  f=0.3638  <S**2>=0.000
     245 -> 248       -0.18260
     246 -> 247        0.68571
     245 <- 248       -0.11064
 This state for optimization and/or second-order correction.
 Total Energy, E(TD-HF/TD-DFT) =  -3007.10995598
 Copying the excited state density for this state as the 1-particle RhoCI density.

 Excited State   2:      Singlet-A      2.2939 eV  540.49 nm  f=0.0816  <S**2>=0.000
     245 -> 247        0.61822
     246 -> 248        0.33635

 Excited State   3:      Singlet-A      3.5252 eV  351.71 nm  f=0.0166  <S**2>=0.000
     241 -> 247        0.27976
     241 -> 249        0.20557
     241 -> 250       -0.10275
     242 -> 247        0.34888
     242 -> 249        0.24865
     242 -> 250       -0.12425
     243 -> 247        0.32839
     243 -> 249        0.10315
     246 -> 248       -0.10302

 Excited State   4:      Singlet-A      3.5276 eV  351.47 nm  f=0.7603  <S**2>=0.000
     241 -> 247        0.15813
     243 -> 247       -0.11179
     245 -> 247       -0.31152
     246 -> 248        0.58694
     245 <- 247        0.10955

 Excited State   5:      Singlet-A      3.6627 eV  338.51 nm  f=0.0751  <S**2>=0.000
     241 -> 249       -0.10523
     242 -> 247       -0.33725
     243 -> 247        0.57016
     246 -> 248        0.12396

 The electronic state is 1-A.
 Alpha  occ. eigenvalues --  -46.89271 -19.25779 -19.23761 -19.21090 -19.19426
 Alpha  occ. eigenvalues --  -19.18750 -19.18496 -14.42533 -14.41979 -14.40220
 Alpha  occ. eigenvalues --  -14.39418 -10.40451 -10.38148 -10.36212 -10.35042
 Alpha  occ. eigenvalues --  -10.31688 -10.31363 -10.31275 -10.31203 -10.31054
 Alpha  occ. eigenvalues --  -10.30985 -10.30373 -10.30105 -10.29945 -10.29122
 Alpha  occ. eigenvalues --  -10.29053 -10.28807 -10.28616 -10.28273 -10.28270
 Alpha  occ. eigenvalues --  -10.27973 -10.27968 -10.27900 -10.27728 -10.27605
 Alpha  occ. eigenvalues --  -10.27497 -10.27442 -10.27177 -10.27034 -10.26846
 Alpha  occ. eigenvalues --  -10.26752 -10.26595 -10.26517 -10.26133 -10.26031
 Alpha  occ. eigenvalues --  -10.25928 -10.25730 -10.25668 -10.25571 -10.25533
 Alpha  occ. eigenvalues --  -10.25519 -10.25493 -10.25392 -10.25153 -10.25014
 Alpha  occ. eigenvalues --  -10.24769 -10.24727 -10.24543 -10.24448 -10.24426
 Alpha  occ. eigenvalues --  -10.24409 -10.24366 -10.24328 -10.24304 -10.24250
 Alpha  occ. eigenvalues --  -10.23923  -3.17826  -1.92720  -1.92258  -1.92156
 Alpha  occ. eigenvalues --   -1.16103  -1.15570  -1.10522  -1.08490  -1.08003
 Alpha  occ. eigenvalues --   -1.06216  -1.05030  -1.04088  -1.03328  -1.02425
 Alpha  occ. eigenvalues --   -0.91966  -0.90989  -0.90663  -0.89875  -0.88735
 Alpha  occ. eigenvalues --   -0.88539  -0.88397  -0.87468  -0.87236  -0.87130
 Alpha  occ. eigenvalues --   -0.86436  -0.86126  -0.84731  -0.83816  -0.83252
 Alpha  occ. eigenvalues --   -0.82778  -0.82377  -0.81509  -0.80824  -0.80509
 Alpha  occ. eigenvalues --   -0.79979  -0.78610  -0.78225  -0.77151  -0.76296
 Alpha  occ. eigenvalues --   -0.76035  -0.75508  -0.75275  -0.74899  -0.73890
 Alpha  occ. eigenvalues --   -0.73402  -0.72731  -0.71711  -0.70461  -0.69840
 Alpha  occ. eigenvalues --   -0.68439  -0.68197  -0.67568  -0.66578  -0.65853
 Alpha  occ. eigenvalues --   -0.65373  -0.65313  -0.64332  -0.64269  -0.63767
 Alpha  occ. eigenvalues --   -0.63610  -0.63118  -0.62420  -0.61563  -0.60576
 Alpha  occ. eigenvalues --   -0.60337  -0.59534  -0.59389  -0.58614  -0.58001
 Alpha  occ. eigenvalues --   -0.57597  -0.57371  -0.57167  -0.56158  -0.55619
 Alpha  occ. eigenvalues --   -0.55385  -0.55188  -0.54929  -0.54407  -0.54171
 Alpha  occ. eigenvalues --   -0.54064  -0.53692  -0.53584  -0.52956  -0.52716
 Alpha  occ. eigenvalues --   -0.52577  -0.52487  -0.52267  -0.52146  -0.51629
 Alpha  occ. eigenvalues --   -0.51528  -0.51047  -0.50971  -0.50939  -0.50775
 Alpha  occ. eigenvalues --   -0.50447  -0.50261  -0.50024  -0.49709  -0.49436
 Alpha  occ. eigenvalues --   -0.49350  -0.49124  -0.49024  -0.48871  -0.48704
 Alpha  occ. eigenvalues --   -0.48667  -0.48532  -0.48275  -0.48123  -0.47823
 Alpha  occ. eigenvalues --   -0.47763  -0.47502  -0.46969  -0.46726  -0.46610
 Alpha  occ. eigenvalues --   -0.46483  -0.46097  -0.46009  -0.45732  -0.45658
 Alpha  occ. eigenvalues --   -0.45502  -0.45285  -0.45231  -0.44930  -0.44815
 Alpha  occ. eigenvalues --   -0.44582  -0.44510  -0.44262  -0.44138  -0.43914
 Alpha  occ. eigenvalues --   -0.43716  -0.43587  -0.43360  -0.43224  -0.42967
 Alpha  occ. eigenvalues --   -0.42714  -0.42438  -0.42257  -0.42149  -0.42044
 Alpha  occ. eigenvalues --   -0.41968  -0.41784  -0.41663  -0.41571  -0.41472
 Alpha  occ. eigenvalues --   -0.41350  -0.41199  -0.40819  -0.40600  -0.40323
 Alpha  occ. eigenvalues --   -0.39974  -0.39956  -0.39614  -0.39366  -0.38632
 Alpha  occ. eigenvalues --   -0.38527  -0.38221  -0.37846  -0.37794  -0.37727
 Alpha  occ. eigenvalues --   -0.37567  -0.37464  -0.36859  -0.36658  -0.36493
 Alpha  occ. eigenvalues --   -0.35873  -0.35780  -0.35362  -0.34388  -0.34261
 Alpha  occ. eigenvalues --   -0.33512  -0.33069  -0.32799  -0.31612  -0.31166
 Alpha  occ. eigenvalues --   -0.30959  -0.30833  -0.30099  -0.28993  -0.24232
 Alpha  occ. eigenvalues --   -0.20891
 Alpha virt. eigenvalues --   -0.08358  -0.01760   0.00198   0.01819   0.01938
 Alpha virt. eigenvalues --    0.03557   0.05389   0.05618   0.05810   0.06626
 Alpha virt. eigenvalues --    0.08002   0.08430   0.08850   0.08977   0.09163

 Mulliken charges:
               1
     1  Mg   0.841299
     2  C   -0.037178
     3  C   -0.080175
     4  C   -0.063266
     5  C   -0.064484
     6  N   -0.281098
     7  C   -0.058822
     8  C    0.017033
     9  C   -0.119330
    10  C    0.006618
    11  C    0.055947
    12  C    0.088603
    13  C    0.059201
    14  C    0.202987
    15  O   -0.213011
    16  O   -0.358231
    17  N   -0.391891
    18  C    0.200841
    19  C   -0.149306
    20  C   -0.032199
    21  C    0.156659
    22  C    0.108419
    23  C   -0.019697
    24  O   -0.213136
    25  C    0.084723
    26  N   -0.292034
    27  C   -0.021364
    28  C   -0.007505
    29  C   -0.006831
    30  C   -0.008085
    31  C    0.058095
    32  C    0.014504
    33  C   -0.000033
    34  N   -0.281839
    35  C    0.125826
    36  C   -0.180455
    37  C   -0.013383
    38  C    0.083084
    39  C    0.111514
    40  C    0.131325
    41  O   -0.193036
    42  C   -0.019012
    43  C    0.180283
    44  O   -0.209776
    45  O   -0.363187
    46  C    0.174725
    47  C    0.305693
    48  C   -0.120075
    49  C   -0.215921
    50  C    0.095260
    51  C    0.066025
    52  C   -0.004631
    53  C    0.065907
    54  C   -0.157109
    55  C    0.074010
    56  C    0.019323
    57  C    0.085414
    58  C    0.071698
    59  C   -0.149751
    60  C    0.030403
    61  C    0.055769
    62  C    0.024773
    63  C    0.038490
    64  C   -0.173911
    65  C    0.054177
    66  C    0.033938
    67  H   -0.036962
    68  H   -0.010577
    69  H   -0.027383
    70  H    0.017499
    71  H    0.013738
    72  H    0.021755
    73  H    0.024502
    74  H    0.017977
    75  H    0.004253
    76  H    0.020529
    77  H    0.014671
    78  H    0.032290
    79  H    0.028685
    80  H    0.032473
    81  H    0.027395
    82  H    0.040384
    83  H    0.048463
    84  H    0.012753
    85  H    0.015459
    86  H    0.006814
    87  H    0.025436
    88  H    0.025153
    89  H    0.019994
    90  H    0.015137
    91  H    0.008202
    92  H    0.029963
    93  H    0.024779
    94  H    0.022376
    95  H    0.030954
    96  H    0.009274
    97  H    0.029351
    98  H    0.054714
    99  H    0.037779
   100  H    0.038469
   101  H    0.044543
   102  H    0.041884
   103  H    0.022538
   104  H   -0.013931
   105  H    0.023994
   106  H    0.016530
   107  H    0.010640
   108  H   -0.006924
   109  H    0.012021
   110  H    0.000399
   111  H    0.003215
   112  H   -0.020420
   113  H   -0.008514
   114  H   -0.013005
   115  H    0.018220
   116  H    0.007262
   117  H   -0.004760
   118  H    0.005367
   119  H   -0.010297
   120  H   -0.008511
   121  H   -0.008116
   122  H   -0.001975
   123  H   -0.013586
   124  H   -0.012681
   125  H   -0.013170
   126  H    0.001228
   127  H    0.016390
   128  H    0.002511
   129  H   -0.005284
   130  H   -0.005506
   131  H   -0.004026
   132  H   -0.015532
   133  H   -0.017335
   134  H    0.000709
   135  H    0.007763
   136  H    0.010789
   137  H    0.013851
   138  H    0.018777
   139  H    0.000651
   140  H    0.005194
 Sum of Mulliken charges =  -0.00000

 Dipole moment (field-independent basis, Debye):
    X=             -2.3707    Y=              5.3813    Z=             -1.6897  Tot=              6.1183
 Quadrupole moment (field-independent basis, Debye-Ang):
   XX=           -387.3233   YY=           -424.7161   ZZ=           -401.0528
   XY=             28.9901   XZ=             19.6711   YZ=             -2.9731

 Normal termination of Gaussian 16 at Wed May  4 11:26:21 2022.
