 Gaussian 16, Revision A.03,
 Gaussian 16:  ES64L-G16RevA.03 25-Dec-2016

 ---------------------------------
 #p PBE1PBE/Def2SVP td=(nstates=5)
 ---------------------------------

 ------------------------------------------------------
 step_1701_chromophore_10 TDDFT with PBE1PBE functional
 ------------------------------------------------------
 Symbolic Z-matrix:
 Charge =  0 Multiplicity = 1

                         Standard orientation:
 ---------------------------------------------------------------------
 Center     Atomic      Atomic             Coordinates (Angstroms)
 Number     Number       Type             X           Y           Z
 ---------------------------------------------------------------------
      1         12           0        6.007189    0.750221    0.184315
      2          6           0        3.968013   -2.160049    0.179923
      3          6           0        3.882832    2.233609   -1.856402
      4          6           0        8.284132    3.150013   -0.139097
      5          6           0        8.529618   -1.235905    1.869311
      6          7           0        4.101265    0.109400   -0.651495
      7          6           0        3.399814   -1.057822   -0.502520
      8          6           0        1.991480   -1.011233   -1.161116
      9          6           0        2.111799    0.333082   -1.970339
     10          6           0        3.504814    0.910272   -1.546650
     11          6           0        2.075125    0.170994   -3.545921
     12          6           0        0.873868   -1.100346   -0.122580
     13          6           0       -0.403506   -1.659375   -0.672346
     14          6           0       -1.454378   -2.224024    0.199348
     15          8           0       -1.720312   -1.864981    1.341972
     16          8           0       -2.235872   -3.133706   -0.556909
     17          7           0        5.970563    2.515381   -0.736520
     18          6           0        4.983693    2.998905   -1.507819
     19          6           0        5.278940    4.393737   -1.897928
     20          6           0        6.550024    4.639366   -1.346943
     21          6           0        7.009549    3.370925   -0.732852
     22          6           0        4.363463    5.250641   -2.844475
     23          6           0        7.249173    6.000788   -1.399986
     24          8           0        8.372787    6.036021   -0.918265
     25          6           0        6.598023    7.262047   -1.740054
     26          7           0        8.097035    0.907545    0.750535
     27          6           0        8.786113    2.091339    0.553162
     28          6           0       10.135511    2.155547    1.220093
     29          6           0       10.180256    0.809230    2.027426
     30          6           0        8.868826    0.129352    1.592184
     31          6           0       11.320944    2.395989    0.211121
     32          6           0       10.252024    1.014325    3.566200
     33          6           0        8.968628    1.621224    4.280456
     34          7           0        6.309789   -1.351618    0.737040
     35          6           0        7.345213   -1.944322    1.475153
     36          6           0        6.911756   -3.295650    1.782260
     37          6           0        5.613323   -3.457070    1.362543
     38          6           0        5.311692   -2.196564    0.652597
     39          6           0        7.751956   -4.345266    2.472958
     40          6           0        4.415314   -4.355473    1.284660
     41          8           0        4.133596   -5.500093    1.717194
     42          6           0        3.281556   -3.483522    0.523477
     43          6           0        2.796408   -4.250842   -0.573944
     44          8           0        3.351272   -4.750074   -1.535031
     45          8           0        1.444779   -4.385909   -0.446936
     46          6           0        0.578296   -5.028670   -1.461038
     47          6           0       -3.491327   -3.499299    0.068202
     48          6           0       -4.659497   -3.154260   -0.804651
     49          6           0       -5.840032   -3.787208   -0.982084
     50          6           0       -6.348401   -4.968172   -0.200583
     51          6           0       -6.781030   -3.310026   -2.090609
     52          6           0       -7.233787   -1.861734   -1.793014
     53          6           0       -8.526070   -1.550145   -2.486946
     54          6           0       -9.778185   -0.989428   -1.659033
     55          6           0      -11.165849   -1.489893   -2.079801
     56          6           0       -9.642315    0.545611   -1.860359
     57          6           0      -10.374224    1.340168   -0.814292
     58          6           0      -11.620290    1.981780   -1.365291
     59          6           0      -12.907630    1.699776   -0.540502
     60          6           0      -14.185456    1.765506   -1.451398
     61          6           0      -13.038499    2.669581    0.674786
     62          6           0      -13.652573    2.022501    1.914739
     63          6           0      -14.066260    3.144078    2.961659
     64          6           0      -15.478398    3.097176    3.488357
     65          6           0      -16.132422    4.534544    3.616462
     66          6           0      -15.433317    2.321813    4.880293
     67          1           0        3.024162    2.570074   -2.438936
     68          1           0        9.018539    3.958273   -0.134233
     69          1           0        9.303797   -1.743768    2.447978
     70          1           0        1.949735   -1.836605   -1.873103
     71          1           0        1.259381    0.984978   -1.783524
     72          1           0        2.041339   -0.875184   -3.847383
     73          1           0        3.009149    0.574246   -3.937401
     74          1           0        1.210328    0.725924   -3.910398
     75          1           0        0.712064   -0.062547    0.169750
     76          1           0        1.166218   -1.655746    0.768807
     77          1           0       -0.162289   -2.395439   -1.439191
     78          1           0       -0.816231   -0.789068   -1.181413
     79          1           0        5.038250    5.646937   -3.604136
     80          1           0        3.954077    6.125681   -2.338993
     81          1           0        3.634031    4.672997   -3.412548
     82          1           0        7.404383    7.995099   -1.744956
     83          1           0        5.810707    7.408100   -1.000283
     84          1           0        6.114247    7.193836   -2.714553
     85          1           0        9.996305    2.992822    1.904312
     86          1           0       11.055634    0.268215    1.667947
     87          1           0       11.698953    3.399504    0.016643
     88          1           0       10.888282    2.134848   -0.754075
     89          1           0       12.195822    1.815702    0.505594
     90          1           0       11.120314    1.650462    3.738842
     91          1           0       10.405650   -0.000094    3.935350
     92          1           0        8.241281    1.858893    3.504644
     93          1           0        9.290644    2.472022    4.881355
     94          1           0        8.547896    0.858042    4.936090
     95          1           0        7.205749   -5.114612    3.018447
     96          1           0        8.507580   -3.895845    3.116304
     97          1           0        8.273916   -4.925328    1.711090
     98          1           0        2.451895   -3.268419    1.197712
     99          1           0        0.586239   -4.623661   -2.473585
    100          1           0       -0.398926   -4.810611   -1.029655
    101          1           0        0.748050   -6.104229   -1.491557
    102          1           0       -3.702253   -2.891193    0.947897
    103          1           0       -3.602172   -4.538603    0.378584
    104          1           0       -4.492181   -2.449467   -1.618564
    105          1           0       -6.342569   -5.876014   -0.803336
    106          1           0       -7.406074   -4.833244    0.026979
    107          1           0       -5.701213   -5.117969    0.663852
    108          1           0       -7.640540   -3.980043   -2.100764
    109          1           0       -6.324571   -3.225725   -3.077540
    110          1           0       -6.455141   -1.180166   -2.134700
    111          1           0       -7.264228   -1.819504   -0.703886
    112          1           0       -8.801113   -2.483962   -2.976784
    113          1           0       -8.248403   -0.857740   -3.282338
    114          1           0       -9.672171   -1.202211   -0.595951
    115          1           0      -11.854904   -1.725375   -1.268864
    116          1           0      -11.033389   -2.315588   -2.779199
    117          1           0      -11.603953   -0.632401   -2.591251
    118          1           0       -9.950571    0.645371   -2.901597
    119          1           0       -8.576281    0.739884   -1.743080
    120          1           0       -9.628897    2.010408   -0.385093
    121          1           0      -10.664924    0.753526    0.056766
    122          1           0      -11.920060    1.858350   -2.406174
    123          1           0      -11.444691    3.048721   -1.225380
    124          1           0      -12.979774    0.672931   -0.181820
    125          1           0      -15.057885    1.806032   -0.799955
    126          1           0      -14.434673    0.809470   -1.910899
    127          1           0      -14.205092    2.588373   -2.165679
    128          1           0      -13.614365    3.541350    0.365231
    129          1           0      -12.020560    2.972384    0.921591
    130          1           0      -12.933857    1.376756    2.419397
    131          1           0      -14.522422    1.382899    1.766827
    132          1           0      -13.794096    4.165645    2.697089
    133          1           0      -13.390141    2.996075    3.803341
    134          1           0      -16.116574    2.556487    2.789602
    135          1           0      -15.421817    5.293301    3.289716
    136          1           0      -16.417650    4.726097    4.650897
    137          1           0      -16.979199    4.459214    2.933825
    138          1           0      -15.367183    2.912441    5.793758
    139          1           0      -14.570640    1.656400    4.919527
    140          1           0      -16.290154    1.648207    4.851324
 ---------------------------------------------------------------------

 SCF Done:  E(RPBE1PBE) =  -3005.36006156     A.U. after   15 cycles

 Excitation energies and oscillator strengths:

 Excited State   1:      Singlet-A      1.8598 eV  666.66 nm  f=0.3544  <S**2>=0.000
     245 -> 248        0.17504
     246 -> 247        0.69313
     246 <- 247       -0.10579
 This state for optimization and/or second-order correction.
 Total Energy, E(TD-HF/TD-DFT) =  -3005.29171610
 Copying the excited state density for this state as the 1-particle RhoCI density.

 Excited State   2:      Singlet-A      2.3017 eV  538.67 nm  f=0.0901  <S**2>=0.000
     245 -> 247        0.63398
     246 -> 248       -0.30710

 Excited State   3:      Singlet-A      3.0900 eV  401.24 nm  f=0.0006  <S**2>=0.000
     241 -> 247        0.31948
     241 -> 249       -0.13343
     243 -> 247        0.58080
     243 -> 249       -0.15372

 Excited State   4:      Singlet-A      3.1930 eV  388.31 nm  f=0.0011  <S**2>=0.000
     242 -> 247        0.66599
     242 -> 249        0.15769
     242 -> 250        0.13626

 Excited State   5:      Singlet-A      3.2781 eV  378.22 nm  f=0.0435  <S**2>=0.000
     241 -> 247        0.55476
     243 -> 247       -0.32659
     246 -> 248       -0.24719

 The electronic state is 1-A.
 Alpha  occ. eigenvalues --  -46.92690 -19.26478 -19.24390 -19.21361 -19.19703
 Alpha  occ. eigenvalues --  -19.18920 -19.18663 -14.42029 -14.41550 -14.39823
 Alpha  occ. eigenvalues --  -14.39097 -10.37463 -10.35088 -10.33435 -10.32135
 Alpha  occ. eigenvalues --  -10.29099 -10.29084 -10.28922 -10.28905 -10.28625
 Alpha  occ. eigenvalues --  -10.28593 -10.27989 -10.27958 -10.27660 -10.26814
 Alpha  occ. eigenvalues --  -10.26767 -10.26627 -10.26442 -10.26114 -10.25855
 Alpha  occ. eigenvalues --  -10.25656 -10.25635 -10.25597 -10.25460 -10.25215
 Alpha  occ. eigenvalues --  -10.25150 -10.25144 -10.24786 -10.24645 -10.24540
 Alpha  occ. eigenvalues --  -10.24251 -10.24005 -10.23991 -10.23660 -10.23565
 Alpha  occ. eigenvalues --  -10.23402 -10.23384 -10.23354 -10.23241 -10.23196
 Alpha  occ. eigenvalues --  -10.23090 -10.23056 -10.23035 -10.22703 -10.22549
 Alpha  occ. eigenvalues --  -10.22310 -10.22255 -10.22137 -10.21882 -10.21868
 Alpha  occ. eigenvalues --  -10.21831 -10.21820 -10.21815 -10.21812 -10.21707
 Alpha  occ. eigenvalues --  -10.21498  -3.14825  -1.87658  -1.87175  -1.87077
 Alpha  occ. eigenvalues --   -1.10889  -1.10301  -1.05209  -1.03354  -1.02756
 Alpha  occ. eigenvalues --   -1.00999  -0.99668  -0.98747  -0.98028  -0.97093
 Alpha  occ. eigenvalues --   -0.86286  -0.85180  -0.84815  -0.83972  -0.83051
 Alpha  occ. eigenvalues --   -0.82746  -0.82634  -0.81753  -0.81460  -0.81259
 Alpha  occ. eigenvalues --   -0.80828  -0.80391  -0.78914  -0.78159  -0.77490
 Alpha  occ. eigenvalues --   -0.76928  -0.76576  -0.75745  -0.75191  -0.74818
 Alpha  occ. eigenvalues --   -0.74101  -0.72840  -0.72516  -0.71473  -0.70619
 Alpha  occ. eigenvalues --   -0.70193  -0.69866  -0.69360  -0.69050  -0.68102
 Alpha  occ. eigenvalues --   -0.67750  -0.67139  -0.66136  -0.64774  -0.64257
 Alpha  occ. eigenvalues --   -0.62841  -0.62530  -0.61996  -0.60788  -0.60292
 Alpha  occ. eigenvalues --   -0.59873  -0.59536  -0.58890  -0.58800  -0.58301
 Alpha  occ. eigenvalues --   -0.57712  -0.57263  -0.56601  -0.56136  -0.55109
 Alpha  occ. eigenvalues --   -0.54823  -0.54166  -0.53754  -0.53235  -0.52504
 Alpha  occ. eigenvalues --   -0.52048  -0.51906  -0.51644  -0.50739  -0.50121
 Alpha  occ. eigenvalues --   -0.49948  -0.49723  -0.49454  -0.48940  -0.48637
 Alpha  occ. eigenvalues --   -0.48549  -0.48154  -0.47965  -0.47443  -0.47360
 Alpha  occ. eigenvalues --   -0.47061  -0.46999  -0.46819  -0.46672  -0.46294
 Alpha  occ. eigenvalues --   -0.46054  -0.45602  -0.45555  -0.45471  -0.45257
 Alpha  occ. eigenvalues --   -0.45002  -0.44801  -0.44589  -0.44284  -0.44006
 Alpha  occ. eigenvalues --   -0.43970  -0.43705  -0.43645  -0.43494  -0.43338
 Alpha  occ. eigenvalues --   -0.43305  -0.43106  -0.42802  -0.42722  -0.42454
 Alpha  occ. eigenvalues --   -0.42356  -0.42189  -0.41585  -0.41298  -0.41226
 Alpha  occ. eigenvalues --   -0.41145  -0.40746  -0.40715  -0.40480  -0.40465
 Alpha  occ. eigenvalues --   -0.40254  -0.40096  -0.39996  -0.39654  -0.39509
 Alpha  occ. eigenvalues --   -0.39349  -0.39236  -0.38982  -0.38895  -0.38705
 Alpha  occ. eigenvalues --   -0.38497  -0.38318  -0.38181  -0.38015  -0.37805
 Alpha  occ. eigenvalues --   -0.37467  -0.37238  -0.36994  -0.36944  -0.36897
 Alpha  occ. eigenvalues --   -0.36793  -0.36683  -0.36584  -0.36428  -0.36275
 Alpha  occ. eigenvalues --   -0.36185  -0.36042  -0.35711  -0.35310  -0.35042
 Alpha  occ. eigenvalues --   -0.34880  -0.34727  -0.34573  -0.34258  -0.33532
 Alpha  occ. eigenvalues --   -0.33393  -0.33027  -0.32829  -0.32609  -0.32546
 Alpha  occ. eigenvalues --   -0.32490  -0.32350  -0.31947  -0.31575  -0.31411
 Alpha  occ. eigenvalues --   -0.30767  -0.30619  -0.30160  -0.29620  -0.29189
 Alpha  occ. eigenvalues --   -0.28785  -0.28028  -0.27924  -0.27124  -0.26479
 Alpha  occ. eigenvalues --   -0.25965  -0.25870  -0.25630  -0.24282  -0.21152
 Alpha  occ. eigenvalues --   -0.18590
 Alpha virt. eigenvalues --   -0.10910  -0.05238  -0.04041  -0.02515  -0.01126
 Alpha virt. eigenvalues --   -0.00863   0.00897   0.01070   0.01380   0.03206
 Alpha virt. eigenvalues --    0.03830   0.04510   0.05268   0.05730   0.05808

 Mulliken charges:
               1
     1  Mg   0.987357
     2  C   -0.044442
     3  C   -0.072075
     4  C   -0.048709
     5  C   -0.059068
     6  N   -0.388272
     7  C    0.015674
     8  C   -0.050266
     9  C   -0.197028
    10  C    0.046804
    11  C    0.002173
    12  C    0.035734
    13  C   -0.021457
    14  C    0.270162
    15  O   -0.248022
    16  O   -0.388839
    17  N   -0.514376
    18  C    0.214339
    19  C   -0.165308
    20  C   -0.085544
    21  C    0.183668
    22  C    0.048656
    23  C    0.033445
    24  O   -0.248708
    25  C    0.010109
    26  N   -0.390629
    27  C    0.006100
    28  C   -0.077493
    29  C   -0.087322
    30  C    0.031590
    31  C   -0.000862
    32  C   -0.044107
    33  C   -0.076834
    34  N   -0.407913
    35  C    0.149465
    36  C   -0.210843
    37  C   -0.056714
    38  C    0.142900
    39  C    0.062815
    40  C    0.223587
    41  O   -0.236629
    42  C   -0.135788
    43  C    0.283099
    44  O   -0.250380
    45  O   -0.396687
    46  C    0.116425
    47  C    0.261233
    48  C   -0.130828
    49  C   -0.260446
    50  C    0.031070
    51  C    0.000366
    52  C   -0.061785
    53  C    0.005867
    54  C   -0.237523
    55  C    0.015636
    56  C   -0.045144
    57  C    0.028782
    58  C    0.011804
    59  C   -0.232435
    60  C   -0.030228
    61  C   -0.002746
    62  C   -0.036361
    63  C   -0.015552
    64  C   -0.262487
    65  C   -0.005083
    66  C   -0.028461
    67  H   -0.003270
    68  H    0.022229
    69  H    0.005072
    70  H    0.056244
    71  H    0.048944
    72  H    0.048628
    73  H    0.052561
    74  H    0.044605
    75  H    0.038140
    76  H    0.054580
    77  H    0.049543
    78  H    0.065967
    79  H    0.056496
    80  H    0.059659
    81  H    0.053681
    82  H    0.066671
    83  H    0.075483
    84  H    0.039848
    85  H    0.053651
    86  H    0.043539
    87  H    0.052279
    88  H    0.053866
    89  H    0.047000
    90  H    0.048269
    91  H    0.041883
    92  H    0.061528
    93  H    0.052427
    94  H    0.050431
    95  H    0.057993
    96  H    0.035990
    97  H    0.058086
    98  H    0.092636
    99  H    0.058032
   100  H    0.064021
   101  H    0.067183
   102  H    0.070641
   103  H    0.049198
   104  H    0.016947
   105  H    0.052496
   106  H    0.044327
   107  H    0.038073
   108  H    0.025147
   109  H    0.045762
   110  H    0.032301
   111  H    0.037129
   112  H    0.012474
   113  H    0.024381
   114  H    0.024696
   115  H    0.044579
   116  H    0.034676
   117  H    0.024969
   118  H    0.037713
   119  H    0.025945
   120  H    0.023465
   121  H    0.023563
   122  H    0.028393
   123  H    0.021556
   124  H    0.025836
   125  H    0.015970
   126  H    0.029469
   127  H    0.043347
   128  H    0.035013
   129  H    0.028886
   130  H    0.027140
   131  H    0.026838
   132  H    0.015146
   133  H    0.016902
   134  H    0.037183
   135  H    0.034444
   136  H    0.037846
   137  H    0.040956
   138  H    0.045002
   139  H    0.028854
   140  H    0.033376
 Sum of Mulliken charges =  -0.00000

 Dipole moment (field-independent basis, Debye):
    X=             -2.2504    Y=              5.3175    Z=             -1.5779  Tot=              5.9858
 Quadrupole moment (field-independent basis, Debye-Ang):
   XX=           -381.0516   YY=           -422.4558   ZZ=           -398.0845
   XY=             28.6405   XZ=             21.4197   YZ=             -3.0283

 Normal termination of Gaussian 16 at Wed May  4 11:47:42 2022.
