 Gaussian 16, Revision A.03,
 Gaussian 16:  ES64L-G16RevA.03 25-Dec-2016

 --------------------------------
 #p wB97XD/Def2SVP td=(nstates=5)
 --------------------------------

 -----------------------------------------------------
 step_1701_chromophore_10 TDDFT with wB97XD functional
 -----------------------------------------------------
 Symbolic Z-matrix:
 Charge =  0 Multiplicity = 1

                         Standard orientation:
 ---------------------------------------------------------------------
 Center     Atomic      Atomic             Coordinates (Angstroms)
 Number     Number       Type             X           Y           Z
 ---------------------------------------------------------------------
      1         12           0        6.007189    0.750221    0.184315
      2          6           0        3.968013   -2.160049    0.179923
      3          6           0        3.882832    2.233609   -1.856402
      4          6           0        8.284132    3.150013   -0.139097
      5          6           0        8.529618   -1.235905    1.869311
      6          7           0        4.101265    0.109400   -0.651495
      7          6           0        3.399814   -1.057822   -0.502520
      8          6           0        1.991480   -1.011233   -1.161116
      9          6           0        2.111799    0.333082   -1.970339
     10          6           0        3.504814    0.910272   -1.546650
     11          6           0        2.075125    0.170994   -3.545921
     12          6           0        0.873868   -1.100346   -0.122580
     13          6           0       -0.403506   -1.659375   -0.672346
     14          6           0       -1.454378   -2.224024    0.199348
     15          8           0       -1.720312   -1.864981    1.341972
     16          8           0       -2.235872   -3.133706   -0.556909
     17          7           0        5.970563    2.515381   -0.736520
     18          6           0        4.983693    2.998905   -1.507819
     19          6           0        5.278940    4.393737   -1.897928
     20          6           0        6.550024    4.639366   -1.346943
     21          6           0        7.009549    3.370925   -0.732852
     22          6           0        4.363463    5.250641   -2.844475
     23          6           0        7.249173    6.000788   -1.399986
     24          8           0        8.372787    6.036021   -0.918265
     25          6           0        6.598023    7.262047   -1.740054
     26          7           0        8.097035    0.907545    0.750535
     27          6           0        8.786113    2.091339    0.553162
     28          6           0       10.135511    2.155547    1.220093
     29          6           0       10.180256    0.809230    2.027426
     30          6           0        8.868826    0.129352    1.592184
     31          6           0       11.320944    2.395989    0.211121
     32          6           0       10.252024    1.014325    3.566200
     33          6           0        8.968628    1.621224    4.280456
     34          7           0        6.309789   -1.351618    0.737040
     35          6           0        7.345213   -1.944322    1.475153
     36          6           0        6.911756   -3.295650    1.782260
     37          6           0        5.613323   -3.457070    1.362543
     38          6           0        5.311692   -2.196564    0.652597
     39          6           0        7.751956   -4.345266    2.472958
     40          6           0        4.415314   -4.355473    1.284660
     41          8           0        4.133596   -5.500093    1.717194
     42          6           0        3.281556   -3.483522    0.523477
     43          6           0        2.796408   -4.250842   -0.573944
     44          8           0        3.351272   -4.750074   -1.535031
     45          8           0        1.444779   -4.385909   -0.446936
     46          6           0        0.578296   -5.028670   -1.461038
     47          6           0       -3.491327   -3.499299    0.068202
     48          6           0       -4.659497   -3.154260   -0.804651
     49          6           0       -5.840032   -3.787208   -0.982084
     50          6           0       -6.348401   -4.968172   -0.200583
     51          6           0       -6.781030   -3.310026   -2.090609
     52          6           0       -7.233787   -1.861734   -1.793014
     53          6           0       -8.526070   -1.550145   -2.486946
     54          6           0       -9.778185   -0.989428   -1.659033
     55          6           0      -11.165849   -1.489893   -2.079801
     56          6           0       -9.642315    0.545611   -1.860359
     57          6           0      -10.374224    1.340168   -0.814292
     58          6           0      -11.620290    1.981780   -1.365291
     59          6           0      -12.907630    1.699776   -0.540502
     60          6           0      -14.185456    1.765506   -1.451398
     61          6           0      -13.038499    2.669581    0.674786
     62          6           0      -13.652573    2.022501    1.914739
     63          6           0      -14.066260    3.144078    2.961659
     64          6           0      -15.478398    3.097176    3.488357
     65          6           0      -16.132422    4.534544    3.616462
     66          6           0      -15.433317    2.321813    4.880293
     67          1           0        3.024162    2.570074   -2.438936
     68          1           0        9.018539    3.958273   -0.134233
     69          1           0        9.303797   -1.743768    2.447978
     70          1           0        1.949735   -1.836605   -1.873103
     71          1           0        1.259381    0.984978   -1.783524
     72          1           0        2.041339   -0.875184   -3.847383
     73          1           0        3.009149    0.574246   -3.937401
     74          1           0        1.210328    0.725924   -3.910398
     75          1           0        0.712064   -0.062547    0.169750
     76          1           0        1.166218   -1.655746    0.768807
     77          1           0       -0.162289   -2.395439   -1.439191
     78          1           0       -0.816231   -0.789068   -1.181413
     79          1           0        5.038250    5.646937   -3.604136
     80          1           0        3.954077    6.125681   -2.338993
     81          1           0        3.634031    4.672997   -3.412548
     82          1           0        7.404383    7.995099   -1.744956
     83          1           0        5.810707    7.408100   -1.000283
     84          1           0        6.114247    7.193836   -2.714553
     85          1           0        9.996305    2.992822    1.904312
     86          1           0       11.055634    0.268215    1.667947
     87          1           0       11.698953    3.399504    0.016643
     88          1           0       10.888282    2.134848   -0.754075
     89          1           0       12.195822    1.815702    0.505594
     90          1           0       11.120314    1.650462    3.738842
     91          1           0       10.405650   -0.000094    3.935350
     92          1           0        8.241281    1.858893    3.504644
     93          1           0        9.290644    2.472022    4.881355
     94          1           0        8.547896    0.858042    4.936090
     95          1           0        7.205749   -5.114612    3.018447
     96          1           0        8.507580   -3.895845    3.116304
     97          1           0        8.273916   -4.925328    1.711090
     98          1           0        2.451895   -3.268419    1.197712
     99          1           0        0.586239   -4.623661   -2.473585
    100          1           0       -0.398926   -4.810611   -1.029655
    101          1           0        0.748050   -6.104229   -1.491557
    102          1           0       -3.702253   -2.891193    0.947897
    103          1           0       -3.602172   -4.538603    0.378584
    104          1           0       -4.492181   -2.449467   -1.618564
    105          1           0       -6.342569   -5.876014   -0.803336
    106          1           0       -7.406074   -4.833244    0.026979
    107          1           0       -5.701213   -5.117969    0.663852
    108          1           0       -7.640540   -3.980043   -2.100764
    109          1           0       -6.324571   -3.225725   -3.077540
    110          1           0       -6.455141   -1.180166   -2.134700
    111          1           0       -7.264228   -1.819504   -0.703886
    112          1           0       -8.801113   -2.483962   -2.976784
    113          1           0       -8.248403   -0.857740   -3.282338
    114          1           0       -9.672171   -1.202211   -0.595951
    115          1           0      -11.854904   -1.725375   -1.268864
    116          1           0      -11.033389   -2.315588   -2.779199
    117          1           0      -11.603953   -0.632401   -2.591251
    118          1           0       -9.950571    0.645371   -2.901597
    119          1           0       -8.576281    0.739884   -1.743080
    120          1           0       -9.628897    2.010408   -0.385093
    121          1           0      -10.664924    0.753526    0.056766
    122          1           0      -11.920060    1.858350   -2.406174
    123          1           0      -11.444691    3.048721   -1.225380
    124          1           0      -12.979774    0.672931   -0.181820
    125          1           0      -15.057885    1.806032   -0.799955
    126          1           0      -14.434673    0.809470   -1.910899
    127          1           0      -14.205092    2.588373   -2.165679
    128          1           0      -13.614365    3.541350    0.365231
    129          1           0      -12.020560    2.972384    0.921591
    130          1           0      -12.933857    1.376756    2.419397
    131          1           0      -14.522422    1.382899    1.766827
    132          1           0      -13.794096    4.165645    2.697089
    133          1           0      -13.390141    2.996075    3.803341
    134          1           0      -16.116574    2.556487    2.789602
    135          1           0      -15.421817    5.293301    3.289716
    136          1           0      -16.417650    4.726097    4.650897
    137          1           0      -16.979199    4.459214    2.933825
    138          1           0      -15.367183    2.912441    5.793758
    139          1           0      -14.570640    1.656400    4.919527
    140          1           0      -16.290154    1.648207    4.851324
 ---------------------------------------------------------------------

 SCF Done:  E(RwB97XD) =  -3007.87092838     A.U. after   20 cycles

 Excitation energies and oscillator strengths:

 Excited State   1:      Singlet-A      1.6439 eV  754.21 nm  f=0.3617  <S**2>=0.000
     245 -> 248       -0.18838
     246 -> 247        0.68351
     245 <- 248       -0.12010
 This state for optimization and/or second-order correction.
 Total Energy, E(TD-HF/TD-DFT) =  -3007.81051660
 Copying the excited state density for this state as the 1-particle RhoCI density.

 Excited State   2:      Singlet-A      2.2381 eV  553.97 nm  f=0.0804  <S**2>=0.000
     245 -> 247        0.61729
     246 -> 248        0.33723

 Excited State   3:      Singlet-A      3.5391 eV  350.33 nm  f=0.7781  <S**2>=0.000
     243 -> 247       -0.19840
     245 -> 247       -0.31068
     246 -> 248        0.59220
     245 <- 247        0.11531

 Excited State   4:      Singlet-A      3.5587 eV  348.40 nm  f=0.0136  <S**2>=0.000
     242 -> 247        0.41959
     242 -> 249        0.34108
     242 -> 250       -0.19953
     243 -> 247        0.30947
     243 -> 249        0.12357

 Excited State   5:      Singlet-A      3.6920 eV  335.82 nm  f=0.0788  <S**2>=0.000
     240 -> 247       -0.12330
     241 -> 247        0.10611
     242 -> 247       -0.34531
     243 -> 247        0.53862
     246 -> 248        0.12493

 The electronic state is 1-A.
 Alpha  occ. eigenvalues --  -46.95607 -19.31031 -19.28995 -19.26035 -19.24519
 Alpha  occ. eigenvalues --  -19.23770 -19.23441 -14.47131 -14.46583 -14.44818
 Alpha  occ. eigenvalues --  -14.44004 -10.44276 -10.41977 -10.40298 -10.38993
 Alpha  occ. eigenvalues --  -10.35580 -10.35318 -10.35238 -10.35164 -10.35080
 Alpha  occ. eigenvalues --  -10.35047 -10.34420 -10.34145 -10.33967 -10.33306
 Alpha  occ. eigenvalues --  -10.33052 -10.32874 -10.32701 -10.32417 -10.32235
 Alpha  occ. eigenvalues --  -10.32018 -10.32015 -10.32013 -10.31661 -10.31649
 Alpha  occ. eigenvalues --  -10.31608 -10.31487 -10.31166 -10.31090 -10.30789
 Alpha  occ. eigenvalues --  -10.30616 -10.30596 -10.30394 -10.30010 -10.29859
 Alpha  occ. eigenvalues --  -10.29802 -10.29758 -10.29616 -10.29563 -10.29518
 Alpha  occ. eigenvalues --  -10.29441 -10.29431 -10.29377 -10.29089 -10.28932
 Alpha  occ. eigenvalues --  -10.28691 -10.28649 -10.28496 -10.28270 -10.28265
 Alpha  occ. eigenvalues --  -10.28257 -10.28238 -10.28233 -10.28173 -10.28141
 Alpha  occ. eigenvalues --  -10.27841  -3.21607  -1.95191  -1.94705  -1.94601
 Alpha  occ. eigenvalues --   -1.18278  -1.17741  -1.12729  -1.10704  -1.10266
 Alpha  occ. eigenvalues --   -1.08414  -1.07069  -1.06114  -1.05346  -1.04440
 Alpha  occ. eigenvalues --   -0.93919  -0.92833  -0.92477  -0.91649  -0.90658
 Alpha  occ. eigenvalues --   -0.90305  -0.90282  -0.89413  -0.89160  -0.88920
 Alpha  occ. eigenvalues --   -0.88386  -0.88022  -0.86572  -0.85769  -0.85157
 Alpha  occ. eigenvalues --   -0.84688  -0.84222  -0.83383  -0.82781  -0.82441
 Alpha  occ. eigenvalues --   -0.81784  -0.80565  -0.80149  -0.79068  -0.78238
 Alpha  occ. eigenvalues --   -0.77876  -0.77443  -0.77062  -0.76727  -0.75742
 Alpha  occ. eigenvalues --   -0.75332  -0.74694  -0.73674  -0.72386  -0.71776
 Alpha  occ. eigenvalues --   -0.70404  -0.70133  -0.69585  -0.68434  -0.67811
 Alpha  occ. eigenvalues --   -0.67322  -0.67207  -0.66315  -0.66234  -0.65756
 Alpha  occ. eigenvalues --   -0.65406  -0.64933  -0.64248  -0.63556  -0.62565
 Alpha  occ. eigenvalues --   -0.62304  -0.61524  -0.61289  -0.60605  -0.59968
 Alpha  occ. eigenvalues --   -0.59511  -0.59357  -0.59146  -0.58150  -0.57564
 Alpha  occ. eigenvalues --   -0.57337  -0.57114  -0.56864  -0.56327  -0.56024
 Alpha  occ. eigenvalues --   -0.56014  -0.55589  -0.55501  -0.54854  -0.54683
 Alpha  occ. eigenvalues --   -0.54475  -0.54405  -0.54155  -0.54051  -0.53572
 Alpha  occ. eigenvalues --   -0.53411  -0.52924  -0.52909  -0.52831  -0.52742
 Alpha  occ. eigenvalues --   -0.52349  -0.52204  -0.51976  -0.51646  -0.51316
 Alpha  occ. eigenvalues --   -0.51245  -0.51004  -0.50955  -0.50798  -0.50635
 Alpha  occ. eigenvalues --   -0.50621  -0.50429  -0.50155  -0.50010  -0.49754
 Alpha  occ. eigenvalues --   -0.49658  -0.49437  -0.48868  -0.48569  -0.48433
 Alpha  occ. eigenvalues --   -0.48405  -0.47983  -0.47957  -0.47644  -0.47603
 Alpha  occ. eigenvalues --   -0.47423  -0.47239  -0.47152  -0.46828  -0.46716
 Alpha  occ. eigenvalues --   -0.46511  -0.46424  -0.46159  -0.46081  -0.45805
 Alpha  occ. eigenvalues --   -0.45623  -0.45469  -0.45269  -0.45140  -0.44866
 Alpha  occ. eigenvalues --   -0.44612  -0.44423  -0.44164  -0.44120  -0.43953
 Alpha  occ. eigenvalues --   -0.43876  -0.43734  -0.43613  -0.43450  -0.43375
 Alpha  occ. eigenvalues --   -0.43295  -0.43128  -0.42717  -0.42452  -0.42167
 Alpha  occ. eigenvalues --   -0.41866  -0.41835  -0.41523  -0.41255  -0.40474
 Alpha  occ. eigenvalues --   -0.40427  -0.40097  -0.39737  -0.39689  -0.39583
 Alpha  occ. eigenvalues --   -0.39404  -0.39378  -0.39029  -0.38550  -0.38352
 Alpha  occ. eigenvalues --   -0.37898  -0.37617  -0.37280  -0.36388  -0.36100
 Alpha  occ. eigenvalues --   -0.35591  -0.34939  -0.34906  -0.33791  -0.33155
 Alpha  occ. eigenvalues --   -0.33076  -0.32886  -0.32262  -0.31017  -0.26156
 Alpha  occ. eigenvalues --   -0.22706
 Alpha virt. eigenvalues --   -0.06704   0.00143   0.02265   0.04000   0.04981
 Alpha virt. eigenvalues --    0.05857   0.07613   0.07814   0.08072   0.09579
 Alpha virt. eigenvalues --    0.10466   0.11208   0.12011   0.12491   0.12601

 Mulliken charges:
               1
     1  Mg   0.977235
     2  C   -0.051547
     3  C   -0.091020
     4  C   -0.069643
     5  C   -0.074571
     6  N   -0.353526
     7  C   -0.014955
     8  C   -0.021036
     9  C   -0.173504
    10  C    0.034860
    11  C    0.012021
    12  C    0.047230
    13  C    0.003146
    14  C    0.259103
    15  O   -0.245059
    16  O   -0.387483
    17  N   -0.479632
    18  C    0.211798
    19  C   -0.162930
    20  C   -0.075930
    21  C    0.176702
    22  C    0.063331
    23  C    0.028042
    24  O   -0.243802
    25  C    0.021583
    26  N   -0.360268
    27  C    0.000352
    28  C   -0.058858
    29  C   -0.057103
    30  C    0.015606
    31  C    0.010410
    32  C   -0.032094
    33  C   -0.055681
    34  N   -0.367558
    35  C    0.139986
    36  C   -0.201155
    37  C   -0.054272
    38  C    0.122026
    39  C    0.071177
    40  C    0.205433
    41  O   -0.227761
    42  C   -0.090359
    43  C    0.251492
    44  O   -0.241568
    45  O   -0.391785
    46  C    0.131031
    47  C    0.277060
    48  C   -0.142115
    49  C   -0.242513
    50  C    0.044344
    51  C    0.017956
    52  C   -0.046062
    53  C    0.027473
    54  C   -0.212648
    55  C    0.028565
    56  C   -0.020244
    57  C    0.041520
    58  C    0.027514
    59  C   -0.202581
    60  C   -0.016973
    61  C    0.013881
    62  C   -0.020946
    63  C    0.001482
    64  C   -0.236750
    65  C    0.007601
    66  C   -0.015225
    67  H   -0.011682
    68  H    0.016839
    69  H   -0.000835
    70  H    0.038299
    71  H    0.039157
    72  H    0.044006
    73  H    0.045413
    74  H    0.039795
    75  H    0.030649
    76  H    0.043302
    77  H    0.035157
    78  H    0.059326
    79  H    0.049320
    80  H    0.055073
    81  H    0.050681
    82  H    0.066132
    83  H    0.070923
    84  H    0.033734
    85  H    0.042139
    86  H    0.034594
    87  H    0.047589
    88  H    0.046384
    89  H    0.041535
    90  H    0.040386
    91  H    0.033093
    92  H    0.048364
    93  H    0.047671
    94  H    0.045146
    95  H    0.054611
    96  H    0.030107
    97  H    0.052786
    98  H    0.085002
    99  H    0.055480
   100  H    0.056578
   101  H    0.065230
   102  H    0.065068
   103  H    0.043727
   104  H    0.011868
   105  H    0.047202
   106  H    0.038508
   107  H    0.032140
   108  H    0.015962
   109  H    0.038443
   110  H    0.023734
   111  H    0.025133
   112  H    0.000246
   113  H    0.015110
   114  H    0.012777
   115  H    0.040150
   116  H    0.029752
   117  H    0.012781
   118  H    0.025573
   119  H    0.014995
   120  H    0.017892
   121  H    0.011911
   122  H    0.019769
   123  H    0.012026
   124  H    0.010990
   125  H    0.007989
   126  H    0.023604
   127  H    0.037786
   128  H    0.025588
   129  H    0.018780
   130  H    0.019449
   131  H    0.016711
   132  H    0.005130
   133  H    0.006626
   134  H    0.025910
   135  H    0.028092
   136  H    0.031946
   137  H    0.035510
   138  H    0.039790
   139  H    0.020739
   140  H    0.027807
 Sum of Mulliken charges =  -0.00000

 Dipole moment (field-independent basis, Debye):
    X=             -2.4160    Y=              5.5040    Z=             -1.6935  Tot=              6.2450
 Quadrupole moment (field-independent basis, Debye-Ang):
   XX=           -382.5444   YY=           -420.3494   ZZ=           -397.6993
   XY=             29.8888   XZ=             20.5090   YZ=             -3.5242

 Normal termination of Gaussian 16 at Wed May  4 12:16:39 2022.
