 Gaussian 16, Revision A.03,
 Gaussian 16:  ES64L-G16RevA.03 25-Dec-2016

 --------------------
 #p ZINDO=(nstates=5)
 --------------------

 ------------------------------
 step_1701_chromophore_10 ZINDO
 ------------------------------
 Symbolic Z-matrix:
 Charge =  0 Multiplicity = 1

                         Standard orientation:
 ---------------------------------------------------------------------
 Center     Atomic      Atomic             Coordinates (Angstroms)
 Number     Number       Type             X           Y           Z
 ---------------------------------------------------------------------
      1         12           0        6.007189    0.750221    0.184315
      2          6           0        3.968013   -2.160049    0.179923
      3          6           0        3.882832    2.233609   -1.856402
      4          6           0        8.284132    3.150013   -0.139097
      5          6           0        8.529618   -1.235905    1.869311
      6          7           0        4.101265    0.109400   -0.651495
      7          6           0        3.399814   -1.057822   -0.502520
      8          6           0        1.991480   -1.011233   -1.161116
      9          6           0        2.111799    0.333082   -1.970339
     10          6           0        3.504814    0.910272   -1.546650
     11          6           0        2.075125    0.170994   -3.545921
     12          6           0        0.873868   -1.100346   -0.122580
     13          6           0       -0.403506   -1.659375   -0.672346
     14          6           0       -1.454378   -2.224024    0.199348
     15          8           0       -1.720312   -1.864981    1.341972
     16          8           0       -2.235872   -3.133706   -0.556909
     17          7           0        5.970563    2.515381   -0.736520
     18          6           0        4.983693    2.998905   -1.507819
     19          6           0        5.278940    4.393737   -1.897928
     20          6           0        6.550024    4.639366   -1.346943
     21          6           0        7.009549    3.370925   -0.732852
     22          6           0        4.363463    5.250641   -2.844475
     23          6           0        7.249173    6.000788   -1.399986
     24          8           0        8.372787    6.036021   -0.918265
     25          6           0        6.598023    7.262047   -1.740054
     26          7           0        8.097035    0.907545    0.750535
     27          6           0        8.786113    2.091339    0.553162
     28          6           0       10.135511    2.155547    1.220093
     29          6           0       10.180256    0.809230    2.027426
     30          6           0        8.868826    0.129352    1.592184
     31          6           0       11.320944    2.395989    0.211121
     32          6           0       10.252024    1.014325    3.566200
     33          6           0        8.968628    1.621224    4.280456
     34          7           0        6.309789   -1.351618    0.737040
     35          6           0        7.345213   -1.944322    1.475153
     36          6           0        6.911756   -3.295650    1.782260
     37          6           0        5.613323   -3.457070    1.362543
     38          6           0        5.311692   -2.196564    0.652597
     39          6           0        7.751956   -4.345266    2.472958
     40          6           0        4.415314   -4.355473    1.284660
     41          8           0        4.133596   -5.500093    1.717194
     42          6           0        3.281556   -3.483522    0.523477
     43          6           0        2.796408   -4.250842   -0.573944
     44          8           0        3.351272   -4.750074   -1.535031
     45          8           0        1.444779   -4.385909   -0.446936
     46          6           0        0.578296   -5.028670   -1.461038
     47          6           0       -3.491327   -3.499299    0.068202
     48          6           0       -4.659497   -3.154260   -0.804651
     49          6           0       -5.840032   -3.787208   -0.982084
     50          6           0       -6.348401   -4.968172   -0.200583
     51          6           0       -6.781030   -3.310026   -2.090609
     52          6           0       -7.233787   -1.861734   -1.793014
     53          6           0       -8.526070   -1.550145   -2.486946
     54          6           0       -9.778185   -0.989428   -1.659033
     55          6           0      -11.165849   -1.489893   -2.079801
     56          6           0       -9.642315    0.545611   -1.860359
     57          6           0      -10.374224    1.340168   -0.814292
     58          6           0      -11.620290    1.981780   -1.365291
     59          6           0      -12.907630    1.699776   -0.540502
     60          6           0      -14.185456    1.765506   -1.451398
     61          6           0      -13.038499    2.669581    0.674786
     62          6           0      -13.652573    2.022501    1.914739
     63          6           0      -14.066260    3.144078    2.961659
     64          6           0      -15.478398    3.097176    3.488357
     65          6           0      -16.132422    4.534544    3.616462
     66          6           0      -15.433317    2.321813    4.880293
     67          1           0        3.024162    2.570074   -2.438936
     68          1           0        9.018539    3.958273   -0.134233
     69          1           0        9.303797   -1.743768    2.447978
     70          1           0        1.949735   -1.836605   -1.873103
     71          1           0        1.259381    0.984978   -1.783524
     72          1           0        2.041339   -0.875184   -3.847383
     73          1           0        3.009149    0.574246   -3.937401
     74          1           0        1.210328    0.725924   -3.910398
     75          1           0        0.712064   -0.062547    0.169750
     76          1           0        1.166218   -1.655746    0.768807
     77          1           0       -0.162289   -2.395439   -1.439191
     78          1           0       -0.816231   -0.789068   -1.181413
     79          1           0        5.038250    5.646937   -3.604136
     80          1           0        3.954077    6.125681   -2.338993
     81          1           0        3.634031    4.672997   -3.412548
     82          1           0        7.404383    7.995099   -1.744956
     83          1           0        5.810707    7.408100   -1.000283
     84          1           0        6.114247    7.193836   -2.714553
     85          1           0        9.996305    2.992822    1.904312
     86          1           0       11.055634    0.268215    1.667947
     87          1           0       11.698953    3.399504    0.016643
     88          1           0       10.888282    2.134848   -0.754075
     89          1           0       12.195822    1.815702    0.505594
     90          1           0       11.120314    1.650462    3.738842
     91          1           0       10.405650   -0.000094    3.935350
     92          1           0        8.241281    1.858893    3.504644
     93          1           0        9.290644    2.472022    4.881355
     94          1           0        8.547896    0.858042    4.936090
     95          1           0        7.205749   -5.114612    3.018447
     96          1           0        8.507580   -3.895845    3.116304
     97          1           0        8.273916   -4.925328    1.711090
     98          1           0        2.451895   -3.268419    1.197712
     99          1           0        0.586239   -4.623661   -2.473585
    100          1           0       -0.398926   -4.810611   -1.029655
    101          1           0        0.748050   -6.104229   -1.491557
    102          1           0       -3.702253   -2.891193    0.947897
    103          1           0       -3.602172   -4.538603    0.378584
    104          1           0       -4.492181   -2.449467   -1.618564
    105          1           0       -6.342569   -5.876014   -0.803336
    106          1           0       -7.406074   -4.833244    0.026979
    107          1           0       -5.701213   -5.117969    0.663852
    108          1           0       -7.640540   -3.980043   -2.100764
    109          1           0       -6.324571   -3.225725   -3.077540
    110          1           0       -6.455141   -1.180166   -2.134700
    111          1           0       -7.264228   -1.819504   -0.703886
    112          1           0       -8.801113   -2.483962   -2.976784
    113          1           0       -8.248403   -0.857740   -3.282338
    114          1           0       -9.672171   -1.202211   -0.595951
    115          1           0      -11.854904   -1.725375   -1.268864
    116          1           0      -11.033389   -2.315588   -2.779199
    117          1           0      -11.603953   -0.632401   -2.591251
    118          1           0       -9.950571    0.645371   -2.901597
    119          1           0       -8.576281    0.739884   -1.743080
    120          1           0       -9.628897    2.010408   -0.385093
    121          1           0      -10.664924    0.753526    0.056766
    122          1           0      -11.920060    1.858350   -2.406174
    123          1           0      -11.444691    3.048721   -1.225380
    124          1           0      -12.979774    0.672931   -0.181820
    125          1           0      -15.057885    1.806032   -0.799955
    126          1           0      -14.434673    0.809470   -1.910899
    127          1           0      -14.205092    2.588373   -2.165679
    128          1           0      -13.614365    3.541350    0.365231
    129          1           0      -12.020560    2.972384    0.921591
    130          1           0      -12.933857    1.376756    2.419397
    131          1           0      -14.522422    1.382899    1.766827
    132          1           0      -13.794096    4.165645    2.697089
    133          1           0      -13.390141    2.996075    3.803341
    134          1           0      -16.116574    2.556487    2.789602
    135          1           0      -15.421817    5.293301    3.289716
    136          1           0      -16.417650    4.726097    4.650897
    137          1           0      -16.979199    4.459214    2.933825
    138          1           0      -15.367183    2.912441    5.793758
    139          1           0      -14.570640    1.656400    4.919527
    140          1           0      -16.290154    1.648207    4.851324
 ---------------------------------------------------------------------

 SCF Done:  E(RZINDO/S) =  -474.263568147     A.U. after   20 cycles

 Excitation energies and oscillator strengths:

 Excited State   1:      Singlet-A      1.2320 eV 1006.35 nm  f=0.5900  <S**2>=0.000
     175 ->178        -0.19267
     176 ->177         0.66289
 This state for optimization and/or second-order correction.
 Total Energy, E(CIS/TDA) =  -474.218292503
 Copying the excited state density for this state as the 1-particle RhoCI density.

 Excited State   2:      Singlet-A      1.9258 eV  643.82 nm  f=0.0079  <S**2>=0.000
     175 ->177         0.50358
     176 ->178         0.47398

 Excited State   3:      Singlet-A      2.8883 eV  429.26 nm  f=0.0044  <S**2>=0.000
     169 ->177         0.26500
     169 ->179        -0.38023
     169 ->180        -0.38941
     169 ->185        -0.20203
     169 ->187        -0.16438

 Excited State   4:      Singlet-A      2.9112 eV  425.89 nm  f=0.2653  <S**2>=0.000
     175 ->177        -0.24077
     176 ->178         0.32427
     176 ->179         0.53192

 Excited State   5:      Singlet-A      3.0337 eV  408.69 nm  f=0.0156  <S**2>=0.000
     168 ->177         0.31200
     168 ->178         0.15685
     168 ->179         0.38059
     168 ->180        -0.32974
     168 ->185         0.17451
     168 ->187        -0.11943

 The electronic state is 1-A.
 Alpha  occ. eigenvalues --   -1.83147  -1.82040  -1.79735  -1.73300  -1.71939
 Alpha  occ. eigenvalues --   -1.70700  -1.66658  -1.61136  -1.60949  -1.56547
 Alpha  occ. eigenvalues --   -1.55241  -1.52441  -1.50394  -1.45798  -1.45183
 Alpha  occ. eigenvalues --   -1.44510  -1.43174  -1.39786  -1.38599  -1.37687
 Alpha  occ. eigenvalues --   -1.36119  -1.33220  -1.33088  -1.32141  -1.28047
 Alpha  occ. eigenvalues --   -1.27744  -1.24355  -1.22610  -1.21920  -1.18792
 Alpha  occ. eigenvalues --   -1.17434  -1.16463  -1.16090  -1.15411  -1.12992
 Alpha  occ. eigenvalues --   -1.12587  -1.11001  -1.09260  -1.05736  -1.04588
 Alpha  occ. eigenvalues --   -1.02534  -1.00889  -0.98682  -0.98357  -0.96747
 Alpha  occ. eigenvalues --   -0.94675  -0.94201  -0.93322  -0.92521  -0.92050
 Alpha  occ. eigenvalues --   -0.91491  -0.90221  -0.89344  -0.88436  -0.87351
 Alpha  occ. eigenvalues --   -0.85692  -0.84716  -0.83390  -0.81769  -0.80447
 Alpha  occ. eigenvalues --   -0.79856  -0.78995  -0.77379  -0.76626  -0.75859
 Alpha  occ. eigenvalues --   -0.75643  -0.75298  -0.74885  -0.74392  -0.73712
 Alpha  occ. eigenvalues --   -0.73217  -0.72644  -0.72506  -0.71945  -0.70322
 Alpha  occ. eigenvalues --   -0.70203  -0.69941  -0.69542  -0.69104  -0.68008
 Alpha  occ. eigenvalues --   -0.67474  -0.66765  -0.65941  -0.65769  -0.65476
 Alpha  occ. eigenvalues --   -0.64742  -0.64212  -0.63781  -0.63537  -0.62890
 Alpha  occ. eigenvalues --   -0.62854  -0.62615  -0.62249  -0.61727  -0.61502
 Alpha  occ. eigenvalues --   -0.61412  -0.61127  -0.60813  -0.60387  -0.60318
 Alpha  occ. eigenvalues --   -0.60161  -0.59905  -0.59279  -0.58629  -0.58054
 Alpha  occ. eigenvalues --   -0.57661  -0.56950  -0.56802  -0.56662  -0.55998
 Alpha  occ. eigenvalues --   -0.55877  -0.55497  -0.55288  -0.54909  -0.54589
 Alpha  occ. eigenvalues --   -0.54527  -0.53493  -0.53332  -0.52807  -0.52759
 Alpha  occ. eigenvalues --   -0.52549  -0.52190  -0.51996  -0.51795  -0.51306
 Alpha  occ. eigenvalues --   -0.50951  -0.50857  -0.50535  -0.50175  -0.49969
 Alpha  occ. eigenvalues --   -0.49864  -0.49637  -0.49502  -0.49255  -0.49165
 Alpha  occ. eigenvalues --   -0.49034  -0.48765  -0.48324  -0.48091  -0.48017
 Alpha  occ. eigenvalues --   -0.47438  -0.47306  -0.46940  -0.46835  -0.46456
 Alpha  occ. eigenvalues --   -0.46416  -0.46226  -0.45957  -0.45748  -0.45722
 Alpha  occ. eigenvalues --   -0.45410  -0.45163  -0.44956  -0.44630  -0.44243
 Alpha  occ. eigenvalues --   -0.43643  -0.43433  -0.43260  -0.42291  -0.41887
 Alpha  occ. eigenvalues --   -0.41766  -0.41192  -0.40004  -0.39463  -0.38877
 Alpha  occ. eigenvalues --   -0.37920  -0.37228  -0.35512  -0.35101  -0.34583
 Alpha  occ. eigenvalues --   -0.33724  -0.32993  -0.32505  -0.31193  -0.26807
 Alpha  occ. eigenvalues --   -0.21378
 Alpha virt. eigenvalues --   -0.08158  -0.02190  -0.00439   0.01058   0.01167
 Alpha virt. eigenvalues --    0.01664   0.02706   0.03160   0.04751   0.04802
 Alpha virt. eigenvalues --    0.06188   0.06949   0.07117   0.07789   0.08004

 Mulliken charges:
               1
     1  Mg   0.434204
     2  C   -0.046547
     3  C   -0.078408
     4  C   -0.071799
     5  C   -0.072942
     6  N   -0.267991
     7  C    0.104612
     8  C    0.002629
     9  C   -0.006262
    10  C    0.121713
    11  C   -0.058203
    12  C   -0.013036
    13  C    0.010200
    14  C    0.473211
    15  O   -0.508017
    16  O   -0.273246
    17  N   -0.298320
    18  C    0.115496
    19  C   -0.012018
    20  C   -0.040445
    21  C    0.146078
    22  C   -0.043151
    23  C    0.324772
    24  O   -0.530878
    25  C   -0.024069
    26  N   -0.289475
    27  C    0.141955
    28  C    0.001734
    29  C    0.007332
    30  C    0.116002
    31  C   -0.055063
    32  C   -0.032187
    33  C   -0.057634
    34  N   -0.309026
    35  C    0.083476
    36  C    0.049487
    37  C   -0.060649
    38  C    0.117649
    39  C   -0.043643
    40  C    0.332252
    41  O   -0.511833
    42  C    0.061474
    43  C    0.504047
    44  O   -0.528824
    45  O   -0.294368
    46  C    0.075953
    47  C    0.105681
    48  C   -0.098114
    49  C   -0.013331
    50  C   -0.042690
    51  C   -0.027141
    52  C   -0.027940
    53  C   -0.040023
    54  C   -0.019394
    55  C   -0.059736
    56  C   -0.034169
    57  C   -0.025860
    58  C   -0.031699
    59  C   -0.021854
    60  C   -0.068512
    61  C   -0.026042
    62  C   -0.035370
    63  C   -0.042198
    64  C   -0.014722
    65  C   -0.064932
    66  C   -0.062361
    67  H    0.020380
    68  H    0.041643
    69  H    0.026969
    70  H    0.036803
    71  H    0.031223
    72  H    0.026169
    73  H    0.025561
    74  H    0.021136
    75  H    0.022934
    76  H    0.033684
    77  H    0.037382
    78  H    0.045470
    79  H    0.022067
    80  H    0.035406
    81  H    0.031942
    82  H    0.046147
    83  H    0.047057
    84  H    0.032977
    85  H    0.034300
    86  H    0.032168
    87  H    0.028202
    88  H    0.025134
    89  H    0.021571
    90  H    0.021115
    91  H    0.018436
    92  H    0.031802
    93  H    0.025057
    94  H    0.021940
    95  H    0.034346
    96  H    0.020861
    97  H    0.031020
    98  H    0.057666
    99  H    0.044695
   100  H    0.029423
   101  H    0.050341
   102  H    0.055470
   103  H    0.048667
   104  H    0.023915
   105  H    0.028359
   106  H    0.027887
   107  H    0.024073
   108  H    0.021106
   109  H    0.026652
   110  H    0.019387
   111  H    0.020557
   112  H    0.010263
   113  H    0.016419
   114  H    0.020056
   115  H    0.024552
   116  H    0.022019
   117  H    0.017101
   118  H    0.028598
   119  H    0.010261
   120  H    0.015482
   121  H    0.018766
   122  H    0.027973
   123  H    0.009799
   124  H    0.020824
   125  H    0.007560
   126  H    0.014995
   127  H    0.025940
   128  H    0.024339
   129  H    0.017911
   130  H    0.016815
   131  H    0.024206
   132  H    0.017307
   133  H    0.007031
   134  H    0.022345
   135  H    0.023573
   136  H    0.024238
   137  H    0.021258
   138  H    0.029774
   139  H    0.012776
   140  H    0.012885
 Sum of Mulliken charges =  -0.00000

 Dipole moment (field-independent basis, Debye):
    X=             -3.9497    Y=              7.0189    Z=             -3.3033  Tot=              8.7050
 N-N= 4.200231168299D+03 E-N= 0.000000000000D+00  KE=-9.074780904325D+03
 Leave Link  601 at Wed May  4 12:28:52 2022, MaxMem=  6710886400 cpu:               0.8 elap:               0.1
 (Enter /sw/apps/gaussian-16.0/g16/l9999.exe)
 1\1\GINC-BP1-COMPUTE059\SP\RZINDO CIS\STO-3G\C55H74Mg1N4O6\OF15641\04-
 May-2022\0\\#p ZINDO=(nstates=5)\\step_1701_chromophore_10 ZINDO\\0,1\
 Mg,0,41.162,8.621,29.696\C,0,43.004,10.031,32.388\C,0,39.271,6.992,31.
 852\C,0,39.924,6.98,27.084\C,0,43.717,9.943,27.489\N,0,41.114,8.609,31
 .873\C,0,41.877,9.277,32.794\C,0,41.375,9.088,34.254\C,0,40.317,7.944,
 34.034\C,0,40.28,7.752,32.48\C,0,40.675,6.561,34.719\C,0,40.868,10.398
 ,34.856\C,0,40.952,10.435,36.352\C,0,40.927,11.703,37.11\O,0,40.333,12

 Normal termination of Gaussian 16 at Wed May  4 12:28:52 2022.
