 Gaussian 16, Revision A.03,
 Gaussian 16:  ES64L-G16RevA.03 25-Dec-2016

 ------------------------------
 #p blyp/Def2SVP td=(nstates=5)
 ------------------------------

 --------------------------------------------------
 step_551_chromophore_15 TDDFT with blyp functional
 --------------------------------------------------
 Symbolic Z-matrix:
 Charge =  0 Multiplicity = 1

                         Standard orientation:
 ---------------------------------------------------------------------
 Center     Atomic      Atomic             Coordinates (Angstroms)
 Number     Number       Type             X           Y           Z
 ---------------------------------------------------------------------
      1         12           0       -4.949784    0.920252    0.060763
      2          6           0       -4.277095   -2.426503    0.651683
      3          6           0       -1.507803    1.463497   -0.074535
      4          6           0       -5.649631    4.143761   -0.087057
      5          6           0       -8.455906    0.231667    0.471501
      6          7           0       -3.139369   -0.346273    0.218820
      7          6           0       -3.110163   -1.694686    0.346124
      8          6           0       -1.755689   -2.296782   -0.013349
      9          6           0       -0.896967   -0.939577    0.233659
     10          6           0       -1.939184    0.134051    0.172558
     11          6           0        0.073264   -0.876133    1.428061
     12          6           0       -1.832288   -2.826854   -1.520252
     13          6           0       -0.634411   -3.730431   -1.915460
     14          6           0        0.675304   -3.816181   -1.133861
     15          8           0        0.841079   -4.050868    0.028252
     16          8           0        1.776015   -3.733614   -2.000774
     17          7           0       -3.724762    2.585785   -0.105996
     18          6           0       -2.366527    2.617590   -0.198292
     19          6           0       -1.998296    3.986440   -0.453766
     20          6           0       -3.090861    4.753939   -0.287611
     21          6           0       -4.217928    3.842873   -0.145966
     22          6           0       -0.584995    4.362738   -0.651520
     23          6           0       -3.155013    6.307391   -0.267271
     24          8           0       -4.224813    6.925019   -0.363769
     25          6           0       -1.908770    7.105512   -0.350996
     26          7           0       -6.824394    2.067184    0.274078
     27          6           0       -6.830894    3.418893    0.188182
     28          6           0       -8.160766    4.062283    0.336519
     29          6           0       -9.107030    2.797517    0.372524
     30          6           0       -8.069962    1.614998    0.346922
     31          6           0       -8.274621    4.891402    1.706336
     32          6           0       -9.972708    2.675943   -0.934786
     33          6           0      -11.448394    2.264523   -0.682182
     34          7           0       -6.137586   -0.695541    0.548668
     35          6           0       -7.523471   -0.834730    0.597729
     36          6           0       -7.839881   -2.315011    0.865440
     37          6           0       -6.577336   -2.903912    0.917550
     38          6           0       -5.593026   -1.888030    0.704610
     39          6           0       -9.300360   -2.933441    1.045209
     40          6           0       -5.988945   -4.188440    0.971391
     41          8           0       -6.496295   -5.290815    1.037007
     42          6           0       -4.460164   -3.914114    0.906102
     43          6           0       -3.682346   -4.949862    0.241698
     44          8           0       -4.058141   -5.682239   -0.715887
     45          8           0       -2.698548   -5.231385    1.137074
     46          6           0       -2.039722   -6.566225    1.050642
     47          6           0        3.102641   -3.979432   -1.436148
     48          6           0        4.134659   -3.180341   -2.149685
     49          6           0        5.351200   -2.876868   -1.759084
     50          6           0        6.012008   -3.360868   -0.458062
     51          6           0        6.273812   -2.049330   -2.609472
     52          6           0        5.912912   -0.473286   -2.743154
     53          6           0        7.010625    0.473223   -3.415142
     54          6           0        7.977345    1.035115   -2.262863
     55          6           0        8.302158    2.550373   -2.248793
     56          6           0        9.327374    0.234380   -2.430303
     57          6           0       10.178612    0.238086   -1.172830
     58          6           0       11.652439    0.898307   -1.386501
     59          6           0       11.927064    2.202175   -0.454047
     60          6           0       12.892839    3.150797   -1.207379
     61          6           0       12.543117    1.803061    0.898303
     62          6           0       11.609118    1.891230    2.115149
     63          6           0       11.339956    0.622809    2.935265
     64          6           0       11.600235    0.700966    4.442508
     65          6           0       13.005594    0.204639    4.681835
     66          6           0       10.549679   -0.026797    5.325283
     67          1           0       -0.461209    1.730896   -0.234492
     68          1           0       -5.849110    5.217144   -0.118011
     69          1           0       -9.520856   -0.009305    0.444311
     70          1           0       -1.475679   -3.116271    0.649531
     71          1           0       -0.198179   -0.820485   -0.594822
     72          1           0        0.159722   -1.885978    1.829639
     73          1           0       -0.332602   -0.156360    2.138525
     74          1           0        1.039565   -0.615976    0.995956
     75          1           0       -1.796291   -2.022830   -2.255148
     76          1           0       -2.751567   -3.409003   -1.579680
     77          1           0       -0.299569   -3.445805   -2.913454
     78          1           0       -0.985688   -4.749240   -2.078016
     79          1           0       -0.144429    4.755847    0.265242
     80          1           0       -0.416937    5.052003   -1.478868
     81          1           0        0.113585    3.589578   -0.970831
     82          1           0       -1.202467    6.733701    0.390018
     83          1           0       -2.298694    8.114266   -0.208092
     84          1           0       -1.533198    7.193867   -1.370842
     85          1           0       -8.404816    4.700434   -0.511732
     86          1           0       -9.804607    2.931643    1.199988
     87          1           0       -8.336136    5.929534    1.381541
     88          1           0       -7.326227    4.667150    2.193942
     89          1           0       -9.163718    4.566269    2.247050
     90          1           0       -9.638151    1.842553   -1.552984
     91          1           0      -10.110869    3.625519   -1.451957
     92          1           0      -12.073329    2.966255   -1.235984
     93          1           0      -11.672225    2.261145    0.384554
     94          1           0      -11.493323    1.227780   -1.014864
     95          1           0      -10.084726   -2.177490    1.019959
     96          1           0       -9.347305   -3.474755    1.989912
     97          1           0       -9.397412   -3.665361    0.243237
     98          1           0       -4.231334   -4.090405    1.956542
     99          1           0       -2.136126   -7.051851    0.078786
    100          1           0       -2.369673   -7.232911    1.846893
    101          1           0       -0.977155   -6.452619    1.264412
    102          1           0        3.276742   -5.053476   -1.502484
    103          1           0        3.119383   -3.797121   -0.361353
    104          1           0        3.780674   -2.720813   -3.072393
    105          1           0        5.245693   -3.887244    0.110485
    106          1           0        6.447006   -2.596029    0.185640
    107          1           0        6.818094   -4.083028   -0.592360
    108          1           0        6.181197   -2.467406   -3.611338
    109          1           0        7.336640   -2.161398   -2.394278
    110          1           0        5.709192   -0.220516   -1.703343
    111          1           0        4.941191   -0.400005   -3.231575
    112          1           0        6.397742    1.183552   -3.970295
    113          1           0        7.547778   -0.083422   -4.183460
    114          1           0        7.515816    0.875603   -1.288679
    115          1           0        9.378342    2.589085   -2.420199
    116          1           0        8.106067    2.920417   -1.242111
    117          1           0        7.773968    3.122821   -3.010803
    118          1           0        9.778930    0.803137   -3.243056
    119          1           0        9.120661   -0.796851   -2.715261
    120          1           0       10.302228   -0.794902   -0.848275
    121          1           0        9.638783    0.779979   -0.396437
    122          1           0       11.904818    1.083938   -2.431066
    123          1           0       12.283570    0.109753   -0.977491
    124          1           0       10.982429    2.744882   -0.423781
    125          1           0       12.457312    3.508159   -2.139791
    126          1           0       13.828396    2.640930   -1.440340
    127          1           0       13.049225    4.032027   -0.585285
    128          1           0       13.313315    2.549350    1.091905
    129          1           0       13.050574    0.838182    0.882423
    130          1           0       10.673422    2.260689    1.695914
    131          1           0       11.924086    2.688206    2.789675
    132          1           0       11.795814   -0.236007    2.442324
    133          1           0       10.265006    0.444015    2.928074
    134          1           0       11.423751    1.755089    4.652338
    135          1           0       13.018633   -0.859489    4.918805
    136          1           0       13.358730    0.849789    5.486308
    137          1           0       13.642691    0.456993    3.834262
    138          1           0       11.076943   -0.121881    6.274373
    139          1           0       10.211646   -0.944907    4.844222
    140          1           0        9.705247    0.654998    5.430595
 ---------------------------------------------------------------------

 SCF Done:  E(RB-LYP) =  -3007.35914734     A.U. after   21 cycles

 Excitation energies and oscillator strengths:

 Excited State   1:      Singlet-A      1.7849 eV  694.63 nm  f=0.2543  <S**2>=0.000
     245 -> 248        0.17829
     246 -> 247        0.67656
     246 <- 247       -0.14422
 This state for optimization and/or second-order correction.
 Total Energy, E(TD-HF/TD-DFT) =  -3007.29355337
 Copying the excited state density for this state as the 1-particle RhoCI density.

 Excited State   2:      Singlet-A      1.9615 eV  632.08 nm  f=0.0851  <S**2>=0.000
     244 -> 247       -0.32298
     245 -> 247        0.57947
     246 -> 247       -0.11305
     246 -> 248       -0.19308

 Excited State   3:      Singlet-A      2.1571 eV  574.78 nm  f=0.0185  <S**2>=0.000
     244 -> 247        0.60834
     245 -> 247        0.26829
     246 -> 248       -0.19737

 Excited State   4:      Singlet-A      2.1724 eV  570.73 nm  f=0.0001  <S**2>=0.000
     243 -> 247        0.70285

 Excited State   5:      Singlet-A      2.6281 eV  471.77 nm  f=0.0158  <S**2>=0.000
     242 -> 247        0.25289
     246 -> 248        0.40466
     246 -> 249        0.46988

 The electronic state is 1-A.
 Alpha  occ. eigenvalues --  -46.27512 -18.82710 -18.81850 -18.77931 -18.76717
 Alpha  occ. eigenvalues --  -18.75795 -18.75189 -14.03031 -14.02919 -14.01246
 Alpha  occ. eigenvalues --  -14.00889 -10.04925 -10.03916 -10.00060  -9.98646
 Alpha  occ. eigenvalues --   -9.97927  -9.97646  -9.96579  -9.96204  -9.96108
 Alpha  occ. eigenvalues --   -9.95906  -9.95794  -9.95762  -9.95056  -9.94524
 Alpha  occ. eigenvalues --   -9.94369  -9.94054  -9.93996  -9.93771  -9.93678
 Alpha  occ. eigenvalues --   -9.93576  -9.93302  -9.93186  -9.92989  -9.92975
 Alpha  occ. eigenvalues --   -9.92952  -9.92922  -9.92784  -9.92743  -9.92739
 Alpha  occ. eigenvalues --   -9.92500  -9.92439  -9.92338  -9.92294  -9.92260
 Alpha  occ. eigenvalues --   -9.92258  -9.92123  -9.92119  -9.91969  -9.91944
 Alpha  occ. eigenvalues --   -9.91928  -9.91710  -9.91661  -9.91643  -9.91569
 Alpha  occ. eigenvalues --   -9.91515  -9.91427  -9.91254  -9.91240  -9.91114
 Alpha  occ. eigenvalues --   -9.91058  -9.90941  -9.90927  -9.90732  -9.90537
 Alpha  occ. eigenvalues --   -9.90462  -2.92078  -1.72518  -1.71969  -1.71772
 Alpha  occ. eigenvalues --   -0.98404  -0.97399  -0.91209  -0.91019  -0.90736
 Alpha  occ. eigenvalues --   -0.88216  -0.87885  -0.86772  -0.86046  -0.85541
 Alpha  occ. eigenvalues --   -0.75502  -0.73632  -0.72977  -0.72280  -0.72036
 Alpha  occ. eigenvalues --   -0.71662  -0.71583  -0.70855  -0.70832  -0.70457
 Alpha  occ. eigenvalues --   -0.69050  -0.68852  -0.67775  -0.67559  -0.66920
 Alpha  occ. eigenvalues --   -0.66250  -0.65830  -0.65386  -0.64902  -0.64435
 Alpha  occ. eigenvalues --   -0.64025  -0.62560  -0.62246  -0.61272  -0.60894
 Alpha  occ. eigenvalues --   -0.60674  -0.60428  -0.59767  -0.59446  -0.59076
 Alpha  occ. eigenvalues --   -0.58432  -0.57297  -0.56398  -0.55743  -0.53985
 Alpha  occ. eigenvalues --   -0.53799  -0.53425  -0.52457  -0.52171  -0.51601
 Alpha  occ. eigenvalues --   -0.51145  -0.50983  -0.50452  -0.49859  -0.49739
 Alpha  occ. eigenvalues --   -0.49692  -0.49368  -0.48808  -0.48764  -0.46817
 Alpha  occ. eigenvalues --   -0.46623  -0.46167  -0.45556  -0.45173  -0.44526
 Alpha  occ. eigenvalues --   -0.43973  -0.43187  -0.42835  -0.42528  -0.42027
 Alpha  occ. eigenvalues --   -0.41959  -0.41880  -0.41713  -0.41297  -0.41220
 Alpha  occ. eigenvalues --   -0.40671  -0.40566  -0.40509  -0.40481  -0.40013
 Alpha  occ. eigenvalues --   -0.39872  -0.39790  -0.39758  -0.39699  -0.39161
 Alpha  occ. eigenvalues --   -0.38924  -0.38722  -0.38385  -0.38335  -0.38281
 Alpha  occ. eigenvalues --   -0.38040  -0.37918  -0.37697  -0.37486  -0.37362
 Alpha  occ. eigenvalues --   -0.36947  -0.36751  -0.36432  -0.36280  -0.36227
 Alpha  occ. eigenvalues --   -0.36109  -0.36027  -0.35893  -0.35830  -0.35416
 Alpha  occ. eigenvalues --   -0.35347  -0.35313  -0.35098  -0.35082  -0.35032
 Alpha  occ. eigenvalues --   -0.34711  -0.34569  -0.34464  -0.34264  -0.34210
 Alpha  occ. eigenvalues --   -0.34079  -0.33688  -0.33481  -0.33354  -0.33244
 Alpha  occ. eigenvalues --   -0.33167  -0.32563  -0.32413  -0.32382  -0.32294
 Alpha  occ. eigenvalues --   -0.32142  -0.31818  -0.31700  -0.31556  -0.31316
 Alpha  occ. eigenvalues --   -0.31073  -0.31007  -0.30952  -0.30770  -0.30568
 Alpha  occ. eigenvalues --   -0.30347  -0.30141  -0.29903  -0.29829  -0.29694
 Alpha  occ. eigenvalues --   -0.29560  -0.29273  -0.29183  -0.29006  -0.28724
 Alpha  occ. eigenvalues --   -0.28604  -0.28465  -0.28391  -0.27940  -0.27684
 Alpha  occ. eigenvalues --   -0.27455  -0.27372  -0.27027  -0.26950  -0.26576
 Alpha  occ. eigenvalues --   -0.26142  -0.25728  -0.25638  -0.25516  -0.25357
 Alpha  occ. eigenvalues --   -0.25334  -0.24811  -0.24172  -0.23576  -0.23447
 Alpha  occ. eigenvalues --   -0.23250  -0.22850  -0.22126  -0.21506  -0.21181
 Alpha  occ. eigenvalues --   -0.20663  -0.20486  -0.18821  -0.18510  -0.16839
 Alpha  occ. eigenvalues --   -0.15192
 Alpha virt. eigenvalues --   -0.10938  -0.06685  -0.06020  -0.04642  -0.04121
 Alpha virt. eigenvalues --   -0.03465  -0.02340  -0.01893  -0.00721   0.00239
 Alpha virt. eigenvalues --    0.01010   0.01554   0.02174   0.02492   0.02688

 Mulliken charges:
               1
     1  Mg   0.701219
     2  C    0.072194
     3  C   -0.083717
     4  C   -0.010577
     5  C   -0.066978
     6  N   -0.152072
     7  C   -0.143461
     8  C    0.011215
     9  C   -0.043959
    10  C    0.082715
    11  C    0.153199
    12  C    0.130174
    13  C    0.099225
    14  C    0.079308
    15  O   -0.167940
    16  O   -0.294640
    17  N   -0.274374
    18  C    0.069614
    19  C   -0.130109
    20  C    0.072081
    21  C    0.055032
    22  C    0.157460
    23  C   -0.084073
    24  O   -0.175790
    25  C    0.152433
    26  N   -0.162719
    27  C   -0.024691
    28  C    0.002830
    29  C    0.007916
    30  C    0.030634
    31  C    0.127801
    32  C    0.050256
    33  C    0.050821
    34  N   -0.248937
    35  C    0.094442
    36  C   -0.184126
    37  C    0.059194
    38  C    0.070763
    39  C    0.164132
    40  C   -0.046458
    41  O   -0.107169
    42  C    0.060514
    43  C    0.109161
    44  O   -0.205659
    45  O   -0.275127
    46  C    0.201211
    47  C    0.304323
    48  C   -0.097850
    49  C   -0.109513
    50  C    0.129186
    51  C    0.117059
    52  C    0.030261
    53  C    0.134329
    54  C   -0.113605
    55  C    0.121247
    56  C    0.073480
    57  C    0.076850
    58  C    0.083996
    59  C   -0.084242
    60  C    0.081448
    61  C    0.138885
    62  C    0.078704
    63  C    0.104985
    64  C   -0.128948
    65  C    0.132624
    66  C    0.117115
    67  H   -0.069158
    68  H   -0.055248
    69  H   -0.062992
    70  H   -0.007347
    71  H   -0.036561
    72  H    0.003758
    73  H   -0.004860
    74  H   -0.011112
    75  H   -0.013495
    76  H    0.005133
    77  H   -0.011942
    78  H    0.019879
    79  H    0.006056
    80  H   -0.012680
    81  H   -0.022504
    82  H    0.006954
    83  H   -0.013302
    84  H    0.017758
    85  H   -0.015497
    86  H   -0.023804
    87  H    0.006692
    88  H    0.007931
    89  H   -0.002983
    90  H   -0.005232
    91  H   -0.015666
    92  H   -0.000599
    93  H   -0.015747
    94  H   -0.005238
    95  H   -0.009682
    96  H    0.012501
    97  H    0.018746
    98  H    0.016531
    99  H    0.029223
   100  H    0.017856
   101  H    0.016569
   102  H   -0.004923
   103  H    0.009971
   104  H   -0.033105
   105  H   -0.032516
   106  H   -0.000883
   107  H   -0.000745
   108  H   -0.027981
   109  H   -0.041283
   110  H   -0.027062
   111  H   -0.032067
   112  H   -0.037952
   113  H   -0.026050
   114  H   -0.028900
   115  H   -0.013511
   116  H   -0.010525
   117  H   -0.010151
   118  H   -0.024885
   119  H   -0.025102
   120  H   -0.030272
   121  H   -0.021400
   122  H   -0.023360
   123  H   -0.039078
   124  H   -0.027669
   125  H   -0.021186
   126  H   -0.010310
   127  H   -0.015188
   128  H   -0.047357
   129  H   -0.030008
   130  H   -0.041454
   131  H   -0.038466
   132  H   -0.038940
   133  H   -0.063271
   134  H   -0.042740
   135  H   -0.004569
   136  H   -0.021311
   137  H   -0.020088
   138  H   -0.013647
   139  H   -0.007162
   140  H   -0.018094
 Sum of Mulliken charges =  -0.00000

 Dipole moment (field-independent basis, Debye):
    X=              4.3422    Y=              2.4213    Z=             -0.4859  Tot=              4.9953
 Quadrupole moment (field-independent basis, Debye-Ang):
   XX=           -388.7522   YY=           -434.7612   ZZ=           -404.4298
   XY=            -25.8605   XZ=             -1.6923   YZ=             -2.1401

 Normal termination of Gaussian 16 at Sat Apr 30 03:25:30 2022.
