 Gaussian 16, Revision A.03,
 Gaussian 16:  ES64L-G16RevA.03 25-Dec-2016

 -----------------------------------
 #p cam-b3lyp/Def2SVP td=(nstates=5)
 -----------------------------------

 -------------------------------------------------------
 step_551_chromophore_15 TDDFT with cam-b3lyp functional
 -------------------------------------------------------
 Symbolic Z-matrix:
 Charge =  0 Multiplicity = 1

                         Standard orientation:
 ---------------------------------------------------------------------
 Center     Atomic      Atomic             Coordinates (Angstroms)
 Number     Number       Type             X           Y           Z
 ---------------------------------------------------------------------
      1         12           0       -4.949784    0.920252    0.060763
      2          6           0       -4.277095   -2.426503    0.651683
      3          6           0       -1.507803    1.463497   -0.074535
      4          6           0       -5.649631    4.143761   -0.087057
      5          6           0       -8.455906    0.231667    0.471501
      6          7           0       -3.139369   -0.346273    0.218820
      7          6           0       -3.110163   -1.694686    0.346124
      8          6           0       -1.755689   -2.296782   -0.013349
      9          6           0       -0.896967   -0.939577    0.233659
     10          6           0       -1.939184    0.134051    0.172558
     11          6           0        0.073264   -0.876133    1.428061
     12          6           0       -1.832288   -2.826854   -1.520252
     13          6           0       -0.634411   -3.730431   -1.915460
     14          6           0        0.675304   -3.816181   -1.133861
     15          8           0        0.841079   -4.050868    0.028252
     16          8           0        1.776015   -3.733614   -2.000774
     17          7           0       -3.724762    2.585785   -0.105996
     18          6           0       -2.366527    2.617590   -0.198292
     19          6           0       -1.998296    3.986440   -0.453766
     20          6           0       -3.090861    4.753939   -0.287611
     21          6           0       -4.217928    3.842873   -0.145966
     22          6           0       -0.584995    4.362738   -0.651520
     23          6           0       -3.155013    6.307391   -0.267271
     24          8           0       -4.224813    6.925019   -0.363769
     25          6           0       -1.908770    7.105512   -0.350996
     26          7           0       -6.824394    2.067184    0.274078
     27          6           0       -6.830894    3.418893    0.188182
     28          6           0       -8.160766    4.062283    0.336519
     29          6           0       -9.107030    2.797517    0.372524
     30          6           0       -8.069962    1.614998    0.346922
     31          6           0       -8.274621    4.891402    1.706336
     32          6           0       -9.972708    2.675943   -0.934786
     33          6           0      -11.448394    2.264523   -0.682182
     34          7           0       -6.137586   -0.695541    0.548668
     35          6           0       -7.523471   -0.834730    0.597729
     36          6           0       -7.839881   -2.315011    0.865440
     37          6           0       -6.577336   -2.903912    0.917550
     38          6           0       -5.593026   -1.888030    0.704610
     39          6           0       -9.300360   -2.933441    1.045209
     40          6           0       -5.988945   -4.188440    0.971391
     41          8           0       -6.496295   -5.290815    1.037007
     42          6           0       -4.460164   -3.914114    0.906102
     43          6           0       -3.682346   -4.949862    0.241698
     44          8           0       -4.058141   -5.682239   -0.715887
     45          8           0       -2.698548   -5.231385    1.137074
     46          6           0       -2.039722   -6.566225    1.050642
     47          6           0        3.102641   -3.979432   -1.436148
     48          6           0        4.134659   -3.180341   -2.149685
     49          6           0        5.351200   -2.876868   -1.759084
     50          6           0        6.012008   -3.360868   -0.458062
     51          6           0        6.273812   -2.049330   -2.609472
     52          6           0        5.912912   -0.473286   -2.743154
     53          6           0        7.010625    0.473223   -3.415142
     54          6           0        7.977345    1.035115   -2.262863
     55          6           0        8.302158    2.550373   -2.248793
     56          6           0        9.327374    0.234380   -2.430303
     57          6           0       10.178612    0.238086   -1.172830
     58          6           0       11.652439    0.898307   -1.386501
     59          6           0       11.927064    2.202175   -0.454047
     60          6           0       12.892839    3.150797   -1.207379
     61          6           0       12.543117    1.803061    0.898303
     62          6           0       11.609118    1.891230    2.115149
     63          6           0       11.339956    0.622809    2.935265
     64          6           0       11.600235    0.700966    4.442508
     65          6           0       13.005594    0.204639    4.681835
     66          6           0       10.549679   -0.026797    5.325283
     67          1           0       -0.461209    1.730896   -0.234492
     68          1           0       -5.849110    5.217144   -0.118011
     69          1           0       -9.520856   -0.009305    0.444311
     70          1           0       -1.475679   -3.116271    0.649531
     71          1           0       -0.198179   -0.820485   -0.594822
     72          1           0        0.159722   -1.885978    1.829639
     73          1           0       -0.332602   -0.156360    2.138525
     74          1           0        1.039565   -0.615976    0.995956
     75          1           0       -1.796291   -2.022830   -2.255148
     76          1           0       -2.751567   -3.409003   -1.579680
     77          1           0       -0.299569   -3.445805   -2.913454
     78          1           0       -0.985688   -4.749240   -2.078016
     79          1           0       -0.144429    4.755847    0.265242
     80          1           0       -0.416937    5.052003   -1.478868
     81          1           0        0.113585    3.589578   -0.970831
     82          1           0       -1.202467    6.733701    0.390018
     83          1           0       -2.298694    8.114266   -0.208092
     84          1           0       -1.533198    7.193867   -1.370842
     85          1           0       -8.404816    4.700434   -0.511732
     86          1           0       -9.804607    2.931643    1.199988
     87          1           0       -8.336136    5.929534    1.381541
     88          1           0       -7.326227    4.667150    2.193942
     89          1           0       -9.163718    4.566269    2.247050
     90          1           0       -9.638151    1.842553   -1.552984
     91          1           0      -10.110869    3.625519   -1.451957
     92          1           0      -12.073329    2.966255   -1.235984
     93          1           0      -11.672225    2.261145    0.384554
     94          1           0      -11.493323    1.227780   -1.014864
     95          1           0      -10.084726   -2.177490    1.019959
     96          1           0       -9.347305   -3.474755    1.989912
     97          1           0       -9.397412   -3.665361    0.243237
     98          1           0       -4.231334   -4.090405    1.956542
     99          1           0       -2.136126   -7.051851    0.078786
    100          1           0       -2.369673   -7.232911    1.846893
    101          1           0       -0.977155   -6.452619    1.264412
    102          1           0        3.276742   -5.053476   -1.502484
    103          1           0        3.119383   -3.797121   -0.361353
    104          1           0        3.780674   -2.720813   -3.072393
    105          1           0        5.245693   -3.887244    0.110485
    106          1           0        6.447006   -2.596029    0.185640
    107          1           0        6.818094   -4.083028   -0.592360
    108          1           0        6.181197   -2.467406   -3.611338
    109          1           0        7.336640   -2.161398   -2.394278
    110          1           0        5.709192   -0.220516   -1.703343
    111          1           0        4.941191   -0.400005   -3.231575
    112          1           0        6.397742    1.183552   -3.970295
    113          1           0        7.547778   -0.083422   -4.183460
    114          1           0        7.515816    0.875603   -1.288679
    115          1           0        9.378342    2.589085   -2.420199
    116          1           0        8.106067    2.920417   -1.242111
    117          1           0        7.773968    3.122821   -3.010803
    118          1           0        9.778930    0.803137   -3.243056
    119          1           0        9.120661   -0.796851   -2.715261
    120          1           0       10.302228   -0.794902   -0.848275
    121          1           0        9.638783    0.779979   -0.396437
    122          1           0       11.904818    1.083938   -2.431066
    123          1           0       12.283570    0.109753   -0.977491
    124          1           0       10.982429    2.744882   -0.423781
    125          1           0       12.457312    3.508159   -2.139791
    126          1           0       13.828396    2.640930   -1.440340
    127          1           0       13.049225    4.032027   -0.585285
    128          1           0       13.313315    2.549350    1.091905
    129          1           0       13.050574    0.838182    0.882423
    130          1           0       10.673422    2.260689    1.695914
    131          1           0       11.924086    2.688206    2.789675
    132          1           0       11.795814   -0.236007    2.442324
    133          1           0       10.265006    0.444015    2.928074
    134          1           0       11.423751    1.755089    4.652338
    135          1           0       13.018633   -0.859489    4.918805
    136          1           0       13.358730    0.849789    5.486308
    137          1           0       13.642691    0.456993    3.834262
    138          1           0       11.076943   -0.121881    6.274373
    139          1           0       10.211646   -0.944907    4.844222
    140          1           0        9.705247    0.654998    5.430595
 ---------------------------------------------------------------------

 SCF Done:  E(RCAM-B3LYP) =  -3007.15081945     A.U. after   19 cycles

 Excitation energies and oscillator strengths:

 Excited State   1:      Singlet-A      1.7048 eV  727.28 nm  f=0.3697  <S**2>=0.000
     245 -> 248       -0.18564
     246 -> 247        0.68330
     245 <- 248       -0.10912
 This state for optimization and/or second-order correction.
 Total Energy, E(TD-HF/TD-DFT) =  -3007.08817086
 Copying the excited state density for this state as the 1-particle RhoCI density.

 Excited State   2:      Singlet-A      2.2688 eV  546.48 nm  f=0.0714  <S**2>=0.000
     245 -> 247        0.61440
     246 -> 248        0.33973

 Excited State   3:      Singlet-A      3.4234 eV  362.17 nm  f=0.6252  <S**2>=0.000
     241 -> 247        0.17882
     244 -> 247       -0.14436
     245 -> 247       -0.29984
     246 -> 248        0.55851
     245 <- 247        0.10225

 Excited State   4:      Singlet-A      3.5788 eV  346.44 nm  f=0.1392  <S**2>=0.000
     239 -> 247       -0.10268
     240 -> 247        0.15716
     241 -> 249        0.15065
     242 -> 247        0.15205
     242 -> 249       -0.14157
     244 -> 247        0.49882
     245 -> 247       -0.13320
     246 -> 248        0.23140
     246 -> 249       -0.11977

 Excited State   5:      Singlet-A      3.7308 eV  332.33 nm  f=0.0467  <S**2>=0.000
     240 -> 247       -0.10714
     240 -> 249       -0.20731
     241 -> 247       -0.27411
     242 -> 247        0.41275
     244 -> 247       -0.27766

 The electronic state is 1-A.
 Alpha  occ. eigenvalues --  -46.89090 -19.25737 -19.24657 -19.20973 -19.19864
 Alpha  occ. eigenvalues --  -19.19040 -19.18338 -14.41841 -14.41784 -14.39765
 Alpha  occ. eigenvalues --  -14.39320 -10.40273 -10.39516 -10.35280 -10.33918
 Alpha  occ. eigenvalues --  -10.31903 -10.31776 -10.31023 -10.30766 -10.30533
 Alpha  occ. eigenvalues --  -10.30250 -10.30101 -10.30061 -10.29300 -10.29156
 Alpha  occ. eigenvalues --  -10.28947 -10.28020 -10.27951 -10.27890 -10.27835
 Alpha  occ. eigenvalues --  -10.27661 -10.27449 -10.27245 -10.27174 -10.27096
 Alpha  occ. eigenvalues --  -10.27007 -10.26929 -10.26891 -10.26803 -10.26592
 Alpha  occ. eigenvalues --  -10.26454 -10.26310 -10.26132 -10.26109 -10.26097
 Alpha  occ. eigenvalues --  -10.26073 -10.26020 -10.25954 -10.25902 -10.25842
 Alpha  occ. eigenvalues --  -10.25708 -10.25636 -10.25447 -10.25286 -10.25277
 Alpha  occ. eigenvalues --  -10.25159 -10.25104 -10.24929 -10.24867 -10.24730
 Alpha  occ. eigenvalues --  -10.24716 -10.24682 -10.24585 -10.24558 -10.24281
 Alpha  occ. eigenvalues --  -10.24099  -3.17558  -1.92475  -1.92015  -1.91851
 Alpha  occ. eigenvalues --   -1.16913  -1.15951  -1.09605  -1.09417  -1.08558
 Alpha  occ. eigenvalues --   -1.06195  -1.05665  -1.04500  -1.03646  -1.03143
 Alpha  occ. eigenvalues --   -0.92679  -0.90504  -0.89783  -0.89014  -0.88761
 Alpha  occ. eigenvalues --   -0.88371  -0.88218  -0.87496  -0.87419  -0.87006
 Alpha  occ. eigenvalues --   -0.85528  -0.85270  -0.83982  -0.83745  -0.83069
 Alpha  occ. eigenvalues --   -0.82255  -0.82026  -0.81368  -0.80796  -0.80284
 Alpha  occ. eigenvalues --   -0.79787  -0.78260  -0.77883  -0.76781  -0.76306
 Alpha  occ. eigenvalues --   -0.76096  -0.75787  -0.75018  -0.74739  -0.74315
 Alpha  occ. eigenvalues --   -0.73491  -0.72316  -0.71279  -0.70539  -0.68631
 Alpha  occ. eigenvalues --   -0.68374  -0.67943  -0.66901  -0.66563  -0.65772
 Alpha  occ. eigenvalues --   -0.65236  -0.65172  -0.64469  -0.63971  -0.63705
 Alpha  occ. eigenvalues --   -0.63503  -0.63356  -0.62681  -0.62596  -0.60401
 Alpha  occ. eigenvalues --   -0.60207  -0.59657  -0.58954  -0.58734  -0.57940
 Alpha  occ. eigenvalues --   -0.57510  -0.56714  -0.56034  -0.55656  -0.55425
 Alpha  occ. eigenvalues --   -0.55136  -0.55002  -0.54789  -0.54411  -0.54095
 Alpha  occ. eigenvalues --   -0.53583  -0.53329  -0.53181  -0.53048  -0.52525
 Alpha  occ. eigenvalues --   -0.52504  -0.52415  -0.52316  -0.52244  -0.51965
 Alpha  occ. eigenvalues --   -0.51644  -0.51252  -0.50941  -0.50752  -0.50704
 Alpha  occ. eigenvalues --   -0.50659  -0.50270  -0.50161  -0.49880  -0.49527
 Alpha  occ. eigenvalues --   -0.49097  -0.49013  -0.48860  -0.48762  -0.48652
 Alpha  occ. eigenvalues --   -0.48386  -0.48104  -0.48035  -0.47859  -0.47785
 Alpha  occ. eigenvalues --   -0.47499  -0.47354  -0.47281  -0.47199  -0.46968
 Alpha  occ. eigenvalues --   -0.46906  -0.46526  -0.46293  -0.46227  -0.46097
 Alpha  occ. eigenvalues --   -0.45975  -0.45392  -0.45282  -0.45261  -0.44937
 Alpha  occ. eigenvalues --   -0.44745  -0.44538  -0.44073  -0.43894  -0.43840
 Alpha  occ. eigenvalues --   -0.43751  -0.43423  -0.43264  -0.43048  -0.42917
 Alpha  occ. eigenvalues --   -0.42860  -0.42535  -0.42407  -0.42087  -0.42010
 Alpha  occ. eigenvalues --   -0.41833  -0.41524  -0.41487  -0.41344  -0.41061
 Alpha  occ. eigenvalues --   -0.40801  -0.40520  -0.40343  -0.40271  -0.39912
 Alpha  occ. eigenvalues --   -0.39513  -0.39441  -0.39355  -0.38781  -0.38677
 Alpha  occ. eigenvalues --   -0.38512  -0.38188  -0.37870  -0.37849  -0.37511
 Alpha  occ. eigenvalues --   -0.37321  -0.36704  -0.36593  -0.36261  -0.36195
 Alpha  occ. eigenvalues --   -0.36016  -0.35910  -0.34826  -0.34644  -0.34390
 Alpha  occ. eigenvalues --   -0.34022  -0.33986  -0.32517  -0.31601  -0.31063
 Alpha  occ. eigenvalues --   -0.30637  -0.30516  -0.30295  -0.29725  -0.23693
 Alpha  occ. eigenvalues --   -0.20362
 Alpha virt. eigenvalues --   -0.07905  -0.01522   0.00558   0.02452   0.02668
 Alpha virt. eigenvalues --    0.03330   0.04359   0.05514   0.05846   0.06739
 Alpha virt. eigenvalues --    0.07900   0.08234   0.08569   0.08842   0.09007

 Mulliken charges:
               1
     1  Mg   0.834535
     2  C    0.035307
     3  C   -0.089440
     4  C   -0.026612
     5  C   -0.070005
     6  N   -0.227652
     7  C   -0.090516
     8  C   -0.045436
     9  C   -0.096702
    10  C    0.095270
    11  C    0.097033
    12  C    0.080327
    13  C    0.032596
    14  C    0.159166
    15  O   -0.208133
    16  O   -0.361812
    17  N   -0.363355
    18  C    0.079538
    19  C   -0.138163
    20  C    0.000755
    21  C    0.080824
    22  C    0.092036
    23  C    0.001133
    24  O   -0.216329
    25  C    0.063961
    26  N   -0.233091
    27  C   -0.009989
    28  C   -0.052133
    29  C   -0.040069
    30  C    0.041389
    31  C    0.074944
    32  C   -0.003322
    33  C   -0.008226
    34  N   -0.339273
    35  C    0.096092
    36  C   -0.173741
    37  C   -0.024343
    38  C    0.111005
    39  C    0.122235
    40  C    0.056864
    41  O   -0.147001
    42  C   -0.021045
    43  C    0.193647
    44  O   -0.242638
    45  O   -0.340004
    46  C    0.166591
    47  C    0.274112
    48  C   -0.119844
    49  C   -0.140108
    50  C    0.073318
    51  C    0.061928
    52  C   -0.015313
    53  C    0.076021
    54  C   -0.163877
    55  C    0.065353
    56  C    0.022153
    57  C    0.028067
    58  C    0.030778
    59  C   -0.137957
    60  C    0.026552
    61  C    0.079210
    62  C    0.025831
    63  C    0.045516
    64  C   -0.183850
    65  C    0.068629
    66  C    0.057271
    67  H   -0.033588
    68  H   -0.015621
    69  H   -0.028253
    70  H    0.030836
    71  H   -0.002068
    72  H    0.028325
    73  H    0.020976
    74  H    0.011898
    75  H    0.017428
    76  H    0.033589
    77  H    0.024598
    78  H    0.049496
    79  H    0.032629
    80  H    0.014618
    81  H    0.007272
    82  H    0.033579
    83  H    0.023879
    84  H    0.047106
    85  H    0.019136
    86  H    0.008870
    87  H    0.029481
    88  H    0.032883
    89  H    0.019347
    90  H    0.023481
    91  H    0.012453
    92  H    0.023201
    93  H    0.006423
    94  H    0.015738
    95  H    0.013911
    96  H    0.038554
    97  H    0.044513
    98  H    0.060714
    99  H    0.054654
   100  H    0.040077
   101  H    0.039004
   102  H    0.022367
   103  H    0.038671
   104  H    0.002523
   105  H   -0.009109
   106  H    0.022586
   107  H    0.023795
   108  H    0.001902
   109  H   -0.014114
   110  H   -0.001035
   111  H   -0.004943
   112  H   -0.007343
   113  H    0.002442
   114  H    0.000929
   115  H    0.005033
   116  H    0.012143
   117  H    0.014912
   118  H    0.002570
   119  H    0.000316
   120  H   -0.001352
   121  H    0.001901
   122  H    0.004819
   123  H   -0.010317
   124  H    0.000414
   125  H    0.002773
   126  H    0.012754
   127  H    0.008973
   128  H   -0.014492
   129  H   -0.002602
   130  H   -0.012774
   131  H   -0.009223
   132  H   -0.011071
   133  H   -0.031224
   134  H   -0.010744
   135  H    0.019754
   136  H    0.003542
   137  H    0.003147
   138  H    0.010738
   139  H    0.015891
   140  H    0.006301
 Sum of Mulliken charges =  -0.00000

 Dipole moment (field-independent basis, Debye):
    X=              4.4661    Y=              2.6479    Z=             -0.4980  Tot=              5.2159
 Quadrupole moment (field-independent basis, Debye-Ang):
   XX=           -387.3835   YY=           -431.4069   ZZ=           -404.7407
   XY=            -25.8711   XZ=             -1.9859   YZ=             -2.8196

 Normal termination of Gaussian 16 at Sat Apr 30 02:27:01 2022.
