 Gaussian 16, Revision A.03,
 Gaussian 16:  ES64L-G16RevA.03 25-Dec-2016

 ---------------------------------
 #p PBE1PBE/Def2SVP td=(nstates=5)
 ---------------------------------

 -----------------------------------------------------
 step_551_chromophore_15 TDDFT with PBE1PBE functional
 -----------------------------------------------------
 Symbolic Z-matrix:
 Charge =  0 Multiplicity = 1

                         Standard orientation:
 ---------------------------------------------------------------------
 Center     Atomic      Atomic             Coordinates (Angstroms)
 Number     Number       Type             X           Y           Z
 ---------------------------------------------------------------------
      1         12           0       -4.949784    0.920252    0.060763
      2          6           0       -4.277095   -2.426503    0.651683
      3          6           0       -1.507803    1.463497   -0.074535
      4          6           0       -5.649631    4.143761   -0.087057
      5          6           0       -8.455906    0.231667    0.471501
      6          7           0       -3.139369   -0.346273    0.218820
      7          6           0       -3.110163   -1.694686    0.346124
      8          6           0       -1.755689   -2.296782   -0.013349
      9          6           0       -0.896967   -0.939577    0.233659
     10          6           0       -1.939184    0.134051    0.172558
     11          6           0        0.073264   -0.876133    1.428061
     12          6           0       -1.832288   -2.826854   -1.520252
     13          6           0       -0.634411   -3.730431   -1.915460
     14          6           0        0.675304   -3.816181   -1.133861
     15          8           0        0.841079   -4.050868    0.028252
     16          8           0        1.776015   -3.733614   -2.000774
     17          7           0       -3.724762    2.585785   -0.105996
     18          6           0       -2.366527    2.617590   -0.198292
     19          6           0       -1.998296    3.986440   -0.453766
     20          6           0       -3.090861    4.753939   -0.287611
     21          6           0       -4.217928    3.842873   -0.145966
     22          6           0       -0.584995    4.362738   -0.651520
     23          6           0       -3.155013    6.307391   -0.267271
     24          8           0       -4.224813    6.925019   -0.363769
     25          6           0       -1.908770    7.105512   -0.350996
     26          7           0       -6.824394    2.067184    0.274078
     27          6           0       -6.830894    3.418893    0.188182
     28          6           0       -8.160766    4.062283    0.336519
     29          6           0       -9.107030    2.797517    0.372524
     30          6           0       -8.069962    1.614998    0.346922
     31          6           0       -8.274621    4.891402    1.706336
     32          6           0       -9.972708    2.675943   -0.934786
     33          6           0      -11.448394    2.264523   -0.682182
     34          7           0       -6.137586   -0.695541    0.548668
     35          6           0       -7.523471   -0.834730    0.597729
     36          6           0       -7.839881   -2.315011    0.865440
     37          6           0       -6.577336   -2.903912    0.917550
     38          6           0       -5.593026   -1.888030    0.704610
     39          6           0       -9.300360   -2.933441    1.045209
     40          6           0       -5.988945   -4.188440    0.971391
     41          8           0       -6.496295   -5.290815    1.037007
     42          6           0       -4.460164   -3.914114    0.906102
     43          6           0       -3.682346   -4.949862    0.241698
     44          8           0       -4.058141   -5.682239   -0.715887
     45          8           0       -2.698548   -5.231385    1.137074
     46          6           0       -2.039722   -6.566225    1.050642
     47          6           0        3.102641   -3.979432   -1.436148
     48          6           0        4.134659   -3.180341   -2.149685
     49          6           0        5.351200   -2.876868   -1.759084
     50          6           0        6.012008   -3.360868   -0.458062
     51          6           0        6.273812   -2.049330   -2.609472
     52          6           0        5.912912   -0.473286   -2.743154
     53          6           0        7.010625    0.473223   -3.415142
     54          6           0        7.977345    1.035115   -2.262863
     55          6           0        8.302158    2.550373   -2.248793
     56          6           0        9.327374    0.234380   -2.430303
     57          6           0       10.178612    0.238086   -1.172830
     58          6           0       11.652439    0.898307   -1.386501
     59          6           0       11.927064    2.202175   -0.454047
     60          6           0       12.892839    3.150797   -1.207379
     61          6           0       12.543117    1.803061    0.898303
     62          6           0       11.609118    1.891230    2.115149
     63          6           0       11.339956    0.622809    2.935265
     64          6           0       11.600235    0.700966    4.442508
     65          6           0       13.005594    0.204639    4.681835
     66          6           0       10.549679   -0.026797    5.325283
     67          1           0       -0.461209    1.730896   -0.234492
     68          1           0       -5.849110    5.217144   -0.118011
     69          1           0       -9.520856   -0.009305    0.444311
     70          1           0       -1.475679   -3.116271    0.649531
     71          1           0       -0.198179   -0.820485   -0.594822
     72          1           0        0.159722   -1.885978    1.829639
     73          1           0       -0.332602   -0.156360    2.138525
     74          1           0        1.039565   -0.615976    0.995956
     75          1           0       -1.796291   -2.022830   -2.255148
     76          1           0       -2.751567   -3.409003   -1.579680
     77          1           0       -0.299569   -3.445805   -2.913454
     78          1           0       -0.985688   -4.749240   -2.078016
     79          1           0       -0.144429    4.755847    0.265242
     80          1           0       -0.416937    5.052003   -1.478868
     81          1           0        0.113585    3.589578   -0.970831
     82          1           0       -1.202467    6.733701    0.390018
     83          1           0       -2.298694    8.114266   -0.208092
     84          1           0       -1.533198    7.193867   -1.370842
     85          1           0       -8.404816    4.700434   -0.511732
     86          1           0       -9.804607    2.931643    1.199988
     87          1           0       -8.336136    5.929534    1.381541
     88          1           0       -7.326227    4.667150    2.193942
     89          1           0       -9.163718    4.566269    2.247050
     90          1           0       -9.638151    1.842553   -1.552984
     91          1           0      -10.110869    3.625519   -1.451957
     92          1           0      -12.073329    2.966255   -1.235984
     93          1           0      -11.672225    2.261145    0.384554
     94          1           0      -11.493323    1.227780   -1.014864
     95          1           0      -10.084726   -2.177490    1.019959
     96          1           0       -9.347305   -3.474755    1.989912
     97          1           0       -9.397412   -3.665361    0.243237
     98          1           0       -4.231334   -4.090405    1.956542
     99          1           0       -2.136126   -7.051851    0.078786
    100          1           0       -2.369673   -7.232911    1.846893
    101          1           0       -0.977155   -6.452619    1.264412
    102          1           0        3.276742   -5.053476   -1.502484
    103          1           0        3.119383   -3.797121   -0.361353
    104          1           0        3.780674   -2.720813   -3.072393
    105          1           0        5.245693   -3.887244    0.110485
    106          1           0        6.447006   -2.596029    0.185640
    107          1           0        6.818094   -4.083028   -0.592360
    108          1           0        6.181197   -2.467406   -3.611338
    109          1           0        7.336640   -2.161398   -2.394278
    110          1           0        5.709192   -0.220516   -1.703343
    111          1           0        4.941191   -0.400005   -3.231575
    112          1           0        6.397742    1.183552   -3.970295
    113          1           0        7.547778   -0.083422   -4.183460
    114          1           0        7.515816    0.875603   -1.288679
    115          1           0        9.378342    2.589085   -2.420199
    116          1           0        8.106067    2.920417   -1.242111
    117          1           0        7.773968    3.122821   -3.010803
    118          1           0        9.778930    0.803137   -3.243056
    119          1           0        9.120661   -0.796851   -2.715261
    120          1           0       10.302228   -0.794902   -0.848275
    121          1           0        9.638783    0.779979   -0.396437
    122          1           0       11.904818    1.083938   -2.431066
    123          1           0       12.283570    0.109753   -0.977491
    124          1           0       10.982429    2.744882   -0.423781
    125          1           0       12.457312    3.508159   -2.139791
    126          1           0       13.828396    2.640930   -1.440340
    127          1           0       13.049225    4.032027   -0.585285
    128          1           0       13.313315    2.549350    1.091905
    129          1           0       13.050574    0.838182    0.882423
    130          1           0       10.673422    2.260689    1.695914
    131          1           0       11.924086    2.688206    2.789675
    132          1           0       11.795814   -0.236007    2.442324
    133          1           0       10.265006    0.444015    2.928074
    134          1           0       11.423751    1.755089    4.652338
    135          1           0       13.018633   -0.859489    4.918805
    136          1           0       13.358730    0.849789    5.486308
    137          1           0       13.642691    0.456993    3.834262
    138          1           0       11.076943   -0.121881    6.274373
    139          1           0       10.211646   -0.944907    4.844222
    140          1           0        9.705247    0.654998    5.430595
 ---------------------------------------------------------------------

 SCF Done:  E(RPBE1PBE) =  -3005.33843683     A.U. after   15 cycles

 Excitation energies and oscillator strengths:

 Excited State   1:      Singlet-A      1.8584 eV  667.17 nm  f=0.3538  <S**2>=0.000
     245 -> 248        0.17732
     246 -> 247        0.69096
     246 <- 247       -0.10676
 This state for optimization and/or second-order correction.
 Total Energy, E(TD-HF/TD-DFT) =  -3005.27014353
 Copying the excited state density for this state as the 1-particle RhoCI density.

 Excited State   2:      Singlet-A      2.2650 eV  547.40 nm  f=0.0834  <S**2>=0.000
     245 -> 247        0.63394
     246 -> 248       -0.30153

 Excited State   3:      Singlet-A      3.0757 eV  403.11 nm  f=0.0371  <S**2>=0.000
     242 -> 247       -0.16675
     244 -> 247        0.59596
     244 -> 249       -0.13722
     246 -> 248        0.22480

 Excited State   4:      Singlet-A      3.2650 eV  379.74 nm  f=0.2604  <S**2>=0.000
     241 -> 247       -0.13941
     242 -> 247       -0.25387
     244 -> 247       -0.24353
     245 -> 247        0.21119
     246 -> 248        0.48314
     246 -> 249        0.19592
     246 -> 250       -0.11735

 Excited State   5:      Singlet-A      3.2993 eV  375.79 nm  f=0.0752  <S**2>=0.000
     241 -> 247        0.18802
     241 -> 249        0.11986
     242 -> 247        0.53631
     245 -> 247        0.10593
     246 -> 248        0.23042
     246 -> 249        0.21220

 The electronic state is 1-A.
 Alpha  occ. eigenvalues --  -46.92473 -19.26397 -19.25386 -19.21194 -19.20124
 Alpha  occ. eigenvalues --  -19.19258 -19.18561 -14.41296 -14.41266 -14.39366
 Alpha  occ. eigenvalues --  -14.38973 -10.37289 -10.36514 -10.32436 -10.31020
 Alpha  occ. eigenvalues --  -10.29322 -10.28979 -10.28779 -10.28466 -10.28269
 Alpha  occ. eigenvalues --  -10.27929 -10.27865 -10.27825 -10.27029 -10.26810
 Alpha  occ. eigenvalues --  -10.26565 -10.25754 -10.25678 -10.25656 -10.25542
 Alpha  occ. eigenvalues --  -10.25463 -10.25035 -10.25019 -10.24863 -10.24775
 Alpha  occ. eigenvalues --  -10.24741 -10.24660 -10.24550 -10.24269 -10.24141
 Alpha  occ. eigenvalues --  -10.24063 -10.24044 -10.23864 -10.23764 -10.23688
 Alpha  occ. eigenvalues --  -10.23649 -10.23512 -10.23506 -10.23451 -10.23286
 Alpha  occ. eigenvalues --  -10.23252 -10.23162 -10.23081 -10.22848 -10.22753
 Alpha  occ. eigenvalues --  -10.22748 -10.22611 -10.22521 -10.22345 -10.22296
 Alpha  occ. eigenvalues --  -10.22272 -10.22119 -10.22111 -10.21972 -10.21646
 Alpha  occ. eigenvalues --  -10.21643  -3.14524  -1.87382  -1.86900  -1.86739
 Alpha  occ. eigenvalues --   -1.11703  -1.10706  -1.04336  -1.04135  -1.03439
 Alpha  occ. eigenvalues --   -1.00989  -1.00308  -0.99119  -0.98357  -0.97814
 Alpha  occ. eigenvalues --   -0.87023  -0.84669  -0.83870  -0.83144  -0.82927
 Alpha  occ. eigenvalues --   -0.82657  -0.82523  -0.81830  -0.81535  -0.81325
 Alpha  occ. eigenvalues --   -0.79805  -0.79549  -0.78256  -0.77952  -0.77328
 Alpha  occ. eigenvalues --   -0.76458  -0.76203  -0.75579  -0.75032  -0.74637
 Alpha  occ. eigenvalues --   -0.73957  -0.72575  -0.72127  -0.71098  -0.70538
 Alpha  occ. eigenvalues --   -0.70321  -0.69878  -0.69372  -0.68899  -0.68495
 Alpha  occ. eigenvalues --   -0.67813  -0.66732  -0.65734  -0.64889  -0.63124
 Alpha  occ. eigenvalues --   -0.62611  -0.62347  -0.61325  -0.60810  -0.60269
 Alpha  occ. eigenvalues --   -0.59594  -0.59411  -0.59026  -0.58503  -0.57984
 Alpha  occ. eigenvalues --   -0.57838  -0.57505  -0.57146  -0.56843  -0.54971
 Alpha  occ. eigenvalues --   -0.54664  -0.54207  -0.53502  -0.53323  -0.52532
 Alpha  occ. eigenvalues --   -0.51941  -0.51233  -0.50633  -0.50064  -0.49968
 Alpha  occ. eigenvalues --   -0.49748  -0.49463  -0.49213  -0.48840  -0.48623
 Alpha  occ. eigenvalues --   -0.48130  -0.47762  -0.47689  -0.47479  -0.47122
 Alpha  occ. eigenvalues --   -0.46982  -0.46915  -0.46888  -0.46763  -0.46520
 Alpha  occ. eigenvalues --   -0.46292  -0.45794  -0.45491  -0.45313  -0.45296
 Alpha  occ. eigenvalues --   -0.45179  -0.44862  -0.44776  -0.44415  -0.44064
 Alpha  occ. eigenvalues --   -0.43713  -0.43552  -0.43466  -0.43292  -0.43265
 Alpha  occ. eigenvalues --   -0.42992  -0.42721  -0.42650  -0.42479  -0.42411
 Alpha  occ. eigenvalues --   -0.42152  -0.42000  -0.41934  -0.41854  -0.41677
 Alpha  occ. eigenvalues --   -0.41532  -0.41210  -0.40922  -0.40853  -0.40818
 Alpha  occ. eigenvalues --   -0.40599  -0.40111  -0.40033  -0.39946  -0.39601
 Alpha  occ. eigenvalues --   -0.39441  -0.39214  -0.38879  -0.38709  -0.38516
 Alpha  occ. eigenvalues --   -0.38479  -0.38259  -0.38114  -0.37864  -0.37730
 Alpha  occ. eigenvalues --   -0.37611  -0.37389  -0.37123  -0.36859  -0.36812
 Alpha  occ. eigenvalues --   -0.36671  -0.36452  -0.36333  -0.36156  -0.35871
 Alpha  occ. eigenvalues --   -0.35571  -0.35424  -0.35221  -0.35130  -0.34827
 Alpha  occ. eigenvalues --   -0.34362  -0.34308  -0.34162  -0.33608  -0.33565
 Alpha  occ. eigenvalues --   -0.33335  -0.32957  -0.32881  -0.32654  -0.32444
 Alpha  occ. eigenvalues --   -0.32331  -0.31687  -0.31628  -0.31328  -0.31145
 Alpha  occ. eigenvalues --   -0.31044  -0.30804  -0.29704  -0.29566  -0.29486
 Alpha  occ. eigenvalues --   -0.29017  -0.28903  -0.28036  -0.27022  -0.26277
 Alpha  occ. eigenvalues --   -0.25903  -0.25664  -0.25588  -0.25067  -0.20586
 Alpha  occ. eigenvalues --   -0.18057
 Alpha virt. eigenvalues --   -0.10434  -0.04997  -0.03706  -0.01958  -0.01288
 Alpha virt. eigenvalues --   -0.00361   0.00091   0.01097   0.02057   0.03096
 Alpha virt. eigenvalues --    0.03661   0.04515   0.05037   0.05398   0.05647

 Mulliken charges:
               1
     1  Mg   0.980273
     2  C    0.017017
     3  C   -0.072017
     4  C   -0.020212
     5  C   -0.061601
     6  N   -0.339319
     7  C   -0.015763
     8  C   -0.118436
     9  C   -0.170125
    10  C    0.130614
    11  C    0.039777
    12  C    0.030464
    13  C   -0.036432
    14  C    0.225183
    15  O   -0.243126
    16  O   -0.395007
    17  N   -0.484107
    18  C    0.112192
    19  C   -0.171607
    20  C   -0.057149
    21  C    0.120836
    22  C    0.034955
    23  C    0.057430
    24  O   -0.251778
    25  C   -0.011769
    26  N   -0.338473
    27  C    0.020455
    28  C   -0.124723
    29  C   -0.113720
    30  C    0.075521
    31  C    0.018260
    32  C   -0.057907
    33  C   -0.078367
    34  N   -0.470956
    35  C    0.113323
    36  C   -0.173015
    37  C   -0.079394
    38  C    0.161766
    39  C    0.067011
    40  C    0.151386
    41  O   -0.196364
    42  C   -0.118790
    43  C    0.278529
    44  O   -0.279147
    45  O   -0.371357
    46  C    0.113561
    47  C    0.239284
    48  C   -0.132070
    49  C   -0.189440
    50  C    0.012782
    51  C   -0.000155
    52  C   -0.078342
    53  C    0.019855
    54  C   -0.243051
    55  C    0.003835
    56  C   -0.039821
    57  C   -0.031320
    58  C   -0.021989
    59  C   -0.225704
    60  C   -0.037478
    61  C    0.027034
    62  C   -0.032403
    63  C   -0.013246
    64  C   -0.272127
    65  C    0.002538
    66  C   -0.008657
    67  H   -0.001238
    68  H    0.017377
    69  H    0.005456
    70  H    0.070106
    71  H    0.036694
    72  H    0.056381
    73  H    0.048913
    74  H    0.038608
    75  H    0.048967
    76  H    0.070405
    77  H    0.056692
    78  H    0.080694
    79  H    0.060612
    80  H    0.042918
    81  H    0.033874
    82  H    0.060055
    83  H    0.051773
    84  H    0.073689
    85  H    0.054149
    86  H    0.043469
    87  H    0.056680
    88  H    0.061691
    89  H    0.046416
    90  H    0.056436
    91  H    0.044560
    92  H    0.050624
    93  H    0.033567
    94  H    0.042909
    95  H    0.039767
    96  H    0.065234
    97  H    0.071145
    98  H    0.099771
    99  H    0.074431
   100  H    0.061734
   101  H    0.059985
   102  H    0.050143
   103  H    0.063144
   104  H    0.032132
   105  H    0.019225
   106  H    0.049358
   107  H    0.051459
   108  H    0.035878
   109  H    0.020063
   110  H    0.032877
   111  H    0.027111
   112  H    0.025333
   113  H    0.034245
   114  H    0.037205
   115  H    0.035635
   116  H    0.038841
   117  H    0.042375
   118  H    0.035885
   119  H    0.033916
   120  H    0.030949
   121  H    0.035245
   122  H    0.034885
   123  H    0.023188
   124  H    0.037963
   125  H    0.031326
   126  H    0.040970
   127  H    0.037800
   128  H    0.019532
   129  H    0.027167
   130  H    0.019995
   131  H    0.021970
   132  H    0.021200
   133  H    0.004045
   134  H    0.027393
   135  H    0.046991
   136  H    0.032172
   137  H    0.033062
   138  H    0.039299
   139  H    0.043308
   140  H    0.034751
 Sum of Mulliken charges =  -0.00000

 Dipole moment (field-independent basis, Debye):
    X=              4.5224    Y=              2.7477    Z=             -0.5398  Tot=              5.3192
 Quadrupole moment (field-independent basis, Debye-Ang):
   XX=           -382.3002   YY=           -428.4455   ZZ=           -402.2874
   XY=            -26.8585   XZ=             -1.8896   YZ=             -2.9049

 Normal termination of Gaussian 16 at Sat Apr 30 02:45:17 2022.
