 Gaussian 16, Revision A.03,
 Gaussian 16:  ES64L-G16RevA.03 25-Dec-2016

 --------------------------------
 #p wB97XD/Def2SVP td=(nstates=5)
 --------------------------------

 ----------------------------------------------------
 step_551_chromophore_15 TDDFT with wB97XD functional
 ----------------------------------------------------
 Symbolic Z-matrix:
 Charge =  0 Multiplicity = 1

                         Standard orientation:
 ---------------------------------------------------------------------
 Center     Atomic      Atomic             Coordinates (Angstroms)
 Number     Number       Type             X           Y           Z
 ---------------------------------------------------------------------
      1         12           0       -4.949784    0.920252    0.060763
      2          6           0       -4.277095   -2.426503    0.651683
      3          6           0       -1.507803    1.463497   -0.074535
      4          6           0       -5.649631    4.143761   -0.087057
      5          6           0       -8.455906    0.231667    0.471501
      6          7           0       -3.139369   -0.346273    0.218820
      7          6           0       -3.110163   -1.694686    0.346124
      8          6           0       -1.755689   -2.296782   -0.013349
      9          6           0       -0.896967   -0.939577    0.233659
     10          6           0       -1.939184    0.134051    0.172558
     11          6           0        0.073264   -0.876133    1.428061
     12          6           0       -1.832288   -2.826854   -1.520252
     13          6           0       -0.634411   -3.730431   -1.915460
     14          6           0        0.675304   -3.816181   -1.133861
     15          8           0        0.841079   -4.050868    0.028252
     16          8           0        1.776015   -3.733614   -2.000774
     17          7           0       -3.724762    2.585785   -0.105996
     18          6           0       -2.366527    2.617590   -0.198292
     19          6           0       -1.998296    3.986440   -0.453766
     20          6           0       -3.090861    4.753939   -0.287611
     21          6           0       -4.217928    3.842873   -0.145966
     22          6           0       -0.584995    4.362738   -0.651520
     23          6           0       -3.155013    6.307391   -0.267271
     24          8           0       -4.224813    6.925019   -0.363769
     25          6           0       -1.908770    7.105512   -0.350996
     26          7           0       -6.824394    2.067184    0.274078
     27          6           0       -6.830894    3.418893    0.188182
     28          6           0       -8.160766    4.062283    0.336519
     29          6           0       -9.107030    2.797517    0.372524
     30          6           0       -8.069962    1.614998    0.346922
     31          6           0       -8.274621    4.891402    1.706336
     32          6           0       -9.972708    2.675943   -0.934786
     33          6           0      -11.448394    2.264523   -0.682182
     34          7           0       -6.137586   -0.695541    0.548668
     35          6           0       -7.523471   -0.834730    0.597729
     36          6           0       -7.839881   -2.315011    0.865440
     37          6           0       -6.577336   -2.903912    0.917550
     38          6           0       -5.593026   -1.888030    0.704610
     39          6           0       -9.300360   -2.933441    1.045209
     40          6           0       -5.988945   -4.188440    0.971391
     41          8           0       -6.496295   -5.290815    1.037007
     42          6           0       -4.460164   -3.914114    0.906102
     43          6           0       -3.682346   -4.949862    0.241698
     44          8           0       -4.058141   -5.682239   -0.715887
     45          8           0       -2.698548   -5.231385    1.137074
     46          6           0       -2.039722   -6.566225    1.050642
     47          6           0        3.102641   -3.979432   -1.436148
     48          6           0        4.134659   -3.180341   -2.149685
     49          6           0        5.351200   -2.876868   -1.759084
     50          6           0        6.012008   -3.360868   -0.458062
     51          6           0        6.273812   -2.049330   -2.609472
     52          6           0        5.912912   -0.473286   -2.743154
     53          6           0        7.010625    0.473223   -3.415142
     54          6           0        7.977345    1.035115   -2.262863
     55          6           0        8.302158    2.550373   -2.248793
     56          6           0        9.327374    0.234380   -2.430303
     57          6           0       10.178612    0.238086   -1.172830
     58          6           0       11.652439    0.898307   -1.386501
     59          6           0       11.927064    2.202175   -0.454047
     60          6           0       12.892839    3.150797   -1.207379
     61          6           0       12.543117    1.803061    0.898303
     62          6           0       11.609118    1.891230    2.115149
     63          6           0       11.339956    0.622809    2.935265
     64          6           0       11.600235    0.700966    4.442508
     65          6           0       13.005594    0.204639    4.681835
     66          6           0       10.549679   -0.026797    5.325283
     67          1           0       -0.461209    1.730896   -0.234492
     68          1           0       -5.849110    5.217144   -0.118011
     69          1           0       -9.520856   -0.009305    0.444311
     70          1           0       -1.475679   -3.116271    0.649531
     71          1           0       -0.198179   -0.820485   -0.594822
     72          1           0        0.159722   -1.885978    1.829639
     73          1           0       -0.332602   -0.156360    2.138525
     74          1           0        1.039565   -0.615976    0.995956
     75          1           0       -1.796291   -2.022830   -2.255148
     76          1           0       -2.751567   -3.409003   -1.579680
     77          1           0       -0.299569   -3.445805   -2.913454
     78          1           0       -0.985688   -4.749240   -2.078016
     79          1           0       -0.144429    4.755847    0.265242
     80          1           0       -0.416937    5.052003   -1.478868
     81          1           0        0.113585    3.589578   -0.970831
     82          1           0       -1.202467    6.733701    0.390018
     83          1           0       -2.298694    8.114266   -0.208092
     84          1           0       -1.533198    7.193867   -1.370842
     85          1           0       -8.404816    4.700434   -0.511732
     86          1           0       -9.804607    2.931643    1.199988
     87          1           0       -8.336136    5.929534    1.381541
     88          1           0       -7.326227    4.667150    2.193942
     89          1           0       -9.163718    4.566269    2.247050
     90          1           0       -9.638151    1.842553   -1.552984
     91          1           0      -10.110869    3.625519   -1.451957
     92          1           0      -12.073329    2.966255   -1.235984
     93          1           0      -11.672225    2.261145    0.384554
     94          1           0      -11.493323    1.227780   -1.014864
     95          1           0      -10.084726   -2.177490    1.019959
     96          1           0       -9.347305   -3.474755    1.989912
     97          1           0       -9.397412   -3.665361    0.243237
     98          1           0       -4.231334   -4.090405    1.956542
     99          1           0       -2.136126   -7.051851    0.078786
    100          1           0       -2.369673   -7.232911    1.846893
    101          1           0       -0.977155   -6.452619    1.264412
    102          1           0        3.276742   -5.053476   -1.502484
    103          1           0        3.119383   -3.797121   -0.361353
    104          1           0        3.780674   -2.720813   -3.072393
    105          1           0        5.245693   -3.887244    0.110485
    106          1           0        6.447006   -2.596029    0.185640
    107          1           0        6.818094   -4.083028   -0.592360
    108          1           0        6.181197   -2.467406   -3.611338
    109          1           0        7.336640   -2.161398   -2.394278
    110          1           0        5.709192   -0.220516   -1.703343
    111          1           0        4.941191   -0.400005   -3.231575
    112          1           0        6.397742    1.183552   -3.970295
    113          1           0        7.547778   -0.083422   -4.183460
    114          1           0        7.515816    0.875603   -1.288679
    115          1           0        9.378342    2.589085   -2.420199
    116          1           0        8.106067    2.920417   -1.242111
    117          1           0        7.773968    3.122821   -3.010803
    118          1           0        9.778930    0.803137   -3.243056
    119          1           0        9.120661   -0.796851   -2.715261
    120          1           0       10.302228   -0.794902   -0.848275
    121          1           0        9.638783    0.779979   -0.396437
    122          1           0       11.904818    1.083938   -2.431066
    123          1           0       12.283570    0.109753   -0.977491
    124          1           0       10.982429    2.744882   -0.423781
    125          1           0       12.457312    3.508159   -2.139791
    126          1           0       13.828396    2.640930   -1.440340
    127          1           0       13.049225    4.032027   -0.585285
    128          1           0       13.313315    2.549350    1.091905
    129          1           0       13.050574    0.838182    0.882423
    130          1           0       10.673422    2.260689    1.695914
    131          1           0       11.924086    2.688206    2.789675
    132          1           0       11.795814   -0.236007    2.442324
    133          1           0       10.265006    0.444015    2.928074
    134          1           0       11.423751    1.755089    4.652338
    135          1           0       13.018633   -0.859489    4.918805
    136          1           0       13.358730    0.849789    5.486308
    137          1           0       13.642691    0.456993    3.834262
    138          1           0       11.076943   -0.121881    6.274373
    139          1           0       10.211646   -0.944907    4.844222
    140          1           0        9.705247    0.654998    5.430595
 ---------------------------------------------------------------------

 SCF Done:  E(RwB97XD) =  -3007.84866170     A.U. after   20 cycles

 Excitation energies and oscillator strengths:

 Excited State   1:      Singlet-A      1.6450 eV  753.69 nm  f=0.3670  <S**2>=0.000
     245 -> 248       -0.19184
     246 -> 247        0.68104
     245 <- 248       -0.11885
 This state for optimization and/or second-order correction.
 Total Energy, E(TD-HF/TD-DFT) =  -3007.78820791
 Copying the excited state density for this state as the 1-particle RhoCI density.

 Excited State   2:      Singlet-A      2.2124 eV  560.42 nm  f=0.0693  <S**2>=0.000
     245 -> 247        0.61320
     246 -> 248        0.34175

 Excited State   3:      Singlet-A      3.4347 eV  360.98 nm  f=0.6519  <S**2>=0.000
     241 -> 247       -0.10596
     242 -> 247        0.13958
     244 -> 247       -0.15074
     244 -> 249        0.10916
     245 -> 247       -0.30312
     246 -> 248        0.56020
     245 <- 247        0.10787

 Excited State   4:      Singlet-A      3.6002 eV  344.38 nm  f=0.1404  <S**2>=0.000
     239 -> 247       -0.11369
     240 -> 247        0.10800
     242 -> 247       -0.13660
     242 -> 249        0.20998
     242 -> 250        0.11583
     244 -> 247        0.50875
     244 -> 249       -0.11422
     245 -> 247       -0.12867
     246 -> 248        0.22568
     246 -> 249       -0.10475

 Excited State   5:      Singlet-A      3.7467 eV  330.91 nm  f=0.0411  <S**2>=0.000
     239 -> 250       -0.10099
     240 -> 247        0.12173
     240 -> 249        0.21645
     240 -> 250       -0.10950
     241 -> 249       -0.16288
     242 -> 247        0.48454
     242 -> 250       -0.11851
     244 -> 247        0.22345
     244 -> 249        0.10843

 The electronic state is 1-A.
 Alpha  occ. eigenvalues --  -46.95423 -19.30965 -19.29910 -19.25853 -19.24841
 Alpha  occ. eigenvalues --  -19.24054 -19.23408 -14.46425 -14.46336 -14.44358
 Alpha  occ. eigenvalues --  -14.43891 -10.44057 -10.43388 -10.39238 -10.37925
 Alpha  occ. eigenvalues --  -10.35794 -10.35511 -10.35041 -10.34815 -10.34611
 Alpha  occ. eigenvalues --  -10.34231 -10.34114 -10.34096 -10.33361 -10.33330
 Alpha  occ. eigenvalues --  -10.32964 -10.32020 -10.32007 -10.31965 -10.31856
 Alpha  occ. eigenvalues --  -10.31732 -10.31528 -10.31284 -10.31213 -10.31175
 Alpha  occ. eigenvalues --  -10.31002 -10.30956 -10.30861 -10.30796 -10.30523
 Alpha  occ. eigenvalues --  -10.30508 -10.30323 -10.30186 -10.30137 -10.30036
 Alpha  occ. eigenvalues --  -10.29987 -10.29946 -10.29821 -10.29778 -10.29771
 Alpha  occ. eigenvalues --  -10.29661 -10.29554 -10.29422 -10.29212 -10.29106
 Alpha  occ. eigenvalues --  -10.29024 -10.28979 -10.28874 -10.28741 -10.28700
 Alpha  occ. eigenvalues --  -10.28664 -10.28532 -10.28491 -10.28404 -10.28077
 Alpha  occ. eigenvalues --  -10.27999  -3.21337  -1.94943  -1.94458  -1.94300
 Alpha  occ. eigenvalues --   -1.19050  -1.18131  -1.11852  -1.11612  -1.10756
 Alpha  occ. eigenvalues --   -1.08398  -1.07661  -1.06501  -1.05686  -1.05192
 Alpha  occ. eigenvalues --   -0.94670  -0.92334  -0.91533  -0.90805  -0.90581
 Alpha  occ. eigenvalues --   -0.90282  -0.90084  -0.89431  -0.89197  -0.88919
 Alpha  occ. eigenvalues --   -0.87481  -0.87167  -0.85903  -0.85602  -0.84956
 Alpha  occ. eigenvalues --   -0.84103  -0.83928  -0.83249  -0.82690  -0.82240
 Alpha  occ. eigenvalues --   -0.81628  -0.80209  -0.79787  -0.78716  -0.78193
 Alpha  occ. eigenvalues --   -0.77980  -0.77570  -0.76945  -0.76564  -0.76164
 Alpha  occ. eigenvalues --   -0.75413  -0.74307  -0.73251  -0.72479  -0.70653
 Alpha  occ. eigenvalues --   -0.70252  -0.69884  -0.68870  -0.68437  -0.67734
 Alpha  occ. eigenvalues --   -0.67132  -0.67042  -0.66469  -0.65971  -0.65521
 Alpha  occ. eigenvalues --   -0.65447  -0.65180  -0.64587  -0.64491  -0.62371
 Alpha  occ. eigenvalues --   -0.62151  -0.61620  -0.60908  -0.60733  -0.59932
 Alpha  occ. eigenvalues --   -0.59472  -0.58658  -0.58021  -0.57537  -0.57382
 Alpha  occ. eigenvalues --   -0.57130  -0.56896  -0.56680  -0.56288  -0.55990
 Alpha  occ. eigenvalues --   -0.55515  -0.55250  -0.55065  -0.54899  -0.54458
 Alpha  occ. eigenvalues --   -0.54379  -0.54286  -0.54227  -0.54130  -0.53862
 Alpha  occ. eigenvalues --   -0.53632  -0.53132  -0.52890  -0.52676  -0.52638
 Alpha  occ. eigenvalues --   -0.52536  -0.52192  -0.52087  -0.51761  -0.51397
 Alpha  occ. eigenvalues --   -0.51031  -0.50875  -0.50780  -0.50672  -0.50602
 Alpha  occ. eigenvalues --   -0.50309  -0.50000  -0.49952  -0.49763  -0.49685
 Alpha  occ. eigenvalues --   -0.49435  -0.49260  -0.49235  -0.49100  -0.48877
 Alpha  occ. eigenvalues --   -0.48776  -0.48421  -0.48178  -0.48126  -0.48010
 Alpha  occ. eigenvalues --   -0.47835  -0.47309  -0.47200  -0.47150  -0.46793
 Alpha  occ. eigenvalues --   -0.46623  -0.46482  -0.46004  -0.45824  -0.45702
 Alpha  occ. eigenvalues --   -0.45632  -0.45384  -0.45187  -0.44967  -0.44873
 Alpha  occ. eigenvalues --   -0.44796  -0.44467  -0.44273  -0.43955  -0.43942
 Alpha  occ. eigenvalues --   -0.43744  -0.43455  -0.43406  -0.43236  -0.43041
 Alpha  occ. eigenvalues --   -0.42656  -0.42480  -0.42187  -0.42182  -0.41833
 Alpha  occ. eigenvalues --   -0.41397  -0.41319  -0.41212  -0.40626  -0.40576
 Alpha  occ. eigenvalues --   -0.40364  -0.40017  -0.39827  -0.39701  -0.39466
 Alpha  occ. eigenvalues --   -0.39237  -0.38624  -0.38597  -0.38238  -0.38084
 Alpha  occ. eigenvalues --   -0.38018  -0.37770  -0.36737  -0.36494  -0.36374
 Alpha  occ. eigenvalues --   -0.36027  -0.35835  -0.34762  -0.33697  -0.33092
 Alpha  occ. eigenvalues --   -0.32758  -0.32598  -0.32317  -0.31876  -0.25607
 Alpha  occ. eigenvalues --   -0.22167
 Alpha virt. eigenvalues --   -0.06257   0.00373   0.02617   0.04584   0.05380
 Alpha virt. eigenvalues --    0.05821   0.06737   0.07799   0.08605   0.09408
 Alpha virt. eigenvalues --    0.10311   0.11286   0.11731   0.12065   0.12489

 Mulliken charges:
               1
     1  Mg   0.971988
     2  C    0.012027
     3  C   -0.093060
     4  C   -0.035024
     5  C   -0.078078
     6  N   -0.301602
     7  C   -0.045395
     8  C   -0.087643
     9  C   -0.144889
    10  C    0.115943
    11  C    0.048849
    12  C    0.040076
    13  C   -0.022982
    14  C    0.213360
    15  O   -0.239214
    16  O   -0.393284
    17  N   -0.449990
    18  C    0.100712
    19  C   -0.158248
    20  C   -0.046937
    21  C    0.107278
    22  C    0.044730
    23  C    0.050972
    24  O   -0.246657
    25  C   -0.000360
    26  N   -0.303475
    27  C    0.010304
    28  C   -0.104261
    29  C   -0.086521
    30  C    0.062722
    31  C    0.030012
    32  C   -0.045242
    33  C   -0.062489
    34  N   -0.430705
    35  C    0.108132
    36  C   -0.179236
    37  C   -0.072350
    38  C    0.145673
    39  C    0.082257
    40  C    0.134916
    41  O   -0.185226
    42  C   -0.082846
    43  C    0.251946
    44  O   -0.271422
    45  O   -0.369438
    46  C    0.128491
    47  C    0.250521
    48  C   -0.141712
    49  C   -0.174111
    50  C    0.027166
    51  C    0.017787
    52  C   -0.057284
    53  C    0.032756
    54  C   -0.216907
    55  C    0.019310
    56  C   -0.014616
    57  C   -0.013915
    58  C   -0.009061
    59  C   -0.193152
    60  C   -0.021932
    61  C    0.038708
    62  C   -0.016051
    63  C    0.002805
    64  C   -0.242477
    65  C    0.014759
    66  C    0.004129
    67  H   -0.008603
    68  H    0.011273
    69  H   -0.001452
    70  H    0.053708
    71  H    0.024479
    72  H    0.051036
    73  H    0.043208
    74  H    0.033725
    75  H    0.043093
    76  H    0.058901
    77  H    0.051480
    78  H    0.075940
    79  H    0.055286
    80  H    0.036695
    81  H    0.030189
    82  H    0.054337
    83  H    0.049951
    84  H    0.069984
    85  H    0.045370
    86  H    0.030494
    87  H    0.051594
    88  H    0.054472
    89  H    0.040735
    90  H    0.046504
    91  H    0.036595
    92  H    0.045940
    93  H    0.026535
    94  H    0.036366
    95  H    0.034948
    96  H    0.060986
    97  H    0.066800
    98  H    0.091058
    99  H    0.070874
   100  H    0.057870
   101  H    0.057780
   102  H    0.045682
   103  H    0.056733
   104  H    0.029725
   105  H    0.012071
   106  H    0.044220
   107  H    0.046164
   108  H    0.027139
   109  H    0.008581
   110  H    0.020482
   111  H    0.019426
   112  H    0.018907
   113  H    0.025467
   114  H    0.023559
   115  H    0.021574
   116  H    0.033735
   117  H    0.038100
   118  H    0.023034
   119  H    0.022290
   120  H    0.024759
   121  H    0.020777
   122  H    0.027202
   123  H    0.013340
   124  H    0.022110
   125  H    0.025197
   126  H    0.034142
   127  H    0.031134
   128  H    0.010721
   129  H    0.017622
   130  H    0.010022
   131  H    0.013951
   132  H    0.011204
   133  H   -0.005694
   134  H    0.015258
   135  H    0.041845
   136  H    0.026106
   137  H    0.025063
   138  H    0.033131
   139  H    0.037371
   140  H    0.029163
 Sum of Mulliken charges =  -0.00000

 Dipole moment (field-independent basis, Debye):
    X=              4.5154    Y=              2.7102    Z=             -0.5076  Tot=              5.2907
 Quadrupole moment (field-independent basis, Debye-Ang):
   XX=           -382.1764   YY=           -427.1623   ZZ=           -401.9072
   XY=            -25.8382   XZ=             -1.9486   YZ=             -3.1679

 Normal termination of Gaussian 16 at Sat Apr 30 03:14:08 2022.
