 Gaussian 16, Revision A.03,
 Gaussian 16:  ES64L-G16RevA.03 25-Dec-2016

 --------------------
 #p ZINDO=(nstates=5)
 --------------------

 -----------------------------
 step_551_chromophore_15 ZINDO
 -----------------------------
 Symbolic Z-matrix:
 Charge =  0 Multiplicity = 1

                         Standard orientation:
 ---------------------------------------------------------------------
 Center     Atomic      Atomic             Coordinates (Angstroms)
 Number     Number       Type             X           Y           Z
 ---------------------------------------------------------------------
      1         12           0       -4.949784    0.920252    0.060763
      2          6           0       -4.277095   -2.426503    0.651683
      3          6           0       -1.507803    1.463497   -0.074535
      4          6           0       -5.649631    4.143761   -0.087057
      5          6           0       -8.455906    0.231667    0.471501
      6          7           0       -3.139369   -0.346273    0.218820
      7          6           0       -3.110163   -1.694686    0.346124
      8          6           0       -1.755689   -2.296782   -0.013349
      9          6           0       -0.896967   -0.939577    0.233659
     10          6           0       -1.939184    0.134051    0.172558
     11          6           0        0.073264   -0.876133    1.428061
     12          6           0       -1.832288   -2.826854   -1.520252
     13          6           0       -0.634411   -3.730431   -1.915460
     14          6           0        0.675304   -3.816181   -1.133861
     15          8           0        0.841079   -4.050868    0.028252
     16          8           0        1.776015   -3.733614   -2.000774
     17          7           0       -3.724762    2.585785   -0.105996
     18          6           0       -2.366527    2.617590   -0.198292
     19          6           0       -1.998296    3.986440   -0.453766
     20          6           0       -3.090861    4.753939   -0.287611
     21          6           0       -4.217928    3.842873   -0.145966
     22          6           0       -0.584995    4.362738   -0.651520
     23          6           0       -3.155013    6.307391   -0.267271
     24          8           0       -4.224813    6.925019   -0.363769
     25          6           0       -1.908770    7.105512   -0.350996
     26          7           0       -6.824394    2.067184    0.274078
     27          6           0       -6.830894    3.418893    0.188182
     28          6           0       -8.160766    4.062283    0.336519
     29          6           0       -9.107030    2.797517    0.372524
     30          6           0       -8.069962    1.614998    0.346922
     31          6           0       -8.274621    4.891402    1.706336
     32          6           0       -9.972708    2.675943   -0.934786
     33          6           0      -11.448394    2.264523   -0.682182
     34          7           0       -6.137586   -0.695541    0.548668
     35          6           0       -7.523471   -0.834730    0.597729
     36          6           0       -7.839881   -2.315011    0.865440
     37          6           0       -6.577336   -2.903912    0.917550
     38          6           0       -5.593026   -1.888030    0.704610
     39          6           0       -9.300360   -2.933441    1.045209
     40          6           0       -5.988945   -4.188440    0.971391
     41          8           0       -6.496295   -5.290815    1.037007
     42          6           0       -4.460164   -3.914114    0.906102
     43          6           0       -3.682346   -4.949862    0.241698
     44          8           0       -4.058141   -5.682239   -0.715887
     45          8           0       -2.698548   -5.231385    1.137074
     46          6           0       -2.039722   -6.566225    1.050642
     47          6           0        3.102641   -3.979432   -1.436148
     48          6           0        4.134659   -3.180341   -2.149685
     49          6           0        5.351200   -2.876868   -1.759084
     50          6           0        6.012008   -3.360868   -0.458062
     51          6           0        6.273812   -2.049330   -2.609472
     52          6           0        5.912912   -0.473286   -2.743154
     53          6           0        7.010625    0.473223   -3.415142
     54          6           0        7.977345    1.035115   -2.262863
     55          6           0        8.302158    2.550373   -2.248793
     56          6           0        9.327374    0.234380   -2.430303
     57          6           0       10.178612    0.238086   -1.172830
     58          6           0       11.652439    0.898307   -1.386501
     59          6           0       11.927064    2.202175   -0.454047
     60          6           0       12.892839    3.150797   -1.207379
     61          6           0       12.543117    1.803061    0.898303
     62          6           0       11.609118    1.891230    2.115149
     63          6           0       11.339956    0.622809    2.935265
     64          6           0       11.600235    0.700966    4.442508
     65          6           0       13.005594    0.204639    4.681835
     66          6           0       10.549679   -0.026797    5.325283
     67          1           0       -0.461209    1.730896   -0.234492
     68          1           0       -5.849110    5.217144   -0.118011
     69          1           0       -9.520856   -0.009305    0.444311
     70          1           0       -1.475679   -3.116271    0.649531
     71          1           0       -0.198179   -0.820485   -0.594822
     72          1           0        0.159722   -1.885978    1.829639
     73          1           0       -0.332602   -0.156360    2.138525
     74          1           0        1.039565   -0.615976    0.995956
     75          1           0       -1.796291   -2.022830   -2.255148
     76          1           0       -2.751567   -3.409003   -1.579680
     77          1           0       -0.299569   -3.445805   -2.913454
     78          1           0       -0.985688   -4.749240   -2.078016
     79          1           0       -0.144429    4.755847    0.265242
     80          1           0       -0.416937    5.052003   -1.478868
     81          1           0        0.113585    3.589578   -0.970831
     82          1           0       -1.202467    6.733701    0.390018
     83          1           0       -2.298694    8.114266   -0.208092
     84          1           0       -1.533198    7.193867   -1.370842
     85          1           0       -8.404816    4.700434   -0.511732
     86          1           0       -9.804607    2.931643    1.199988
     87          1           0       -8.336136    5.929534    1.381541
     88          1           0       -7.326227    4.667150    2.193942
     89          1           0       -9.163718    4.566269    2.247050
     90          1           0       -9.638151    1.842553   -1.552984
     91          1           0      -10.110869    3.625519   -1.451957
     92          1           0      -12.073329    2.966255   -1.235984
     93          1           0      -11.672225    2.261145    0.384554
     94          1           0      -11.493323    1.227780   -1.014864
     95          1           0      -10.084726   -2.177490    1.019959
     96          1           0       -9.347305   -3.474755    1.989912
     97          1           0       -9.397412   -3.665361    0.243237
     98          1           0       -4.231334   -4.090405    1.956542
     99          1           0       -2.136126   -7.051851    0.078786
    100          1           0       -2.369673   -7.232911    1.846893
    101          1           0       -0.977155   -6.452619    1.264412
    102          1           0        3.276742   -5.053476   -1.502484
    103          1           0        3.119383   -3.797121   -0.361353
    104          1           0        3.780674   -2.720813   -3.072393
    105          1           0        5.245693   -3.887244    0.110485
    106          1           0        6.447006   -2.596029    0.185640
    107          1           0        6.818094   -4.083028   -0.592360
    108          1           0        6.181197   -2.467406   -3.611338
    109          1           0        7.336640   -2.161398   -2.394278
    110          1           0        5.709192   -0.220516   -1.703343
    111          1           0        4.941191   -0.400005   -3.231575
    112          1           0        6.397742    1.183552   -3.970295
    113          1           0        7.547778   -0.083422   -4.183460
    114          1           0        7.515816    0.875603   -1.288679
    115          1           0        9.378342    2.589085   -2.420199
    116          1           0        8.106067    2.920417   -1.242111
    117          1           0        7.773968    3.122821   -3.010803
    118          1           0        9.778930    0.803137   -3.243056
    119          1           0        9.120661   -0.796851   -2.715261
    120          1           0       10.302228   -0.794902   -0.848275
    121          1           0        9.638783    0.779979   -0.396437
    122          1           0       11.904818    1.083938   -2.431066
    123          1           0       12.283570    0.109753   -0.977491
    124          1           0       10.982429    2.744882   -0.423781
    125          1           0       12.457312    3.508159   -2.139791
    126          1           0       13.828396    2.640930   -1.440340
    127          1           0       13.049225    4.032027   -0.585285
    128          1           0       13.313315    2.549350    1.091905
    129          1           0       13.050574    0.838182    0.882423
    130          1           0       10.673422    2.260689    1.695914
    131          1           0       11.924086    2.688206    2.789675
    132          1           0       11.795814   -0.236007    2.442324
    133          1           0       10.265006    0.444015    2.928074
    134          1           0       11.423751    1.755089    4.652338
    135          1           0       13.018633   -0.859489    4.918805
    136          1           0       13.358730    0.849789    5.486308
    137          1           0       13.642691    0.456993    3.834262
    138          1           0       11.076943   -0.121881    6.274373
    139          1           0       10.211646   -0.944907    4.844222
    140          1           0        9.705247    0.654998    5.430595
 ---------------------------------------------------------------------

 SCF Done:  E(RZINDO/S) =  -474.174503043     A.U. after   20 cycles

 Excitation energies and oscillator strengths:

 Excited State   1:      Singlet-A      1.2530 eV  989.49 nm  f=0.5790  <S**2>=0.000
     175 ->178        -0.20334
     176 ->177         0.65944
 This state for optimization and/or second-order correction.
 Total Energy, E(CIS/TDA) =  -474.128455894
 Copying the excited state density for this state as the 1-particle RhoCI density.

 Excited State   2:      Singlet-A      1.9150 eV  647.45 nm  f=0.0034  <S**2>=0.000
     175 ->177         0.49093
     176 ->178         0.48925

 Excited State   3:      Singlet-A      2.9087 eV  426.25 nm  f=0.2094  <S**2>=0.000
     168 ->181        -0.10135
     169 ->177         0.13175
     169 ->179        -0.19102
     170 ->177         0.11200
     170 ->179        -0.10673
     170 ->181         0.11592
     175 ->177        -0.19951
     176 ->178         0.22766
     176 ->179         0.44629
     176 ->180        -0.12034

 Excited State   4:      Singlet-A      2.9519 eV  420.02 nm  f=0.0578  <S**2>=0.000
     168 ->177        -0.15177
     168 ->179        -0.27610
     168 ->180         0.20831
     168 ->181        -0.28347
     168 ->185        -0.16780
     169 ->177        -0.16407
     169 ->179         0.11152
     169 ->181        -0.17040
     170 ->179         0.11312
     175 ->177         0.10610
     176 ->178        -0.10613
     176 ->179         0.14795

 Excited State   5:      Singlet-A      2.9904 eV  414.61 nm  f=0.0012  <S**2>=0.000
     168 ->177         0.14074
     168 ->179         0.11935
     168 ->180        -0.13621
     168 ->181         0.21911
     169 ->177        -0.16112
     169 ->179         0.24316
     169 ->181        -0.12820
     169 ->185         0.12923
     176 ->179         0.40991
     176 ->180        -0.11931

 The electronic state is 1-A.
 Alpha  occ. eigenvalues --   -1.84797  -1.82351  -1.81203  -1.73645  -1.72871
 Alpha  occ. eigenvalues --   -1.71479  -1.64300  -1.60692  -1.58784  -1.58478
 Alpha  occ. eigenvalues --   -1.54940  -1.51811  -1.47919  -1.47221  -1.46484
 Alpha  occ. eigenvalues --   -1.43560  -1.42440  -1.40356  -1.39369  -1.37872
 Alpha  occ. eigenvalues --   -1.36833  -1.32650  -1.31953  -1.30807  -1.28145
 Alpha  occ. eigenvalues --   -1.27356  -1.24391  -1.22054  -1.20909  -1.19041
 Alpha  occ. eigenvalues --   -1.18091  -1.16032  -1.15799  -1.15010  -1.12192
 Alpha  occ. eigenvalues --   -1.11399  -1.11218  -1.10401  -1.04684  -1.04500
 Alpha  occ. eigenvalues --   -1.02612  -1.00590  -0.98782  -0.97013  -0.95536
 Alpha  occ. eigenvalues --   -0.94206  -0.93763  -0.93254  -0.92213  -0.91797
 Alpha  occ. eigenvalues --   -0.91098  -0.89844  -0.88861  -0.88378  -0.87830
 Alpha  occ. eigenvalues --   -0.86414  -0.85435  -0.83008  -0.82801  -0.81095
 Alpha  occ. eigenvalues --   -0.80061  -0.78960  -0.78156  -0.76844  -0.75221
 Alpha  occ. eigenvalues --   -0.74611  -0.74343  -0.73564  -0.73344  -0.73001
 Alpha  occ. eigenvalues --   -0.72258  -0.72069  -0.71882  -0.71008  -0.70843
 Alpha  occ. eigenvalues --   -0.70434  -0.69240  -0.69017  -0.68688  -0.67875
 Alpha  occ. eigenvalues --   -0.67437  -0.67166  -0.66828  -0.65997  -0.65845
 Alpha  occ. eigenvalues --   -0.65595  -0.65034  -0.64470  -0.64257  -0.63229
 Alpha  occ. eigenvalues --   -0.62617  -0.62445  -0.62333  -0.61743  -0.61699
 Alpha  occ. eigenvalues --   -0.61544  -0.61253  -0.60548  -0.59678  -0.59476
 Alpha  occ. eigenvalues --   -0.59353  -0.59239  -0.59076  -0.58608  -0.58106
 Alpha  occ. eigenvalues --   -0.57863  -0.57529  -0.57463  -0.57043  -0.56733
 Alpha  occ. eigenvalues --   -0.56431  -0.55444  -0.54932  -0.54579  -0.54441
 Alpha  occ. eigenvalues --   -0.54093  -0.53668  -0.53533  -0.53475  -0.53035
 Alpha  occ. eigenvalues --   -0.52679  -0.52403  -0.52134  -0.52016  -0.51550
 Alpha  occ. eigenvalues --   -0.51433  -0.51082  -0.50768  -0.50448  -0.50370
 Alpha  occ. eigenvalues --   -0.50145  -0.49874  -0.49654  -0.49193  -0.48958
 Alpha  occ. eigenvalues --   -0.48874  -0.48478  -0.48354  -0.48043  -0.47937
 Alpha  occ. eigenvalues --   -0.47636  -0.47450  -0.47295  -0.46928  -0.46625
 Alpha  occ. eigenvalues --   -0.46415  -0.46301  -0.45830  -0.45403  -0.45156
 Alpha  occ. eigenvalues --   -0.44941  -0.44676  -0.44496  -0.44364  -0.44056
 Alpha  occ. eigenvalues --   -0.43814  -0.43765  -0.42617  -0.42449  -0.42328
 Alpha  occ. eigenvalues --   -0.41607  -0.41301  -0.40995  -0.39082  -0.39001
 Alpha  occ. eigenvalues --   -0.37833  -0.36864  -0.35269  -0.34765  -0.34205
 Alpha  occ. eigenvalues --   -0.33745  -0.33233  -0.32906  -0.32077  -0.26465
 Alpha  occ. eigenvalues --   -0.21087
 Alpha virt. eigenvalues --   -0.07752  -0.02096  -0.00280   0.00704   0.01676
 Alpha virt. eigenvalues --    0.01991   0.02200   0.03320   0.04755   0.05083
 Alpha virt. eigenvalues --    0.06259   0.06871   0.07704   0.07891   0.08240

 Mulliken charges:
               1
     1  Mg   0.429455
     2  C   -0.067925
     3  C   -0.107817
     4  C   -0.076196
     5  C   -0.073413
     6  N   -0.269346
     7  C    0.126198
     8  C   -0.005942
     9  C   -0.005875
    10  C    0.147628
    11  C   -0.049258
    12  C   -0.014409
    13  C    0.002150
    14  C    0.469836
    15  O   -0.507764
    16  O   -0.289356
    17  N   -0.308863
    18  C    0.085005
    19  C    0.014079
    20  C   -0.032333
    21  C    0.115620
    22  C   -0.046145
    23  C    0.322262
    24  O   -0.524951
    25  C   -0.035826
    26  N   -0.255296
    27  C    0.128633
    28  C   -0.005697
    29  C   -0.009625
    30  C    0.133149
    31  C   -0.058786
    32  C   -0.047015
    33  C   -0.068894
    34  N   -0.307146
    35  C    0.083854
    36  C    0.025133
    37  C   -0.046904
    38  C    0.124384
    39  C   -0.035512
    40  C    0.336691
    41  O   -0.512482
    42  C    0.053446
    43  C    0.487511
    44  O   -0.520347
    45  O   -0.265005
    46  C    0.070105
    47  C    0.109406
    48  C   -0.068540
    49  C   -0.000725
    50  C   -0.049015
    51  C   -0.030483
    52  C   -0.044623
    53  C   -0.037603
    54  C   -0.019269
    55  C   -0.061340
    56  C   -0.035499
    57  C   -0.042478
    58  C   -0.055039
    59  C   -0.013516
    60  C   -0.057890
    61  C   -0.027426
    62  C   -0.037584
    63  C   -0.034842
    64  C   -0.016200
    65  C   -0.052218
    66  C   -0.060762
    67  H    0.032337
    68  H    0.032844
    69  H    0.037113
    70  H    0.049965
    71  H    0.019765
    72  H    0.029998
    73  H    0.029451
    74  H    0.025051
    75  H    0.033670
    76  H    0.040914
    77  H    0.024697
    78  H    0.050948
    79  H    0.028614
    80  H    0.020400
    81  H    0.016115
    82  H    0.039912
    83  H    0.037091
    84  H    0.048885
    85  H    0.038398
    86  H    0.043389
    87  H    0.028048
    88  H    0.035067
    89  H    0.028896
    90  H    0.030266
    91  H    0.026913
    92  H    0.025837
    93  H    0.018475
    94  H    0.019536
    95  H    0.028861
    96  H    0.037363
    97  H    0.041298
    98  H    0.057585
    99  H    0.054172
   100  H    0.041558
   101  H    0.032250
   102  H    0.042941
   103  H    0.053121
   104  H    0.030092
   105  H    0.013743
   106  H    0.028822
   107  H    0.027206
   108  H    0.012652
   109  H    0.022215
   110  H    0.017571
   111  H    0.018805
   112  H    0.019128
   113  H    0.025115
   114  H    0.024340
   115  H    0.021736
   116  H    0.019280
   117  H    0.024640
   118  H    0.024243
   119  H    0.018581
   120  H    0.017437
   121  H    0.023075
   122  H    0.030988
   123  H    0.015147
   124  H    0.027914
   125  H    0.011573
   126  H    0.021404
   127  H    0.015175
   128  H    0.011072
   129  H    0.026421
   130  H    0.012809
   131  H    0.017400
   132  H    0.020671
   133  H    0.003100
   134  H    0.019942
   135  H    0.030106
   136  H    0.011759
   137  H    0.016163
   138  H    0.023006
   139  H    0.027784
   140  H    0.015773
 Sum of Mulliken charges =  -0.00000

 Dipole moment (field-independent basis, Debye):
    X=              5.3518    Y=              3.2132    Z=             -0.3357  Tot=              6.2514
 N-N= 4.335222165705D+03 E-N= 0.000000000000D+00  KE=-9.344769304315D+03
 Leave Link  601 at Sat Apr 30 03:25:38 2022, MaxMem=  6710886400 cpu:               2.5 elap:               0.1
 (Enter /sw/apps/gaussian-16.0/g16/l9999.exe)
 1\1\GINC-BP1-COMPUTE139\SP\RZINDO CIS\STO-3G\C55H74Mg1N4O6\OF15641\30-
 Apr-2022\0\\#p ZINDO=(nstates=5)\\step_551_chromophore_15 ZINDO\\0,1\M
 g,0,46.451,34.645,27.949\C,0,44.806,32.776,30.358\C,0,46.48,37.304,30.
 205\C,0,47.64,36.487,25.48\C,0,46.121,31.888,25.663\N,0,45.77,34.961,3
 0.033\C,0,45.231,34.027,30.853\C,0,45.281,34.427,32.324\C,0,45.399,36.
 026,32.06\C,0,45.869,36.099,30.64\C,0,44.211,36.934,32.429\C,0,46.552,
 33.719,32.988\C,0,46.555,33.79,34.538\C,0,45.686,34.741,35.359\O,0,44.

 Normal termination of Gaussian 16 at Sat Apr 30 03:25:38 2022.
