 Gaussian 16, Revision A.03,
 Gaussian 16:  ES64L-G16RevA.03 25-Dec-2016

 ------------------------------
 #p blyp/Def2SVP td=(nstates=5)
 ------------------------------

 ---------------------------------------------------
 step_1851_chromophore_23 TDDFT with blyp functional
 ---------------------------------------------------
 Symbolic Z-matrix:
 Charge =  0 Multiplicity = 1

                         Standard orientation:
 ---------------------------------------------------------------------
 Center     Atomic      Atomic             Coordinates (Angstroms)
 Number     Number       Type             X           Y           Z
 ---------------------------------------------------------------------
      1         12           0       -4.658460    0.149390    0.342817
      2          6           0       -3.095983   -2.901507   -0.363404
      3          6           0       -2.760666    0.399847    3.219065
      4          6           0       -5.546839    3.268743    0.523659
      5          6           0       -6.274706   -0.071447   -2.847154
      6          7           0       -3.002788   -1.065232    1.179590
      7          6           0       -2.448031   -2.220187    0.718213
      8          6           0       -1.342527   -2.728675    1.706197
      9          6           0       -1.557719   -1.914418    2.990386
     10          6           0       -2.551525   -0.761283    2.465103
     11          6           0       -2.367310   -2.497748    4.182634
     12          6           0        0.121776   -2.640117    1.076236
     13          6           0        0.917767   -3.902566    1.222940
     14          6           0        2.254544   -3.783806    2.106724
     15          8           0        2.282081   -4.022902    3.324827
     16          8           0        3.317524   -3.120769    1.398927
     17          7           0       -4.267085    1.644476    1.786102
     18          6           0       -3.500623    1.540771    2.831251
     19          6           0       -3.579710    2.750966    3.644209
     20          6           0       -4.424669    3.657426    2.936261
     21          6           0       -4.748575    2.916029    1.654998
     22          6           0       -3.080211    2.847988    5.138339
     23          6           0       -4.701623    5.094697    3.368632
     24          8           0       -4.097089    5.649166    4.320812
     25          6           0       -5.734467    5.939800    2.681169
     26          7           0       -5.588735    1.475624   -1.126088
     27          6           0       -5.934127    2.680818   -0.685214
     28          6           0       -6.817723    3.392913   -1.787327
     29          6           0       -7.100387    2.294023   -2.876643
     30          6           0       -6.283060    1.163713   -2.214305
     31          6           0       -8.130141    4.064865   -1.142097
     32          6           0       -6.811846    2.690394   -4.384795
     33          6           0       -8.078916    2.686793   -5.211628
     34          7           0       -4.858812   -1.230860   -1.240202
     35          6           0       -5.531369   -1.231024   -2.405426
     36          6           0       -5.404093   -2.542645   -3.065115
     37          6           0       -4.447371   -3.193918   -2.268521
     38          6           0       -4.116357   -2.355851   -1.216401
     39          6           0       -6.219624   -3.085607   -4.251269
     40          6           0       -3.751590   -4.509696   -2.100488
     41          8           0       -3.898643   -5.621901   -2.630866
     42          6           0       -2.671533   -4.263149   -0.998279
     43          6           0       -2.576480   -5.515521   -0.024090
     44          8           0       -3.493802   -6.197067    0.432369
     45          8           0       -1.249600   -5.827425    0.042263
     46          6           0       -0.989811   -7.075666    0.714772
     47          6           0        4.508580   -2.648378    2.130199
     48          6           0        5.732288   -2.477798    1.226910
     49          6           0        6.206643   -1.466671    0.423384
     50          6           0        5.502911   -0.112359    0.300138
     51          6           0        7.461317   -1.691095   -0.382813
     52          6           0        8.842989   -1.942612    0.275845
     53          6           0       10.048596   -1.695707   -0.705257
     54          6           0       11.079671   -0.667427   -0.234971
     55          6           0       12.441987   -1.349171    0.054310
     56          6           0       11.375144    0.550948   -1.181093
     57          6           0       10.339066    1.792973   -1.048473
     58          6           0        9.660147    2.030738   -2.432131
     59          6           0        8.058943    1.986459   -2.360406
     60          6           0        7.389861    1.307147   -3.564833
     61          6           0        7.460233    3.452347   -2.067851
     62          6           0        6.740562    3.634138   -0.649657
     63          6           0        6.565856    5.132727   -0.239633
     64          6           0        5.107155    5.541321   -0.503767
     65          6           0        4.900073    6.551566   -1.615931
     66          6           0        4.308411    6.009318    0.775939
     67          1           0       -2.210930    0.555972    4.149972
     68          1           0       -5.941559    4.282580    0.621657
     69          1           0       -6.828535   -0.264101   -3.768369
     70          1           0       -1.738580   -3.695129    2.019116
     71          1           0       -0.626423   -1.492427    3.366954
     72          1           0       -2.823266   -3.455987    3.933275
     73          1           0       -3.207085   -1.877033    4.496167
     74          1           0       -1.742174   -2.625718    5.065781
     75          1           0        0.718941   -1.788571    1.403788
     76          1           0        0.222452   -2.545601   -0.004871
     77          1           0        1.292783   -4.332244    0.295086
     78          1           0        0.345010   -4.704451    1.689397
     79          1           0       -2.015517    2.613572    5.132472
     80          1           0       -3.623494    2.145419    5.769224
     81          1           0       -3.180864    3.833332    5.592757
     82          1           0       -6.640852    5.336014    2.654845
     83          1           0       -5.371698    6.197589    1.686029
     84          1           0       -6.040161    6.824569    3.240291
     85          1           0       -6.159015    4.217265   -2.061594
     86          1           0       -8.147660    1.998866   -2.821359
     87          1           0       -8.242590    3.571906   -0.176624
     88          1           0       -8.968631    3.919272   -1.824064
     89          1           0       -7.936796    5.129810   -1.016498
     90          1           0       -6.142995    1.944979   -4.813780
     91          1           0       -6.370717    3.686847   -4.433008
     92          1           0       -8.920120    2.632785   -4.521499
     93          1           0       -8.143323    1.803242   -5.848106
     94          1           0       -8.092089    3.587330   -5.825875
     95          1           0       -6.653707   -4.006393   -3.860496
     96          1           0       -5.734826   -3.289106   -5.206114
     97          1           0       -7.042985   -2.381479   -4.375021
     98          1           0       -1.702601   -4.061229   -1.455733
     99          1           0       -0.077707   -7.396858    0.211702
    100          1           0       -1.748030   -7.858442    0.722126
    101          1           0       -0.790576   -6.761997    1.739867
    102          1           0        4.807552   -3.288238    2.960431
    103          1           0        4.251759   -1.720645    2.642008
    104          1           0        6.332964   -3.385387    1.280726
    105          1           0        6.309674    0.603392    0.456376
    106          1           0        4.810820   -0.014504    1.136663
    107          1           0        5.018947    0.145714   -0.641887
    108          1           0        7.532379   -0.913606   -1.143569
    109          1           0        7.202270   -2.585993   -0.948028
    110          1           0        8.864876   -3.007032    0.507716
    111          1           0        8.856955   -1.311539    1.165120
    112          1           0        9.710348   -1.396450   -1.697329
    113          1           0       10.572536   -2.646893   -0.796487
    114          1           0       10.865717   -0.219141    0.735095
    115          1           0       13.153082   -0.541142   -0.120362
    116          1           0       12.520720   -2.173541   -0.654318
    117          1           0       12.502838   -1.667172    1.095253
    118          1           0       11.414237    0.175600   -2.204052
    119          1           0       12.336644    1.025101   -0.981069
    120          1           0       10.994960    2.628870   -0.805655
    121          1           0        9.642382    1.556042   -0.244965
    122          1           0       10.033904    1.343090   -3.190278
    123          1           0        9.936345    3.019361   -2.799312
    124          1           0        7.783213    1.371142   -1.504209
    125          1           0        7.239957    0.258867   -3.306725
    126          1           0        7.801885    1.573443   -4.537025
    127          1           0        6.367160    1.662042   -3.697460
    128          1           0        6.713166    3.708002   -2.819033
    129          1           0        8.245298    4.165151   -2.321931
    130          1           0        7.428828    3.185602    0.065579
    131          1           0        5.830277    3.034418   -0.674478
    132          1           0        7.225207    5.785831   -0.810123
    133          1           0        6.931897    5.272183    0.778058
    134          1           0        4.592722    4.639149   -0.834990
    135          1           0        5.383322    6.287034   -2.556719
    136          1           0        5.279134    7.523849   -1.301342
    137          1           0        3.827931    6.634541   -1.796559
    138          1           0        3.555176    5.245315    0.971007
    139          1           0        3.763624    6.930417    0.569753
    140          1           0        5.015865    6.118467    1.599096
 ---------------------------------------------------------------------

 SCF Done:  E(RB-LYP) =  -3007.35528399     A.U. after   21 cycles

 Excitation energies and oscillator strengths:

 Excited State   1:      Singlet-A      1.8171 eV  682.31 nm  f=0.0814  <S**2>=0.000
     244 -> 247        0.61500
     246 -> 247        0.33726
 This state for optimization and/or second-order correction.
 Total Energy, E(TD-HF/TD-DFT) =  -3007.28850562
 Copying the excited state density for this state as the 1-particle RhoCI density.

 Excited State   2:      Singlet-A      1.8554 eV  668.24 nm  f=0.2383  <S**2>=0.000
     244 -> 247       -0.34564
     245 -> 248       -0.17037
     246 -> 247        0.59673
     246 <- 247       -0.12792

 Excited State   3:      Singlet-A      1.9670 eV  630.33 nm  f=0.0010  <S**2>=0.000
     243 -> 247        0.70571

 Excited State   4:      Singlet-A      2.0201 eV  613.77 nm  f=0.0776  <S**2>=0.000
     245 -> 247        0.64893
     246 -> 248        0.23104
     246 -> 249       -0.10491

 Excited State   5:      Singlet-A      2.3262 eV  532.99 nm  f=0.0008  <S**2>=0.000
     242 -> 247        0.70656

 The electronic state is 1-A.
 Alpha  occ. eigenvalues --  -46.28889 -18.83084 -18.81421 -18.77367 -18.77258
 Alpha  occ. eigenvalues --  -18.75975 -18.75436 -14.03939 -14.03404 -14.01758
 Alpha  occ. eigenvalues --  -14.01071 -10.04616 -10.04372 -10.00245 -10.00058
 Alpha  occ. eigenvalues --   -9.97803  -9.97715  -9.97288  -9.97229  -9.97145
 Alpha  occ. eigenvalues --   -9.97017  -9.96414  -9.95717  -9.95458  -9.95261
 Alpha  occ. eigenvalues --   -9.94810  -9.94678  -9.94609  -9.94568  -9.94513
 Alpha  occ. eigenvalues --   -9.94382  -9.94229  -9.94132  -9.94066  -9.93838
 Alpha  occ. eigenvalues --   -9.93735  -9.93666  -9.93261  -9.93192  -9.93064
 Alpha  occ. eigenvalues --   -9.93024  -9.92815  -9.92795  -9.92582  -9.92487
 Alpha  occ. eigenvalues --   -9.92407  -9.92358  -9.92250  -9.92167  -9.92152
 Alpha  occ. eigenvalues --   -9.92135  -9.92028  -9.91918  -9.91850  -9.91807
 Alpha  occ. eigenvalues --   -9.91736  -9.91583  -9.91442  -9.91363  -9.91267
 Alpha  occ. eigenvalues --   -9.91264  -9.91250  -9.90984  -9.90744  -9.90683
 Alpha  occ. eigenvalues --   -9.90592  -2.93327  -1.73737  -1.73238  -1.73023
 Alpha  occ. eigenvalues --   -0.98780  -0.94970  -0.90554  -0.89950  -0.89796
 Alpha  occ. eigenvalues --   -0.88612  -0.87961  -0.87230  -0.86764  -0.85106
 Alpha  occ. eigenvalues --   -0.74858  -0.73398  -0.72790  -0.72593  -0.72162
 Alpha  occ. eigenvalues --   -0.71834  -0.71805  -0.70871  -0.70394  -0.69548
 Alpha  occ. eigenvalues --   -0.69222  -0.69146  -0.67764  -0.67652  -0.67183
 Alpha  occ. eigenvalues --   -0.66290  -0.66080  -0.65463  -0.65053  -0.64561
 Alpha  occ. eigenvalues --   -0.64291  -0.62309  -0.62142  -0.61432  -0.60775
 Alpha  occ. eigenvalues --   -0.60556  -0.59941  -0.59727  -0.59314  -0.58389
 Alpha  occ. eigenvalues --   -0.57911  -0.57645  -0.56530  -0.55741  -0.54590
 Alpha  occ. eigenvalues --   -0.53709  -0.53652  -0.53332  -0.52707  -0.52240
 Alpha  occ. eigenvalues --   -0.51473  -0.51422  -0.51063  -0.50508  -0.49820
 Alpha  occ. eigenvalues --   -0.49593  -0.49299  -0.49180  -0.48899  -0.46553
 Alpha  occ. eigenvalues --   -0.46089  -0.45679  -0.45436  -0.45360  -0.44626
 Alpha  occ. eigenvalues --   -0.43911  -0.43399  -0.43218  -0.42612  -0.42384
 Alpha  occ. eigenvalues --   -0.42100  -0.41887  -0.41621  -0.41356  -0.41212
 Alpha  occ. eigenvalues --   -0.40988  -0.40720  -0.40195  -0.39968  -0.39733
 Alpha  occ. eigenvalues --   -0.39576  -0.39478  -0.39455  -0.39172  -0.39067
 Alpha  occ. eigenvalues --   -0.38776  -0.38618  -0.38442  -0.38325  -0.38231
 Alpha  occ. eigenvalues --   -0.37995  -0.37682  -0.37545  -0.37488  -0.37345
 Alpha  occ. eigenvalues --   -0.37064  -0.36973  -0.36648  -0.36560  -0.36329
 Alpha  occ. eigenvalues --   -0.36243  -0.36158  -0.35992  -0.35938  -0.35623
 Alpha  occ. eigenvalues --   -0.35508  -0.35208  -0.35074  -0.34819  -0.34579
 Alpha  occ. eigenvalues --   -0.34512  -0.34432  -0.34245  -0.34146  -0.34109
 Alpha  occ. eigenvalues --   -0.33715  -0.33686  -0.33567  -0.33450  -0.33154
 Alpha  occ. eigenvalues --   -0.33062  -0.32958  -0.32769  -0.32458  -0.32363
 Alpha  occ. eigenvalues --   -0.32141  -0.31994  -0.31892  -0.31549  -0.31484
 Alpha  occ. eigenvalues --   -0.31244  -0.31125  -0.31108  -0.30966  -0.30785
 Alpha  occ. eigenvalues --   -0.30723  -0.30657  -0.30302  -0.30071  -0.29935
 Alpha  occ. eigenvalues --   -0.29886  -0.29851  -0.29624  -0.29301  -0.29168
 Alpha  occ. eigenvalues --   -0.29001  -0.28484  -0.28269  -0.28127  -0.28017
 Alpha  occ. eigenvalues --   -0.27754  -0.27489  -0.27252  -0.26909  -0.26897
 Alpha  occ. eigenvalues --   -0.26563  -0.26288  -0.25953  -0.25604  -0.25575
 Alpha  occ. eigenvalues --   -0.25439  -0.24661  -0.24200  -0.24117  -0.23755
 Alpha  occ. eigenvalues --   -0.23420  -0.22822  -0.21997  -0.21696  -0.21055
 Alpha  occ. eigenvalues --   -0.20670  -0.20250  -0.18842  -0.18334  -0.17449
 Alpha  occ. eigenvalues --   -0.16116
 Alpha virt. eigenvalues --   -0.11705  -0.07281  -0.06403  -0.05002  -0.03876
 Alpha virt. eigenvalues --   -0.03707  -0.03681  -0.03202  -0.01726  -0.00346
 Alpha virt. eigenvalues --    0.00713   0.01676   0.01804   0.02456   0.02587

 Mulliken charges:
               1
     1  Mg   0.696722
     2  C   -0.060409
     3  C   -0.042407
     4  C   -0.027961
     5  C   -0.073424
     6  N   -0.226844
     7  C   -0.067551
     8  C    0.111730
     9  C   -0.058918
    10  C    0.021476
    11  C    0.124667
    12  C    0.164135
    13  C    0.109548
    14  C    0.084175
    15  O   -0.205549
    16  O   -0.309954
    17  N   -0.240216
    18  C    0.088449
    19  C   -0.140051
    20  C    0.026838
    21  C    0.097110
    22  C    0.151568
    23  C   -0.068949
    24  O   -0.189124
    25  C    0.139618
    26  N   -0.166397
    27  C   -0.010080
    28  C   -0.030501
    29  C    0.060864
    30  C    0.006644
    31  C    0.111490
    32  C    0.110865
    33  C    0.052004
    34  N   -0.222787
    35  C    0.053238
    36  C   -0.182024
    37  C    0.041946
    38  C    0.113415
    39  C    0.163255
    40  C    0.013817
    41  O   -0.144364
    42  C    0.033519
    43  C    0.121575
    44  O   -0.171734
    45  O   -0.264059
    46  C    0.204713
    47  C    0.326044
    48  C   -0.120985
    49  C   -0.143155
    50  C    0.138341
    51  C    0.088890
    52  C    0.105233
    53  C    0.148517
    54  C   -0.106064
    55  C    0.105924
    56  C    0.042247
    57  C    0.078653
    58  C    0.110021
    59  C   -0.090576
    60  C    0.103612
    61  C    0.075384
    62  C    0.032114
    63  C    0.141868
    64  C   -0.095078
    65  C    0.094026
    66  C    0.103489
    67  H   -0.057980
    68  H   -0.090855
    69  H   -0.066543
    70  H   -0.016014
    71  H   -0.018201
    72  H   -0.010239
    73  H   -0.000652
    74  H   -0.000213
    75  H   -0.007182
    76  H   -0.011270
    77  H   -0.006610
    78  H   -0.007533
    79  H   -0.001000
    80  H    0.005589
    81  H    0.009055
    82  H    0.001770
    83  H    0.027976
    84  H   -0.006726
    85  H   -0.010707
    86  H   -0.026145
    87  H    0.001850
    88  H   -0.001306
    89  H   -0.002287
    90  H   -0.014730
    91  H   -0.016898
    92  H   -0.011117
    93  H   -0.003433
    94  H   -0.004044
    95  H    0.014799
    96  H    0.018284
    97  H   -0.023431
    98  H    0.016649
    99  H    0.015728
   100  H    0.037687
   101  H    0.014294
   102  H   -0.010967
   103  H   -0.021960
   104  H   -0.035626
   105  H    0.004510
   106  H   -0.019070
   107  H    0.017780
   108  H   -0.035021
   109  H   -0.015052
   110  H   -0.022386
   111  H   -0.014536
   112  H   -0.025573
   113  H   -0.035010
   114  H   -0.039898
   115  H   -0.026759
   116  H   -0.013108
   117  H   -0.013145
   118  H   -0.028376
   119  H   -0.032796
   120  H   -0.027321
   121  H   -0.010494
   122  H   -0.031453
   123  H   -0.035797
   124  H   -0.029497
   125  H   -0.011167
   126  H   -0.011028
   127  H   -0.035409
   128  H   -0.044661
   129  H   -0.040513
   130  H   -0.025642
   131  H   -0.005213
   132  H   -0.040012
   133  H   -0.036711
   134  H   -0.036173
   135  H   -0.018583
   136  H   -0.016379
   137  H   -0.016389
   138  H   -0.015115
   139  H   -0.020953
   140  H   -0.011647
 Sum of Mulliken charges =  -0.00000

 Dipole moment (field-independent basis, Debye):
    X=              0.4488    Y=              3.2251    Z=             -2.5358  Tot=              4.1271
 Quadrupole moment (field-independent basis, Debye-Ang):
   XX=           -367.6954   YY=           -443.5726   ZZ=           -415.5070
   XY=            -25.4714   XZ=              8.7805   YZ=            -26.3998

 Normal termination of Gaussian 16 at Fri Apr 29 04:22:57 2022.
