 Gaussian 16, Revision A.03,
 Gaussian 16:  ES64L-G16RevA.03 25-Dec-2016

 -----------------------------------
 #p cam-b3lyp/Def2SVP td=(nstates=5)
 -----------------------------------

 --------------------------------------------------------
 step_1851_chromophore_23 TDDFT with cam-b3lyp functional
 --------------------------------------------------------
 Symbolic Z-matrix:
 Charge =  0 Multiplicity = 1

                         Standard orientation:
 ---------------------------------------------------------------------
 Center     Atomic      Atomic             Coordinates (Angstroms)
 Number     Number       Type             X           Y           Z
 ---------------------------------------------------------------------
      1         12           0       -4.658460    0.149390    0.342817
      2          6           0       -3.095983   -2.901507   -0.363404
      3          6           0       -2.760666    0.399847    3.219065
      4          6           0       -5.546839    3.268743    0.523659
      5          6           0       -6.274706   -0.071447   -2.847154
      6          7           0       -3.002788   -1.065232    1.179590
      7          6           0       -2.448031   -2.220187    0.718213
      8          6           0       -1.342527   -2.728675    1.706197
      9          6           0       -1.557719   -1.914418    2.990386
     10          6           0       -2.551525   -0.761283    2.465103
     11          6           0       -2.367310   -2.497748    4.182634
     12          6           0        0.121776   -2.640117    1.076236
     13          6           0        0.917767   -3.902566    1.222940
     14          6           0        2.254544   -3.783806    2.106724
     15          8           0        2.282081   -4.022902    3.324827
     16          8           0        3.317524   -3.120769    1.398927
     17          7           0       -4.267085    1.644476    1.786102
     18          6           0       -3.500623    1.540771    2.831251
     19          6           0       -3.579710    2.750966    3.644209
     20          6           0       -4.424669    3.657426    2.936261
     21          6           0       -4.748575    2.916029    1.654998
     22          6           0       -3.080211    2.847988    5.138339
     23          6           0       -4.701623    5.094697    3.368632
     24          8           0       -4.097089    5.649166    4.320812
     25          6           0       -5.734467    5.939800    2.681169
     26          7           0       -5.588735    1.475624   -1.126088
     27          6           0       -5.934127    2.680818   -0.685214
     28          6           0       -6.817723    3.392913   -1.787327
     29          6           0       -7.100387    2.294023   -2.876643
     30          6           0       -6.283060    1.163713   -2.214305
     31          6           0       -8.130141    4.064865   -1.142097
     32          6           0       -6.811846    2.690394   -4.384795
     33          6           0       -8.078916    2.686793   -5.211628
     34          7           0       -4.858812   -1.230860   -1.240202
     35          6           0       -5.531369   -1.231024   -2.405426
     36          6           0       -5.404093   -2.542645   -3.065115
     37          6           0       -4.447371   -3.193918   -2.268521
     38          6           0       -4.116357   -2.355851   -1.216401
     39          6           0       -6.219624   -3.085607   -4.251269
     40          6           0       -3.751590   -4.509696   -2.100488
     41          8           0       -3.898643   -5.621901   -2.630866
     42          6           0       -2.671533   -4.263149   -0.998279
     43          6           0       -2.576480   -5.515521   -0.024090
     44          8           0       -3.493802   -6.197067    0.432369
     45          8           0       -1.249600   -5.827425    0.042263
     46          6           0       -0.989811   -7.075666    0.714772
     47          6           0        4.508580   -2.648378    2.130199
     48          6           0        5.732288   -2.477798    1.226910
     49          6           0        6.206643   -1.466671    0.423384
     50          6           0        5.502911   -0.112359    0.300138
     51          6           0        7.461317   -1.691095   -0.382813
     52          6           0        8.842989   -1.942612    0.275845
     53          6           0       10.048596   -1.695707   -0.705257
     54          6           0       11.079671   -0.667427   -0.234971
     55          6           0       12.441987   -1.349171    0.054310
     56          6           0       11.375144    0.550948   -1.181093
     57          6           0       10.339066    1.792973   -1.048473
     58          6           0        9.660147    2.030738   -2.432131
     59          6           0        8.058943    1.986459   -2.360406
     60          6           0        7.389861    1.307147   -3.564833
     61          6           0        7.460233    3.452347   -2.067851
     62          6           0        6.740562    3.634138   -0.649657
     63          6           0        6.565856    5.132727   -0.239633
     64          6           0        5.107155    5.541321   -0.503767
     65          6           0        4.900073    6.551566   -1.615931
     66          6           0        4.308411    6.009318    0.775939
     67          1           0       -2.210930    0.555972    4.149972
     68          1           0       -5.941559    4.282580    0.621657
     69          1           0       -6.828535   -0.264101   -3.768369
     70          1           0       -1.738580   -3.695129    2.019116
     71          1           0       -0.626423   -1.492427    3.366954
     72          1           0       -2.823266   -3.455987    3.933275
     73          1           0       -3.207085   -1.877033    4.496167
     74          1           0       -1.742174   -2.625718    5.065781
     75          1           0        0.718941   -1.788571    1.403788
     76          1           0        0.222452   -2.545601   -0.004871
     77          1           0        1.292783   -4.332244    0.295086
     78          1           0        0.345010   -4.704451    1.689397
     79          1           0       -2.015517    2.613572    5.132472
     80          1           0       -3.623494    2.145419    5.769224
     81          1           0       -3.180864    3.833332    5.592757
     82          1           0       -6.640852    5.336014    2.654845
     83          1           0       -5.371698    6.197589    1.686029
     84          1           0       -6.040161    6.824569    3.240291
     85          1           0       -6.159015    4.217265   -2.061594
     86          1           0       -8.147660    1.998866   -2.821359
     87          1           0       -8.242590    3.571906   -0.176624
     88          1           0       -8.968631    3.919272   -1.824064
     89          1           0       -7.936796    5.129810   -1.016498
     90          1           0       -6.142995    1.944979   -4.813780
     91          1           0       -6.370717    3.686847   -4.433008
     92          1           0       -8.920120    2.632785   -4.521499
     93          1           0       -8.143323    1.803242   -5.848106
     94          1           0       -8.092089    3.587330   -5.825875
     95          1           0       -6.653707   -4.006393   -3.860496
     96          1           0       -5.734826   -3.289106   -5.206114
     97          1           0       -7.042985   -2.381479   -4.375021
     98          1           0       -1.702601   -4.061229   -1.455733
     99          1           0       -0.077707   -7.396858    0.211702
    100          1           0       -1.748030   -7.858442    0.722126
    101          1           0       -0.790576   -6.761997    1.739867
    102          1           0        4.807552   -3.288238    2.960431
    103          1           0        4.251759   -1.720645    2.642008
    104          1           0        6.332964   -3.385387    1.280726
    105          1           0        6.309674    0.603392    0.456376
    106          1           0        4.810820   -0.014504    1.136663
    107          1           0        5.018947    0.145714   -0.641887
    108          1           0        7.532379   -0.913606   -1.143569
    109          1           0        7.202270   -2.585993   -0.948028
    110          1           0        8.864876   -3.007032    0.507716
    111          1           0        8.856955   -1.311539    1.165120
    112          1           0        9.710348   -1.396450   -1.697329
    113          1           0       10.572536   -2.646893   -0.796487
    114          1           0       10.865717   -0.219141    0.735095
    115          1           0       13.153082   -0.541142   -0.120362
    116          1           0       12.520720   -2.173541   -0.654318
    117          1           0       12.502838   -1.667172    1.095253
    118          1           0       11.414237    0.175600   -2.204052
    119          1           0       12.336644    1.025101   -0.981069
    120          1           0       10.994960    2.628870   -0.805655
    121          1           0        9.642382    1.556042   -0.244965
    122          1           0       10.033904    1.343090   -3.190278
    123          1           0        9.936345    3.019361   -2.799312
    124          1           0        7.783213    1.371142   -1.504209
    125          1           0        7.239957    0.258867   -3.306725
    126          1           0        7.801885    1.573443   -4.537025
    127          1           0        6.367160    1.662042   -3.697460
    128          1           0        6.713166    3.708002   -2.819033
    129          1           0        8.245298    4.165151   -2.321931
    130          1           0        7.428828    3.185602    0.065579
    131          1           0        5.830277    3.034418   -0.674478
    132          1           0        7.225207    5.785831   -0.810123
    133          1           0        6.931897    5.272183    0.778058
    134          1           0        4.592722    4.639149   -0.834990
    135          1           0        5.383322    6.287034   -2.556719
    136          1           0        5.279134    7.523849   -1.301342
    137          1           0        3.827931    6.634541   -1.796559
    138          1           0        3.555176    5.245315    0.971007
    139          1           0        3.763624    6.930417    0.569753
    140          1           0        5.015865    6.118467    1.599096
 ---------------------------------------------------------------------

 SCF Done:  E(RCAM-B3LYP) =  -3007.12675129     A.U. after   18 cycles

 Excitation energies and oscillator strengths:

 Excited State   1:      Singlet-A      1.7449 eV  710.56 nm  f=0.3860  <S**2>=0.000
     245 -> 248        0.18300
     246 -> 247        0.68410
     245 <- 248        0.10581
 This state for optimization and/or second-order correction.
 Total Energy, E(TD-HF/TD-DFT) =  -3007.06262815
 Copying the excited state density for this state as the 1-particle RhoCI density.

 Excited State   2:      Singlet-A      2.2433 eV  552.68 nm  f=0.1073  <S**2>=0.000
     245 -> 247        0.63669
     246 -> 248       -0.29372

 Excited State   3:      Singlet-A      3.4501 eV  359.36 nm  f=0.0788  <S**2>=0.000
     240 -> 247       -0.15964
     240 -> 248        0.13500
     240 -> 249       -0.19810
     240 -> 251       -0.14934
     242 -> 247        0.46651
     242 -> 249        0.18729
     245 -> 247       -0.10082
     246 -> 248       -0.28342

 Excited State   4:      Singlet-A      3.4837 eV  355.89 nm  f=0.0785  <S**2>=0.000
     242 -> 247        0.11608
     244 -> 247        0.58296
     245 -> 247        0.10083
     246 -> 248        0.28303

 Excited State   5:      Singlet-A      3.5487 eV  349.38 nm  f=0.3402  <S**2>=0.000
     240 -> 247       -0.31788
     240 -> 249       -0.15790
     244 -> 247       -0.30286
     245 -> 247        0.20112
     246 -> 248        0.42098
     246 -> 250       -0.10979

 The electronic state is 1-A.
 Alpha  occ. eigenvalues --  -46.90536 -19.26017 -19.24277 -19.20433 -19.20321
 Alpha  occ. eigenvalues --  -19.19145 -19.18795 -14.42839 -14.42237 -14.40389
 Alpha  occ. eigenvalues --  -14.39383 -10.40128 -10.39908 -10.35630 -10.35372
 Alpha  occ. eigenvalues --  -10.32012 -10.31942 -10.31809 -10.31741 -10.31665
 Alpha  occ. eigenvalues --  -10.31656 -10.30644 -10.29961 -10.29767 -10.29360
 Alpha  occ. eigenvalues --  -10.29068 -10.29061 -10.29022 -10.28929 -10.28657
 Alpha  occ. eigenvalues --  -10.28587 -10.28346 -10.28323 -10.28263 -10.28114
 Alpha  occ. eigenvalues --  -10.28074 -10.27811 -10.27486 -10.27243 -10.26892
 Alpha  occ. eigenvalues --  -10.26857 -10.26837 -10.26417 -10.26331 -10.26303
 Alpha  occ. eigenvalues --  -10.26228 -10.26184 -10.26143 -10.26114 -10.25957
 Alpha  occ. eigenvalues --  -10.25811 -10.25738 -10.25565 -10.25565 -10.25488
 Alpha  occ. eigenvalues --  -10.25444 -10.25284 -10.25270 -10.25157 -10.25095
 Alpha  occ. eigenvalues --  -10.25029 -10.24902 -10.24584 -10.24338 -10.24261
 Alpha  occ. eigenvalues --  -10.24162  -3.18868  -1.93758  -1.93341  -1.93152
 Alpha  occ. eigenvalues --   -1.17279  -1.13366  -1.08803  -1.08264  -1.07975
 Alpha  occ. eigenvalues --   -1.06429  -1.05756  -1.05033  -1.04281  -1.02684
 Alpha  occ. eigenvalues --   -0.91902  -0.90207  -0.89536  -0.89287  -0.88891
 Alpha  occ. eigenvalues --   -0.88559  -0.88475  -0.87455  -0.86944  -0.86081
 Alpha  occ. eigenvalues --   -0.85935  -0.85517  -0.83911  -0.83826  -0.83348
 Alpha  occ. eigenvalues --   -0.82425  -0.82156  -0.81452  -0.80886  -0.80429
 Alpha  occ. eigenvalues --   -0.80053  -0.77891  -0.77655  -0.77145  -0.76118
 Alpha  occ. eigenvalues --   -0.75989  -0.75250  -0.75049  -0.74588  -0.73580
 Alpha  occ. eigenvalues --   -0.72888  -0.72587  -0.71429  -0.70550  -0.69157
 Alpha  occ. eigenvalues --   -0.68317  -0.68171  -0.67969  -0.67103  -0.66338
 Alpha  occ. eigenvalues --   -0.65682  -0.65620  -0.65029  -0.64590  -0.63830
 Alpha  occ. eigenvalues --   -0.63311  -0.63253  -0.62948  -0.62788  -0.60216
 Alpha  occ. eigenvalues --   -0.59720  -0.59078  -0.58857  -0.58772  -0.58094
 Alpha  occ. eigenvalues --   -0.57451  -0.56693  -0.56583  -0.55857  -0.55568
 Alpha  occ. eigenvalues --   -0.55258  -0.54768  -0.54408  -0.54078  -0.54028
 Alpha  occ. eigenvalues --   -0.53560  -0.53334  -0.53048  -0.52755  -0.52597
 Alpha  occ. eigenvalues --   -0.52440  -0.52233  -0.51981  -0.51876  -0.51613
 Alpha  occ. eigenvalues --   -0.51534  -0.51086  -0.50993  -0.50821  -0.50619
 Alpha  occ. eigenvalues --   -0.50505  -0.50195  -0.49955  -0.49751  -0.49499
 Alpha  occ. eigenvalues --   -0.49477  -0.49098  -0.48963  -0.48729  -0.48576
 Alpha  occ. eigenvalues --   -0.48554  -0.48367  -0.48214  -0.48085  -0.47950
 Alpha  occ. eigenvalues --   -0.47748  -0.47402  -0.47055  -0.46862  -0.46488
 Alpha  occ. eigenvalues --   -0.46413  -0.46283  -0.46238  -0.46071  -0.46059
 Alpha  occ. eigenvalues --   -0.45692  -0.45370  -0.45327  -0.45148  -0.45048
 Alpha  occ. eigenvalues --   -0.44725  -0.44485  -0.44325  -0.44276  -0.43978
 Alpha  occ. eigenvalues --   -0.43767  -0.43608  -0.43544  -0.43168  -0.42949
 Alpha  occ. eigenvalues --   -0.42845  -0.42747  -0.42540  -0.42372  -0.42170
 Alpha  occ. eigenvalues --   -0.42056  -0.41875  -0.41719  -0.41602  -0.41386
 Alpha  occ. eigenvalues --   -0.41238  -0.41136  -0.40881  -0.40581  -0.40299
 Alpha  occ. eigenvalues --   -0.40168  -0.39827  -0.39381  -0.39057  -0.38997
 Alpha  occ. eigenvalues --   -0.38614  -0.38324  -0.38147  -0.38077  -0.37635
 Alpha  occ. eigenvalues --   -0.37270  -0.36986  -0.36867  -0.36578  -0.36550
 Alpha  occ. eigenvalues --   -0.36232  -0.35463  -0.35134  -0.35071  -0.34590
 Alpha  occ. eigenvalues --   -0.33709  -0.33341  -0.33140  -0.31594  -0.31151
 Alpha  occ. eigenvalues --   -0.30892  -0.30456  -0.29995  -0.29925  -0.24218
 Alpha  occ. eigenvalues --   -0.21440
 Alpha virt. eigenvalues --   -0.08788  -0.02068   0.00106   0.01236   0.01992
 Alpha virt. eigenvalues --    0.03671   0.04051   0.04620   0.05223   0.06759
 Alpha virt. eigenvalues --    0.07254   0.07899   0.08495   0.08643   0.08768

 Mulliken charges:
               1
     1  Mg   0.826967
     2  C   -0.075981
     3  C   -0.054752
     4  C   -0.056325
     5  C   -0.074186
     6  N   -0.295382
     7  C   -0.020494
     8  C    0.044878
     9  C   -0.096681
    10  C    0.033061
    11  C    0.064667
    12  C    0.107235
    13  C    0.051532
    14  C    0.166763
    15  O   -0.245666
    16  O   -0.376545
    17  N   -0.328594
    18  C    0.095731
    19  C   -0.139300
    20  C   -0.036962
    21  C    0.125640
    22  C    0.096589
    23  C    0.008961
    24  O   -0.229469
    25  C    0.055393
    26  N   -0.240272
    27  C    0.015768
    28  C   -0.077775
    29  C    0.005476
    30  C    0.022959
    31  C    0.054824
    32  C    0.052724
    33  C   -0.007430
    34  N   -0.311037
    35  C    0.052283
    36  C   -0.180049
    37  C   -0.036244
    38  C    0.138525
    39  C    0.118322
    40  C    0.115048
    41  O   -0.182465
    42  C   -0.039947
    43  C    0.207035
    44  O   -0.210880
    45  O   -0.326589
    46  C    0.161266
    47  C    0.298680
    48  C   -0.145865
    49  C   -0.161268
    50  C    0.083810
    51  C    0.039045
    52  C    0.052069
    53  C    0.091163
    54  C   -0.164550
    55  C    0.051795
    56  C   -0.003282
    57  C    0.025507
    58  C    0.057189
    59  C   -0.140891
    60  C    0.048986
    61  C    0.032913
    62  C   -0.018776
    63  C    0.081803
    64  C   -0.154185
    65  C    0.037946
    66  C    0.044360
    67  H   -0.020875
    68  H   -0.056861
    69  H   -0.032394
    70  H    0.016258
    71  H    0.016616
    72  H    0.015478
    73  H    0.025552
    74  H    0.024947
    75  H    0.024167
    76  H    0.020991
    77  H    0.026466
    78  H    0.020574
    79  H    0.023240
    80  H    0.032220
    81  H    0.042618
    82  H    0.028536
    83  H    0.053296
    84  H    0.029704
    85  H    0.022547
    86  H    0.008488
    87  H    0.026125
    88  H    0.022279
    89  H    0.020171
    90  H    0.015873
    91  H    0.011780
    92  H    0.009612
    93  H    0.019336
    94  H    0.020102
    95  H    0.039903
    96  H    0.042753
    97  H   -0.000862
    98  H    0.057164
    99  H    0.038919
   100  H    0.064513
   101  H    0.033547
   102  H    0.019900
   103  H    0.004226
   104  H   -0.005391
   105  H    0.022599
   106  H    0.005638
   107  H    0.039759
   108  H   -0.013256
   109  H    0.015079
   110  H    0.004940
   111  H    0.012122
   112  H    0.001006
   113  H   -0.004510
   114  H   -0.008296
   115  H   -0.002122
   116  H    0.008628
   117  H    0.011543
   118  H   -0.002560
   119  H   -0.003603
   120  H    0.002469
   121  H    0.011921
   122  H   -0.003009
   123  H   -0.007413
   124  H   -0.008142
   125  H    0.010115
   126  H    0.012924
   127  H   -0.009873
   128  H   -0.018009
   129  H   -0.013338
   130  H   -0.000340
   131  H    0.016956
   132  H   -0.009732
   133  H   -0.005743
   134  H   -0.004624
   135  H    0.004222
   136  H    0.006627
   137  H    0.007557
   138  H    0.008727
   139  H    0.004012
   140  H    0.011139
 Sum of Mulliken charges =  -0.00000

 Dipole moment (field-independent basis, Debye):
    X=              0.3222    Y=              3.8232    Z=             -2.2142  Tot=              4.4298
 Quadrupole moment (field-independent basis, Debye-Ang):
   XX=           -366.4365   YY=           -441.5472   ZZ=           -413.8940
   XY=            -29.7895   XZ=              7.5479   YZ=            -26.3810

 Normal termination of Gaussian 16 at Fri Apr 29 03:21:01 2022.
