 Gaussian 16, Revision A.03,
 Gaussian 16:  ES64L-G16RevA.03 25-Dec-2016

 ---------------------------------
 #p PBE1PBE/Def2SVP td=(nstates=5)
 ---------------------------------

 ------------------------------------------------------
 step_1851_chromophore_23 TDDFT with PBE1PBE functional
 ------------------------------------------------------
 Symbolic Z-matrix:
 Charge =  0 Multiplicity = 1

                         Standard orientation:
 ---------------------------------------------------------------------
 Center     Atomic      Atomic             Coordinates (Angstroms)
 Number     Number       Type             X           Y           Z
 ---------------------------------------------------------------------
      1         12           0       -4.658460    0.149390    0.342817
      2          6           0       -3.095983   -2.901507   -0.363404
      3          6           0       -2.760666    0.399847    3.219065
      4          6           0       -5.546839    3.268743    0.523659
      5          6           0       -6.274706   -0.071447   -2.847154
      6          7           0       -3.002788   -1.065232    1.179590
      7          6           0       -2.448031   -2.220187    0.718213
      8          6           0       -1.342527   -2.728675    1.706197
      9          6           0       -1.557719   -1.914418    2.990386
     10          6           0       -2.551525   -0.761283    2.465103
     11          6           0       -2.367310   -2.497748    4.182634
     12          6           0        0.121776   -2.640117    1.076236
     13          6           0        0.917767   -3.902566    1.222940
     14          6           0        2.254544   -3.783806    2.106724
     15          8           0        2.282081   -4.022902    3.324827
     16          8           0        3.317524   -3.120769    1.398927
     17          7           0       -4.267085    1.644476    1.786102
     18          6           0       -3.500623    1.540771    2.831251
     19          6           0       -3.579710    2.750966    3.644209
     20          6           0       -4.424669    3.657426    2.936261
     21          6           0       -4.748575    2.916029    1.654998
     22          6           0       -3.080211    2.847988    5.138339
     23          6           0       -4.701623    5.094697    3.368632
     24          8           0       -4.097089    5.649166    4.320812
     25          6           0       -5.734467    5.939800    2.681169
     26          7           0       -5.588735    1.475624   -1.126088
     27          6           0       -5.934127    2.680818   -0.685214
     28          6           0       -6.817723    3.392913   -1.787327
     29          6           0       -7.100387    2.294023   -2.876643
     30          6           0       -6.283060    1.163713   -2.214305
     31          6           0       -8.130141    4.064865   -1.142097
     32          6           0       -6.811846    2.690394   -4.384795
     33          6           0       -8.078916    2.686793   -5.211628
     34          7           0       -4.858812   -1.230860   -1.240202
     35          6           0       -5.531369   -1.231024   -2.405426
     36          6           0       -5.404093   -2.542645   -3.065115
     37          6           0       -4.447371   -3.193918   -2.268521
     38          6           0       -4.116357   -2.355851   -1.216401
     39          6           0       -6.219624   -3.085607   -4.251269
     40          6           0       -3.751590   -4.509696   -2.100488
     41          8           0       -3.898643   -5.621901   -2.630866
     42          6           0       -2.671533   -4.263149   -0.998279
     43          6           0       -2.576480   -5.515521   -0.024090
     44          8           0       -3.493802   -6.197067    0.432369
     45          8           0       -1.249600   -5.827425    0.042263
     46          6           0       -0.989811   -7.075666    0.714772
     47          6           0        4.508580   -2.648378    2.130199
     48          6           0        5.732288   -2.477798    1.226910
     49          6           0        6.206643   -1.466671    0.423384
     50          6           0        5.502911   -0.112359    0.300138
     51          6           0        7.461317   -1.691095   -0.382813
     52          6           0        8.842989   -1.942612    0.275845
     53          6           0       10.048596   -1.695707   -0.705257
     54          6           0       11.079671   -0.667427   -0.234971
     55          6           0       12.441987   -1.349171    0.054310
     56          6           0       11.375144    0.550948   -1.181093
     57          6           0       10.339066    1.792973   -1.048473
     58          6           0        9.660147    2.030738   -2.432131
     59          6           0        8.058943    1.986459   -2.360406
     60          6           0        7.389861    1.307147   -3.564833
     61          6           0        7.460233    3.452347   -2.067851
     62          6           0        6.740562    3.634138   -0.649657
     63          6           0        6.565856    5.132727   -0.239633
     64          6           0        5.107155    5.541321   -0.503767
     65          6           0        4.900073    6.551566   -1.615931
     66          6           0        4.308411    6.009318    0.775939
     67          1           0       -2.210930    0.555972    4.149972
     68          1           0       -5.941559    4.282580    0.621657
     69          1           0       -6.828535   -0.264101   -3.768369
     70          1           0       -1.738580   -3.695129    2.019116
     71          1           0       -0.626423   -1.492427    3.366954
     72          1           0       -2.823266   -3.455987    3.933275
     73          1           0       -3.207085   -1.877033    4.496167
     74          1           0       -1.742174   -2.625718    5.065781
     75          1           0        0.718941   -1.788571    1.403788
     76          1           0        0.222452   -2.545601   -0.004871
     77          1           0        1.292783   -4.332244    0.295086
     78          1           0        0.345010   -4.704451    1.689397
     79          1           0       -2.015517    2.613572    5.132472
     80          1           0       -3.623494    2.145419    5.769224
     81          1           0       -3.180864    3.833332    5.592757
     82          1           0       -6.640852    5.336014    2.654845
     83          1           0       -5.371698    6.197589    1.686029
     84          1           0       -6.040161    6.824569    3.240291
     85          1           0       -6.159015    4.217265   -2.061594
     86          1           0       -8.147660    1.998866   -2.821359
     87          1           0       -8.242590    3.571906   -0.176624
     88          1           0       -8.968631    3.919272   -1.824064
     89          1           0       -7.936796    5.129810   -1.016498
     90          1           0       -6.142995    1.944979   -4.813780
     91          1           0       -6.370717    3.686847   -4.433008
     92          1           0       -8.920120    2.632785   -4.521499
     93          1           0       -8.143323    1.803242   -5.848106
     94          1           0       -8.092089    3.587330   -5.825875
     95          1           0       -6.653707   -4.006393   -3.860496
     96          1           0       -5.734826   -3.289106   -5.206114
     97          1           0       -7.042985   -2.381479   -4.375021
     98          1           0       -1.702601   -4.061229   -1.455733
     99          1           0       -0.077707   -7.396858    0.211702
    100          1           0       -1.748030   -7.858442    0.722126
    101          1           0       -0.790576   -6.761997    1.739867
    102          1           0        4.807552   -3.288238    2.960431
    103          1           0        4.251759   -1.720645    2.642008
    104          1           0        6.332964   -3.385387    1.280726
    105          1           0        6.309674    0.603392    0.456376
    106          1           0        4.810820   -0.014504    1.136663
    107          1           0        5.018947    0.145714   -0.641887
    108          1           0        7.532379   -0.913606   -1.143569
    109          1           0        7.202270   -2.585993   -0.948028
    110          1           0        8.864876   -3.007032    0.507716
    111          1           0        8.856955   -1.311539    1.165120
    112          1           0        9.710348   -1.396450   -1.697329
    113          1           0       10.572536   -2.646893   -0.796487
    114          1           0       10.865717   -0.219141    0.735095
    115          1           0       13.153082   -0.541142   -0.120362
    116          1           0       12.520720   -2.173541   -0.654318
    117          1           0       12.502838   -1.667172    1.095253
    118          1           0       11.414237    0.175600   -2.204052
    119          1           0       12.336644    1.025101   -0.981069
    120          1           0       10.994960    2.628870   -0.805655
    121          1           0        9.642382    1.556042   -0.244965
    122          1           0       10.033904    1.343090   -3.190278
    123          1           0        9.936345    3.019361   -2.799312
    124          1           0        7.783213    1.371142   -1.504209
    125          1           0        7.239957    0.258867   -3.306725
    126          1           0        7.801885    1.573443   -4.537025
    127          1           0        6.367160    1.662042   -3.697460
    128          1           0        6.713166    3.708002   -2.819033
    129          1           0        8.245298    4.165151   -2.321931
    130          1           0        7.428828    3.185602    0.065579
    131          1           0        5.830277    3.034418   -0.674478
    132          1           0        7.225207    5.785831   -0.810123
    133          1           0        6.931897    5.272183    0.778058
    134          1           0        4.592722    4.639149   -0.834990
    135          1           0        5.383322    6.287034   -2.556719
    136          1           0        5.279134    7.523849   -1.301342
    137          1           0        3.827931    6.634541   -1.796559
    138          1           0        3.555176    5.245315    0.971007
    139          1           0        3.763624    6.930417    0.569753
    140          1           0        5.015865    6.118467    1.599096
 ---------------------------------------------------------------------

 SCF Done:  E(RPBE1PBE) =  -3005.31493266     A.U. after   16 cycles

 Excitation energies and oscillator strengths:

 Excited State   1:      Singlet-A      1.8997 eV  652.65 nm  f=0.3758  <S**2>=0.000
     245 -> 248        0.17716
     246 -> 247        0.69045
     246 <- 247       -0.10400
 This state for optimization and/or second-order correction.
 Total Energy, E(TD-HF/TD-DFT) =  -3005.24511960
 Copying the excited state density for this state as the 1-particle RhoCI density.

 Excited State   2:      Singlet-A      2.2497 eV  551.12 nm  f=0.1054  <S**2>=0.000
     245 -> 247        0.64899
     246 -> 248       -0.26515

 Excited State   3:      Singlet-A      2.9911 eV  414.51 nm  f=0.0006  <S**2>=0.000
     243 -> 247        0.65424
     243 -> 248       -0.11776
     243 -> 249        0.15714

 Excited State   4:      Singlet-A      3.0592 eV  405.28 nm  f=0.0002  <S**2>=0.000
     241 -> 247        0.54105
     241 -> 249       -0.14705
     241 -> 250        0.11371
     242 -> 247        0.39939

 Excited State   5:      Singlet-A      3.1506 eV  393.53 nm  f=0.0005  <S**2>=0.000
     241 -> 247       -0.40307
     242 -> 247        0.55281
     246 -> 248        0.10726

 The electronic state is 1-A.
 Alpha  occ. eigenvalues --  -46.93915 -19.26722 -19.25011 -19.20740 -19.20614
 Alpha  occ. eigenvalues --  -19.19464 -19.18941 -14.42380 -14.41697 -14.39891
 Alpha  occ. eigenvalues --  -14.39101 -10.37224 -10.37032 -10.32693 -10.32628
 Alpha  occ. eigenvalues --  -10.29590 -10.29552 -10.29517 -10.29323 -10.29272
 Alpha  occ. eigenvalues --  -10.28928 -10.28450 -10.27659 -10.27451 -10.27201
 Alpha  occ. eigenvalues --  -10.26903 -10.26759 -10.26749 -10.26589 -10.26472
 Alpha  occ. eigenvalues --  -10.26371 -10.26223 -10.25969 -10.25941 -10.25928
 Alpha  occ. eigenvalues --  -10.25748 -10.25306 -10.25092 -10.24851 -10.24537
 Alpha  occ. eigenvalues --  -10.24534 -10.24323 -10.23952 -10.23915 -10.23720
 Alpha  occ. eigenvalues --  -10.23652 -10.23608 -10.23595 -10.23548 -10.23543
 Alpha  occ. eigenvalues --  -10.23381 -10.23216 -10.23186 -10.23147 -10.23132
 Alpha  occ. eigenvalues --  -10.23128 -10.23017 -10.22920 -10.22751 -10.22728
 Alpha  occ. eigenvalues --  -10.22617 -10.22449 -10.21979 -10.21714 -10.21609
 Alpha  occ. eigenvalues --  -10.21595  -3.15833  -1.88662  -1.88225  -1.88037
 Alpha  occ. eigenvalues --   -1.12124  -1.08162  -1.03612  -1.02881  -1.02851
 Alpha  occ. eigenvalues --   -1.01319  -1.00382  -0.99645  -0.99075  -0.97302
 Alpha  occ. eigenvalues --   -0.86312  -0.84334  -0.83756  -0.83572  -0.82982
 Alpha  occ. eigenvalues --   -0.82831  -0.82582  -0.81773  -0.81038  -0.80346
 Alpha  occ. eigenvalues --   -0.80222  -0.79811  -0.78187  -0.78027  -0.77602
 Alpha  occ. eigenvalues --   -0.76610  -0.76288  -0.75724  -0.75125  -0.74693
 Alpha  occ. eigenvalues --   -0.74259  -0.72200  -0.72024  -0.71344  -0.70361
 Alpha  occ. eigenvalues --   -0.70273  -0.69594  -0.69117  -0.68720  -0.67755
 Alpha  occ. eigenvalues --   -0.67329  -0.66972  -0.65881  -0.64831  -0.63501
 Alpha  occ. eigenvalues --   -0.62752  -0.62435  -0.62378  -0.61323  -0.60737
 Alpha  occ. eigenvalues --   -0.60060  -0.59888  -0.59621  -0.59151  -0.57955
 Alpha  occ. eigenvalues --   -0.57838  -0.57543  -0.57407  -0.56997  -0.54777
 Alpha  occ. eigenvalues --   -0.54294  -0.53487  -0.53466  -0.53371  -0.52721
 Alpha  occ. eigenvalues --   -0.51900  -0.51245  -0.50987  -0.50275  -0.50174
 Alpha  occ. eigenvalues --   -0.49837  -0.49278  -0.48858  -0.48664  -0.48593
 Alpha  occ. eigenvalues --   -0.48229  -0.47798  -0.47700  -0.47366  -0.47058
 Alpha  occ. eigenvalues --   -0.46882  -0.46677  -0.46505  -0.46330  -0.46212
 Alpha  occ. eigenvalues --   -0.46023  -0.45638  -0.45541  -0.45425  -0.45100
 Alpha  occ. eigenvalues --   -0.45006  -0.44826  -0.44559  -0.44391  -0.44134
 Alpha  occ. eigenvalues --   -0.44006  -0.43725  -0.43506  -0.43320  -0.43231
 Alpha  occ. eigenvalues --   -0.43103  -0.42951  -0.42836  -0.42722  -0.42569
 Alpha  occ. eigenvalues --   -0.42449  -0.42043  -0.41796  -0.41577  -0.41157
 Alpha  occ. eigenvalues --   -0.41070  -0.40962  -0.40890  -0.40814  -0.40746
 Alpha  occ. eigenvalues --   -0.40410  -0.40074  -0.39921  -0.39857  -0.39823
 Alpha  occ. eigenvalues --   -0.39443  -0.39204  -0.39067  -0.38981  -0.38724
 Alpha  occ. eigenvalues --   -0.38489  -0.38398  -0.38265  -0.38043  -0.37753
 Alpha  occ. eigenvalues --   -0.37640  -0.37558  -0.37333  -0.37144  -0.37077
 Alpha  occ. eigenvalues --   -0.36905  -0.36743  -0.36534  -0.36400  -0.36227
 Alpha  occ. eigenvalues --   -0.36090  -0.35887  -0.35678  -0.35407  -0.35110
 Alpha  occ. eigenvalues --   -0.35089  -0.34635  -0.34381  -0.34031  -0.33803
 Alpha  occ. eigenvalues --   -0.33461  -0.33164  -0.33148  -0.32849  -0.32461
 Alpha  occ. eigenvalues --   -0.32319  -0.31869  -0.31810  -0.31636  -0.31444
 Alpha  occ. eigenvalues --   -0.31051  -0.30423  -0.30128  -0.30088  -0.29754
 Alpha  occ. eigenvalues --   -0.28727  -0.28717  -0.28212  -0.27210  -0.26281
 Alpha  occ. eigenvalues --   -0.25840  -0.25630  -0.25404  -0.25337  -0.21152
 Alpha  occ. eigenvalues --   -0.19071
 Alpha virt. eigenvalues --   -0.11280  -0.05584  -0.04129  -0.02453  -0.01501
 Alpha virt. eigenvalues --   -0.00781  -0.00609  -0.00100   0.01084   0.02662
 Alpha virt. eigenvalues --    0.03487   0.04519   0.04631   0.05220   0.05480

 Mulliken charges:
               1
     1  Mg   0.967373
     2  C   -0.066423
     3  C   -0.036089
     4  C   -0.066511
     5  C   -0.063377
     6  N   -0.391887
     7  C    0.059458
     8  C   -0.046831
     9  C   -0.154775
    10  C    0.051387
    11  C    0.010006
    12  C    0.061281
    13  C   -0.025840
    14  C    0.226788
    15  O   -0.275484
    16  O   -0.402542
    17  N   -0.445934
    18  C    0.117764
    19  C   -0.156051
    20  C   -0.078339
    21  C    0.154255
    22  C    0.034277
    23  C    0.056704
    24  O   -0.264264
    25  C   -0.021279
    26  N   -0.346736
    27  C    0.050770
    28  C   -0.145428
    29  C   -0.066338
    30  C    0.057804
    31  C   -0.008119
    32  C   -0.007247
    33  C   -0.079812
    34  N   -0.437152
    35  C    0.073965
    36  C   -0.188981
    37  C   -0.085551
    38  C    0.172592
    39  C    0.063291
    40  C    0.211332
    41  O   -0.225778
    42  C   -0.148389
    43  C    0.289672
    44  O   -0.245857
    45  O   -0.355949
    46  C    0.104961
    47  C    0.258720
    48  C   -0.156480
    49  C   -0.200845
    50  C    0.014874
    51  C   -0.035175
    52  C   -0.013821
    53  C    0.037198
    54  C   -0.248920
    55  C   -0.009523
    56  C   -0.054238
    57  C   -0.038305
    58  C    0.005239
    59  C   -0.238911
    60  C   -0.012946
    61  C   -0.008267
    62  C   -0.098696
    63  C    0.033032
    64  C   -0.244731
    65  C   -0.027995
    66  C   -0.016203
    67  H    0.009696
    68  H   -0.019085
    69  H   -0.000016
    70  H    0.057361
    71  H    0.051362
    72  H    0.042495
    73  H    0.053881
    74  H    0.052159
    75  H    0.054684
    76  H    0.052523
    77  H    0.057470
    78  H    0.057697
    79  H    0.049893
    80  H    0.059279
    81  H    0.069436
    82  H    0.055014
    83  H    0.078050
    84  H    0.057080
    85  H    0.059478
    86  H    0.046002
    87  H    0.054644
    88  H    0.050202
    89  H    0.047132
    90  H    0.048781
    91  H    0.044244
    92  H    0.036913
    93  H    0.046574
    94  H    0.047909
    95  H    0.068283
    96  H    0.069506
    97  H    0.027572
    98  H    0.094732
    99  H    0.061260
   100  H    0.085712
   101  H    0.055159
   102  H    0.045523
   103  H    0.030671
   104  H    0.024760
   105  H    0.053301
   106  H    0.034358
   107  H    0.066263
   108  H    0.031214
   109  H    0.049089
   110  H    0.037774
   111  H    0.044103
   112  H    0.033014
   113  H    0.027741
   114  H    0.030268
   115  H    0.026024
   116  H    0.036114
   117  H    0.039886
   118  H    0.029123
   119  H    0.027812
   120  H    0.035809
   121  H    0.042637
   122  H    0.028102
   123  H    0.024955
   124  H    0.040160
   125  H    0.039149
   126  H    0.039905
   127  H    0.018374
   128  H    0.015525
   129  H    0.017163
   130  H    0.035290
   131  H    0.049943
   132  H    0.022722
   133  H    0.025359
   134  H    0.034333
   135  H    0.032724
   136  H    0.035156
   137  H    0.036152
   138  H    0.036431
   139  H    0.031240
   140  H    0.038025
 Sum of Mulliken charges =  -0.00000

 Dipole moment (field-independent basis, Debye):
    X=              0.3101    Y=              3.6310    Z=             -2.4424  Tot=              4.3870
 Quadrupole moment (field-independent basis, Debye-Ang):
   XX=           -361.6477   YY=           -438.7965   ZZ=           -410.1717
   XY=            -29.2753   XZ=              9.4917   YZ=            -27.1099

 Normal termination of Gaussian 16 at Fri Apr 29 03:39:32 2022.
