 Gaussian 16, Revision A.03,
 Gaussian 16:  ES64L-G16RevA.03 25-Dec-2016

 --------------------------------
 #p wB97XD/Def2SVP td=(nstates=5)
 --------------------------------

 -----------------------------------------------------
 step_1851_chromophore_23 TDDFT with wB97XD functional
 -----------------------------------------------------
 Symbolic Z-matrix:
 Charge =  0 Multiplicity = 1

                         Standard orientation:
 ---------------------------------------------------------------------
 Center     Atomic      Atomic             Coordinates (Angstroms)
 Number     Number       Type             X           Y           Z
 ---------------------------------------------------------------------
      1         12           0       -4.658460    0.149390    0.342817
      2          6           0       -3.095983   -2.901507   -0.363404
      3          6           0       -2.760666    0.399847    3.219065
      4          6           0       -5.546839    3.268743    0.523659
      5          6           0       -6.274706   -0.071447   -2.847154
      6          7           0       -3.002788   -1.065232    1.179590
      7          6           0       -2.448031   -2.220187    0.718213
      8          6           0       -1.342527   -2.728675    1.706197
      9          6           0       -1.557719   -1.914418    2.990386
     10          6           0       -2.551525   -0.761283    2.465103
     11          6           0       -2.367310   -2.497748    4.182634
     12          6           0        0.121776   -2.640117    1.076236
     13          6           0        0.917767   -3.902566    1.222940
     14          6           0        2.254544   -3.783806    2.106724
     15          8           0        2.282081   -4.022902    3.324827
     16          8           0        3.317524   -3.120769    1.398927
     17          7           0       -4.267085    1.644476    1.786102
     18          6           0       -3.500623    1.540771    2.831251
     19          6           0       -3.579710    2.750966    3.644209
     20          6           0       -4.424669    3.657426    2.936261
     21          6           0       -4.748575    2.916029    1.654998
     22          6           0       -3.080211    2.847988    5.138339
     23          6           0       -4.701623    5.094697    3.368632
     24          8           0       -4.097089    5.649166    4.320812
     25          6           0       -5.734467    5.939800    2.681169
     26          7           0       -5.588735    1.475624   -1.126088
     27          6           0       -5.934127    2.680818   -0.685214
     28          6           0       -6.817723    3.392913   -1.787327
     29          6           0       -7.100387    2.294023   -2.876643
     30          6           0       -6.283060    1.163713   -2.214305
     31          6           0       -8.130141    4.064865   -1.142097
     32          6           0       -6.811846    2.690394   -4.384795
     33          6           0       -8.078916    2.686793   -5.211628
     34          7           0       -4.858812   -1.230860   -1.240202
     35          6           0       -5.531369   -1.231024   -2.405426
     36          6           0       -5.404093   -2.542645   -3.065115
     37          6           0       -4.447371   -3.193918   -2.268521
     38          6           0       -4.116357   -2.355851   -1.216401
     39          6           0       -6.219624   -3.085607   -4.251269
     40          6           0       -3.751590   -4.509696   -2.100488
     41          8           0       -3.898643   -5.621901   -2.630866
     42          6           0       -2.671533   -4.263149   -0.998279
     43          6           0       -2.576480   -5.515521   -0.024090
     44          8           0       -3.493802   -6.197067    0.432369
     45          8           0       -1.249600   -5.827425    0.042263
     46          6           0       -0.989811   -7.075666    0.714772
     47          6           0        4.508580   -2.648378    2.130199
     48          6           0        5.732288   -2.477798    1.226910
     49          6           0        6.206643   -1.466671    0.423384
     50          6           0        5.502911   -0.112359    0.300138
     51          6           0        7.461317   -1.691095   -0.382813
     52          6           0        8.842989   -1.942612    0.275845
     53          6           0       10.048596   -1.695707   -0.705257
     54          6           0       11.079671   -0.667427   -0.234971
     55          6           0       12.441987   -1.349171    0.054310
     56          6           0       11.375144    0.550948   -1.181093
     57          6           0       10.339066    1.792973   -1.048473
     58          6           0        9.660147    2.030738   -2.432131
     59          6           0        8.058943    1.986459   -2.360406
     60          6           0        7.389861    1.307147   -3.564833
     61          6           0        7.460233    3.452347   -2.067851
     62          6           0        6.740562    3.634138   -0.649657
     63          6           0        6.565856    5.132727   -0.239633
     64          6           0        5.107155    5.541321   -0.503767
     65          6           0        4.900073    6.551566   -1.615931
     66          6           0        4.308411    6.009318    0.775939
     67          1           0       -2.210930    0.555972    4.149972
     68          1           0       -5.941559    4.282580    0.621657
     69          1           0       -6.828535   -0.264101   -3.768369
     70          1           0       -1.738580   -3.695129    2.019116
     71          1           0       -0.626423   -1.492427    3.366954
     72          1           0       -2.823266   -3.455987    3.933275
     73          1           0       -3.207085   -1.877033    4.496167
     74          1           0       -1.742174   -2.625718    5.065781
     75          1           0        0.718941   -1.788571    1.403788
     76          1           0        0.222452   -2.545601   -0.004871
     77          1           0        1.292783   -4.332244    0.295086
     78          1           0        0.345010   -4.704451    1.689397
     79          1           0       -2.015517    2.613572    5.132472
     80          1           0       -3.623494    2.145419    5.769224
     81          1           0       -3.180864    3.833332    5.592757
     82          1           0       -6.640852    5.336014    2.654845
     83          1           0       -5.371698    6.197589    1.686029
     84          1           0       -6.040161    6.824569    3.240291
     85          1           0       -6.159015    4.217265   -2.061594
     86          1           0       -8.147660    1.998866   -2.821359
     87          1           0       -8.242590    3.571906   -0.176624
     88          1           0       -8.968631    3.919272   -1.824064
     89          1           0       -7.936796    5.129810   -1.016498
     90          1           0       -6.142995    1.944979   -4.813780
     91          1           0       -6.370717    3.686847   -4.433008
     92          1           0       -8.920120    2.632785   -4.521499
     93          1           0       -8.143323    1.803242   -5.848106
     94          1           0       -8.092089    3.587330   -5.825875
     95          1           0       -6.653707   -4.006393   -3.860496
     96          1           0       -5.734826   -3.289106   -5.206114
     97          1           0       -7.042985   -2.381479   -4.375021
     98          1           0       -1.702601   -4.061229   -1.455733
     99          1           0       -0.077707   -7.396858    0.211702
    100          1           0       -1.748030   -7.858442    0.722126
    101          1           0       -0.790576   -6.761997    1.739867
    102          1           0        4.807552   -3.288238    2.960431
    103          1           0        4.251759   -1.720645    2.642008
    104          1           0        6.332964   -3.385387    1.280726
    105          1           0        6.309674    0.603392    0.456376
    106          1           0        4.810820   -0.014504    1.136663
    107          1           0        5.018947    0.145714   -0.641887
    108          1           0        7.532379   -0.913606   -1.143569
    109          1           0        7.202270   -2.585993   -0.948028
    110          1           0        8.864876   -3.007032    0.507716
    111          1           0        8.856955   -1.311539    1.165120
    112          1           0        9.710348   -1.396450   -1.697329
    113          1           0       10.572536   -2.646893   -0.796487
    114          1           0       10.865717   -0.219141    0.735095
    115          1           0       13.153082   -0.541142   -0.120362
    116          1           0       12.520720   -2.173541   -0.654318
    117          1           0       12.502838   -1.667172    1.095253
    118          1           0       11.414237    0.175600   -2.204052
    119          1           0       12.336644    1.025101   -0.981069
    120          1           0       10.994960    2.628870   -0.805655
    121          1           0        9.642382    1.556042   -0.244965
    122          1           0       10.033904    1.343090   -3.190278
    123          1           0        9.936345    3.019361   -2.799312
    124          1           0        7.783213    1.371142   -1.504209
    125          1           0        7.239957    0.258867   -3.306725
    126          1           0        7.801885    1.573443   -4.537025
    127          1           0        6.367160    1.662042   -3.697460
    128          1           0        6.713166    3.708002   -2.819033
    129          1           0        8.245298    4.165151   -2.321931
    130          1           0        7.428828    3.185602    0.065579
    131          1           0        5.830277    3.034418   -0.674478
    132          1           0        7.225207    5.785831   -0.810123
    133          1           0        6.931897    5.272183    0.778058
    134          1           0        4.592722    4.639149   -0.834990
    135          1           0        5.383322    6.287034   -2.556719
    136          1           0        5.279134    7.523849   -1.301342
    137          1           0        3.827931    6.634541   -1.796559
    138          1           0        3.555176    5.245315    0.971007
    139          1           0        3.763624    6.930417    0.569753
    140          1           0        5.015865    6.118467    1.599096
 ---------------------------------------------------------------------

 SCF Done:  E(RwB97XD) =  -3007.82727793     A.U. after   20 cycles

 Excitation energies and oscillator strengths:

 Excited State   1:      Singlet-A      1.6905 eV  733.43 nm  f=0.3839  <S**2>=0.000
     245 -> 248        0.18864
     246 -> 247        0.68197
     245 <- 248        0.11509
 This state for optimization and/or second-order correction.
 Total Energy, E(TD-HF/TD-DFT) =  -3007.76515432
 Copying the excited state density for this state as the 1-particle RhoCI density.

 Excited State   2:      Singlet-A      2.1914 eV  565.79 nm  f=0.1045  <S**2>=0.000
     245 -> 247        0.63467
     246 -> 248       -0.29663

 Excited State   3:      Singlet-A      3.4615 eV  358.18 nm  f=0.0540  <S**2>=0.000
     240 -> 248        0.12090
     240 -> 249       -0.18381
     240 -> 250       -0.13725
     242 -> 247        0.47939
     242 -> 248       -0.13032
     242 -> 249        0.25811
     242 -> 250        0.13712
     246 -> 248       -0.23311

 Excited State   4:      Singlet-A      3.5098 eV  353.25 nm  f=0.1258  <S**2>=0.000
     243 -> 247        0.54802
     245 -> 247        0.12433
     246 -> 248        0.33565

 Excited State   5:      Singlet-A      3.5806 eV  346.26 nm  f=0.3226  <S**2>=0.000
     240 -> 247       -0.35328
     240 -> 249       -0.15000
     243 -> 247       -0.32278
     245 -> 247        0.19064
     246 -> 248        0.39601

 The electronic state is 1-A.
 Alpha  occ. eigenvalues --  -46.96871 -19.31256 -19.29555 -19.25403 -19.25289
 Alpha  occ. eigenvalues --  -19.24196 -19.23870 -14.47450 -14.46798 -14.44972
 Alpha  occ. eigenvalues --  -14.43955 -10.44020 -10.43798 -10.39641 -10.39395
 Alpha  occ. eigenvalues --  -10.36139 -10.35900 -10.35849 -10.35763 -10.35705
 Alpha  occ. eigenvalues --  -10.35420 -10.34614 -10.34010 -10.33753 -10.33440
 Alpha  occ. eigenvalues --  -10.33284 -10.33176 -10.33118 -10.32904 -10.32717
 Alpha  occ. eigenvalues --  -10.32644 -10.32489 -10.32405 -10.32284 -10.32175
 Alpha  occ. eigenvalues --  -10.32083 -10.31742 -10.31570 -10.31323 -10.30858
 Alpha  occ. eigenvalues --  -10.30807 -10.30746 -10.30279 -10.30271 -10.30214
 Alpha  occ. eigenvalues --  -10.30195 -10.30076 -10.30056 -10.29987 -10.29915
 Alpha  occ. eigenvalues --  -10.29749 -10.29542 -10.29499 -10.29489 -10.29464
 Alpha  occ. eigenvalues --  -10.29366 -10.29310 -10.29199 -10.29103 -10.29051
 Alpha  occ. eigenvalues --  -10.28979 -10.28810 -10.28411 -10.28136 -10.28060
 Alpha  occ. eigenvalues --  -10.27998  -3.22674  -1.96248  -1.95808  -1.95622
 Alpha  occ. eigenvalues --   -1.19481  -1.15553  -1.11021  -1.10506  -1.10196
 Alpha  occ. eigenvalues --   -1.08666  -1.07772  -1.07099  -1.06301  -1.04695
 Alpha  occ. eigenvalues --   -0.93868  -0.92000  -0.91382  -0.91166  -0.90653
 Alpha  occ. eigenvalues --   -0.90484  -0.90244  -0.89383  -0.88711  -0.88093
 Alpha  occ. eigenvalues --   -0.87857  -0.87415  -0.85781  -0.85688  -0.85263
 Alpha  occ. eigenvalues --   -0.84353  -0.83975  -0.83397  -0.82777  -0.82327
 Alpha  occ. eigenvalues --   -0.81917  -0.79798  -0.79593  -0.79107  -0.77985
 Alpha  occ. eigenvalues --   -0.77914  -0.77207  -0.76827  -0.76402  -0.75420
 Alpha  occ. eigenvalues --   -0.74853  -0.74541  -0.73425  -0.72459  -0.71064
 Alpha  occ. eigenvalues --   -0.70325  -0.70051  -0.69994  -0.68963  -0.68241
 Alpha  occ. eigenvalues --   -0.67580  -0.67528  -0.67037  -0.66604  -0.65629
 Alpha  occ. eigenvalues --   -0.65302  -0.65062  -0.64933  -0.64627  -0.62253
 Alpha  occ. eigenvalues --   -0.61684  -0.60974  -0.60863  -0.60744  -0.60094
 Alpha  occ. eigenvalues --   -0.59406  -0.58706  -0.58481  -0.57715  -0.57549
 Alpha  occ. eigenvalues --   -0.57228  -0.56682  -0.56295  -0.56017  -0.55948
 Alpha  occ. eigenvalues --   -0.55473  -0.55197  -0.55002  -0.54723  -0.54548
 Alpha  occ. eigenvalues --   -0.54296  -0.54188  -0.53907  -0.53733  -0.53561
 Alpha  occ. eigenvalues --   -0.53410  -0.53017  -0.52884  -0.52728  -0.52591
 Alpha  occ. eigenvalues --   -0.52369  -0.52121  -0.51891  -0.51663  -0.51441
 Alpha  occ. eigenvalues --   -0.51350  -0.51039  -0.50837  -0.50631  -0.50507
 Alpha  occ. eigenvalues --   -0.50434  -0.50305  -0.50125  -0.49982  -0.49837
 Alpha  occ. eigenvalues --   -0.49693  -0.49371  -0.48982  -0.48811  -0.48428
 Alpha  occ. eigenvalues --   -0.48330  -0.48181  -0.48140  -0.47971  -0.47959
 Alpha  occ. eigenvalues --   -0.47609  -0.47278  -0.47162  -0.47047  -0.46975
 Alpha  occ. eigenvalues --   -0.46619  -0.46374  -0.46241  -0.46150  -0.45863
 Alpha  occ. eigenvalues --   -0.45692  -0.45506  -0.45415  -0.45115  -0.44888
 Alpha  occ. eigenvalues --   -0.44773  -0.44685  -0.44437  -0.44265  -0.44112
 Alpha  occ. eigenvalues --   -0.43986  -0.43803  -0.43640  -0.43617  -0.43331
 Alpha  occ. eigenvalues --   -0.43132  -0.43003  -0.42745  -0.42477  -0.42163
 Alpha  occ. eigenvalues --   -0.42074  -0.41699  -0.41309  -0.40981  -0.40845
 Alpha  occ. eigenvalues --   -0.40457  -0.40160  -0.40069  -0.39904  -0.39478
 Alpha  occ. eigenvalues --   -0.39417  -0.38915  -0.38826  -0.38500  -0.38420
 Alpha  occ. eigenvalues --   -0.38066  -0.37462  -0.37102  -0.36976  -0.36574
 Alpha  occ. eigenvalues --   -0.35557  -0.35402  -0.35255  -0.33818  -0.33226
 Alpha  occ. eigenvalues --   -0.32860  -0.32564  -0.32080  -0.32027  -0.26144
 Alpha  occ. eigenvalues --   -0.23259
 Alpha virt. eigenvalues --   -0.07134  -0.00153   0.02159   0.04061   0.04467
 Alpha virt. eigenvalues --    0.05889   0.06263   0.06763   0.07771   0.09343
 Alpha virt. eigenvalues --    0.09896   0.11049   0.11290   0.11814   0.12064

 Mulliken charges:
               1
     1  Mg   0.961796
     2  C   -0.076728
     3  C   -0.061736
     4  C   -0.073090
     5  C   -0.079330
     6  N   -0.361662
     7  C    0.022222
     8  C   -0.008808
     9  C   -0.139459
    10  C    0.051508
    11  C    0.019379
    12  C    0.066587
    13  C   -0.002524
    14  C    0.218361
    15  O   -0.273893
    16  O   -0.403358
    17  N   -0.413133
    18  C    0.111397
    19  C   -0.151406
    20  C   -0.075743
    21  C    0.149685
    22  C    0.049518
    23  C    0.053819
    24  O   -0.259151
    25  C   -0.008682
    26  N   -0.312422
    27  C    0.042354
    28  C   -0.125639
    29  C   -0.039582
    30  C    0.044229
    31  C    0.007159
    32  C    0.004042
    33  C   -0.061716
    34  N   -0.399528
    35  C    0.065548
    36  C   -0.192248
    37  C   -0.079355
    38  C    0.161424
    39  C    0.078227
    40  C    0.190721
    41  O   -0.217340
    42  C   -0.107224
    43  C    0.268358
    44  O   -0.241068
    45  O   -0.353398
    46  C    0.117542
    47  C    0.271865
    48  C   -0.166908
    49  C   -0.189464
    50  C    0.036675
    51  C    0.000200
    52  C    0.003701
    53  C    0.051630
    54  C   -0.222423
    55  C    0.005976
    56  C   -0.037327
    57  C   -0.021210
    58  C    0.020112
    59  C   -0.190357
    60  C    0.001082
    61  C    0.001156
    62  C   -0.067300
    63  C    0.041289
    64  C   -0.216113
    65  C   -0.012521
    66  C   -0.003863
    67  H    0.004576
    68  H   -0.035433
    69  H   -0.007384
    70  H    0.038757
    71  H    0.043884
    72  H    0.037832
    73  H    0.045732
    74  H    0.047800
    75  H    0.049047
    76  H    0.046306
    77  H    0.053009
    78  H    0.042178
    79  H    0.044495
    80  H    0.054969
    81  H    0.067000
    82  H    0.049023
    83  H    0.074370
    84  H    0.056690
    85  H    0.049016
    86  H    0.032076
    87  H    0.046677
    88  H    0.044458
    89  H    0.041763
    90  H    0.040577
    91  H    0.037029
    92  H    0.028401
    93  H    0.040955
    94  H    0.042801
    95  H    0.062590
    96  H    0.065237
    97  H    0.019795
    98  H    0.086714
    99  H    0.058216
   100  H    0.083015
   101  H    0.050993
   102  H    0.042213
   103  H    0.025358
   104  H    0.020531
   105  H    0.041342
   106  H    0.027862
   107  H    0.061566
   108  H    0.004467
   109  H    0.040752
   110  H    0.030140
   111  H    0.034713
   112  H    0.022004
   113  H    0.019706
   114  H    0.017160
   115  H    0.018745
   116  H    0.028508
   117  H    0.034815
   118  H    0.018262
   119  H    0.019558
   120  H    0.029405
   121  H    0.030375
   122  H    0.018314
   123  H    0.016354
   124  H    0.004972
   125  H    0.033225
   126  H    0.034756
   127  H    0.011253
   128  H    0.004416
   129  H    0.007407
   130  H    0.023435
   131  H    0.037699
   132  H    0.013992
   133  H    0.019037
   134  H    0.020671
   135  H    0.026281
   136  H    0.027989
   137  H    0.029704
   138  H    0.030968
   139  H    0.025274
   140  H    0.031752
 Sum of Mulliken charges =  -0.00000

 Dipole moment (field-independent basis, Debye):
    X=              0.3031    Y=              3.9355    Z=             -2.1513  Tot=              4.4954
 Quadrupole moment (field-independent basis, Debye-Ang):
   XX=           -361.8653   YY=           -437.6048   ZZ=           -409.7457
   XY=            -30.8313   XZ=              7.6798   YZ=            -26.3460

 Normal termination of Gaussian 16 at Fri Apr 29 04:08:57 2022.
