 Gaussian 16, Revision A.03,
 Gaussian 16:  ES64L-G16RevA.03 25-Dec-2016

 --------------------
 #p ZINDO=(nstates=5)
 --------------------

 ------------------------------
 step_1851_chromophore_23 ZINDO
 ------------------------------
 Symbolic Z-matrix:
 Charge =  0 Multiplicity = 1

                         Standard orientation:
 ---------------------------------------------------------------------
 Center     Atomic      Atomic             Coordinates (Angstroms)
 Number     Number       Type             X           Y           Z
 ---------------------------------------------------------------------
      1         12           0       -4.658460    0.149390    0.342817
      2          6           0       -3.095983   -2.901507   -0.363404
      3          6           0       -2.760666    0.399847    3.219065
      4          6           0       -5.546839    3.268743    0.523659
      5          6           0       -6.274706   -0.071447   -2.847154
      6          7           0       -3.002788   -1.065232    1.179590
      7          6           0       -2.448031   -2.220187    0.718213
      8          6           0       -1.342527   -2.728675    1.706197
      9          6           0       -1.557719   -1.914418    2.990386
     10          6           0       -2.551525   -0.761283    2.465103
     11          6           0       -2.367310   -2.497748    4.182634
     12          6           0        0.121776   -2.640117    1.076236
     13          6           0        0.917767   -3.902566    1.222940
     14          6           0        2.254544   -3.783806    2.106724
     15          8           0        2.282081   -4.022902    3.324827
     16          8           0        3.317524   -3.120769    1.398927
     17          7           0       -4.267085    1.644476    1.786102
     18          6           0       -3.500623    1.540771    2.831251
     19          6           0       -3.579710    2.750966    3.644209
     20          6           0       -4.424669    3.657426    2.936261
     21          6           0       -4.748575    2.916029    1.654998
     22          6           0       -3.080211    2.847988    5.138339
     23          6           0       -4.701623    5.094697    3.368632
     24          8           0       -4.097089    5.649166    4.320812
     25          6           0       -5.734467    5.939800    2.681169
     26          7           0       -5.588735    1.475624   -1.126088
     27          6           0       -5.934127    2.680818   -0.685214
     28          6           0       -6.817723    3.392913   -1.787327
     29          6           0       -7.100387    2.294023   -2.876643
     30          6           0       -6.283060    1.163713   -2.214305
     31          6           0       -8.130141    4.064865   -1.142097
     32          6           0       -6.811846    2.690394   -4.384795
     33          6           0       -8.078916    2.686793   -5.211628
     34          7           0       -4.858812   -1.230860   -1.240202
     35          6           0       -5.531369   -1.231024   -2.405426
     36          6           0       -5.404093   -2.542645   -3.065115
     37          6           0       -4.447371   -3.193918   -2.268521
     38          6           0       -4.116357   -2.355851   -1.216401
     39          6           0       -6.219624   -3.085607   -4.251269
     40          6           0       -3.751590   -4.509696   -2.100488
     41          8           0       -3.898643   -5.621901   -2.630866
     42          6           0       -2.671533   -4.263149   -0.998279
     43          6           0       -2.576480   -5.515521   -0.024090
     44          8           0       -3.493802   -6.197067    0.432369
     45          8           0       -1.249600   -5.827425    0.042263
     46          6           0       -0.989811   -7.075666    0.714772
     47          6           0        4.508580   -2.648378    2.130199
     48          6           0        5.732288   -2.477798    1.226910
     49          6           0        6.206643   -1.466671    0.423384
     50          6           0        5.502911   -0.112359    0.300138
     51          6           0        7.461317   -1.691095   -0.382813
     52          6           0        8.842989   -1.942612    0.275845
     53          6           0       10.048596   -1.695707   -0.705257
     54          6           0       11.079671   -0.667427   -0.234971
     55          6           0       12.441987   -1.349171    0.054310
     56          6           0       11.375144    0.550948   -1.181093
     57          6           0       10.339066    1.792973   -1.048473
     58          6           0        9.660147    2.030738   -2.432131
     59          6           0        8.058943    1.986459   -2.360406
     60          6           0        7.389861    1.307147   -3.564833
     61          6           0        7.460233    3.452347   -2.067851
     62          6           0        6.740562    3.634138   -0.649657
     63          6           0        6.565856    5.132727   -0.239633
     64          6           0        5.107155    5.541321   -0.503767
     65          6           0        4.900073    6.551566   -1.615931
     66          6           0        4.308411    6.009318    0.775939
     67          1           0       -2.210930    0.555972    4.149972
     68          1           0       -5.941559    4.282580    0.621657
     69          1           0       -6.828535   -0.264101   -3.768369
     70          1           0       -1.738580   -3.695129    2.019116
     71          1           0       -0.626423   -1.492427    3.366954
     72          1           0       -2.823266   -3.455987    3.933275
     73          1           0       -3.207085   -1.877033    4.496167
     74          1           0       -1.742174   -2.625718    5.065781
     75          1           0        0.718941   -1.788571    1.403788
     76          1           0        0.222452   -2.545601   -0.004871
     77          1           0        1.292783   -4.332244    0.295086
     78          1           0        0.345010   -4.704451    1.689397
     79          1           0       -2.015517    2.613572    5.132472
     80          1           0       -3.623494    2.145419    5.769224
     81          1           0       -3.180864    3.833332    5.592757
     82          1           0       -6.640852    5.336014    2.654845
     83          1           0       -5.371698    6.197589    1.686029
     84          1           0       -6.040161    6.824569    3.240291
     85          1           0       -6.159015    4.217265   -2.061594
     86          1           0       -8.147660    1.998866   -2.821359
     87          1           0       -8.242590    3.571906   -0.176624
     88          1           0       -8.968631    3.919272   -1.824064
     89          1           0       -7.936796    5.129810   -1.016498
     90          1           0       -6.142995    1.944979   -4.813780
     91          1           0       -6.370717    3.686847   -4.433008
     92          1           0       -8.920120    2.632785   -4.521499
     93          1           0       -8.143323    1.803242   -5.848106
     94          1           0       -8.092089    3.587330   -5.825875
     95          1           0       -6.653707   -4.006393   -3.860496
     96          1           0       -5.734826   -3.289106   -5.206114
     97          1           0       -7.042985   -2.381479   -4.375021
     98          1           0       -1.702601   -4.061229   -1.455733
     99          1           0       -0.077707   -7.396858    0.211702
    100          1           0       -1.748030   -7.858442    0.722126
    101          1           0       -0.790576   -6.761997    1.739867
    102          1           0        4.807552   -3.288238    2.960431
    103          1           0        4.251759   -1.720645    2.642008
    104          1           0        6.332964   -3.385387    1.280726
    105          1           0        6.309674    0.603392    0.456376
    106          1           0        4.810820   -0.014504    1.136663
    107          1           0        5.018947    0.145714   -0.641887
    108          1           0        7.532379   -0.913606   -1.143569
    109          1           0        7.202270   -2.585993   -0.948028
    110          1           0        8.864876   -3.007032    0.507716
    111          1           0        8.856955   -1.311539    1.165120
    112          1           0        9.710348   -1.396450   -1.697329
    113          1           0       10.572536   -2.646893   -0.796487
    114          1           0       10.865717   -0.219141    0.735095
    115          1           0       13.153082   -0.541142   -0.120362
    116          1           0       12.520720   -2.173541   -0.654318
    117          1           0       12.502838   -1.667172    1.095253
    118          1           0       11.414237    0.175600   -2.204052
    119          1           0       12.336644    1.025101   -0.981069
    120          1           0       10.994960    2.628870   -0.805655
    121          1           0        9.642382    1.556042   -0.244965
    122          1           0       10.033904    1.343090   -3.190278
    123          1           0        9.936345    3.019361   -2.799312
    124          1           0        7.783213    1.371142   -1.504209
    125          1           0        7.239957    0.258867   -3.306725
    126          1           0        7.801885    1.573443   -4.537025
    127          1           0        6.367160    1.662042   -3.697460
    128          1           0        6.713166    3.708002   -2.819033
    129          1           0        8.245298    4.165151   -2.321931
    130          1           0        7.428828    3.185602    0.065579
    131          1           0        5.830277    3.034418   -0.674478
    132          1           0        7.225207    5.785831   -0.810123
    133          1           0        6.931897    5.272183    0.778058
    134          1           0        4.592722    4.639149   -0.834990
    135          1           0        5.383322    6.287034   -2.556719
    136          1           0        5.279134    7.523849   -1.301342
    137          1           0        3.827931    6.634541   -1.796559
    138          1           0        3.555176    5.245315    0.971007
    139          1           0        3.763624    6.930417    0.569753
    140          1           0        5.015865    6.118467    1.599096
 ---------------------------------------------------------------------

 SCF Done:  E(RZINDO/S) =  -473.647003100     A.U. after   20 cycles

 Excitation energies and oscillator strengths:

 Excited State   1:      Singlet-A      1.2825 eV  966.76 nm  f=0.5892  <S**2>=0.000
     175 ->178         0.18794
     176 ->177         0.66360
 This state for optimization and/or second-order correction.
 Total Energy, E(CIS/TDA) =  -473.599872962
 Copying the excited state density for this state as the 1-particle RhoCI density.

 Excited State   2:      Singlet-A      1.8968 eV  653.66 nm  f=0.0293  <S**2>=0.000
     175 ->177         0.53821
     176 ->178        -0.42745

 Excited State   3:      Singlet-A      2.9131 eV  425.61 nm  f=0.0374  <S**2>=0.000
     168 ->177         0.25717
     168 ->178        -0.20363
     168 ->179         0.41365
     168 ->182         0.22643
     168 ->186         0.21416
     168 ->187         0.11931
     168 ->193         0.10977
     171 ->177         0.11155
     176 ->178         0.11965

 Excited State   4:      Singlet-A      2.9728 eV  417.06 nm  f=0.7560  <S**2>=0.000
     168 ->179        -0.11307
     175 ->177         0.33116
     176 ->178         0.44765
     176 ->181         0.34815

 Excited State   5:      Singlet-A      3.0784 eV  402.76 nm  f=0.0117  <S**2>=0.000
     169 ->177        -0.22106
     169 ->179         0.23792
     169 ->182        -0.31104
     169 ->183         0.13864
     169 ->186         0.18810
     169 ->187        -0.11242
     176 ->179         0.36915
     176 ->181         0.12549

 The electronic state is 1-A.
 Alpha  occ. eigenvalues --   -1.84040  -1.82340  -1.79544  -1.73001  -1.70946
 Alpha  occ. eigenvalues --   -1.66480  -1.63010  -1.59253  -1.57536  -1.57037
 Alpha  occ. eigenvalues --   -1.52909  -1.51125  -1.49036  -1.47080  -1.44868
 Alpha  occ. eigenvalues --   -1.44637  -1.43092  -1.39871  -1.38150  -1.36582
 Alpha  occ. eigenvalues --   -1.35540  -1.32764  -1.32325  -1.31210  -1.28799
 Alpha  occ. eigenvalues --   -1.28117  -1.26614  -1.23284  -1.20400  -1.17865
 Alpha  occ. eigenvalues --   -1.16489  -1.14985  -1.14561  -1.13911  -1.12701
 Alpha  occ. eigenvalues --   -1.12286  -1.09370  -1.08928  -1.04414  -1.03130
 Alpha  occ. eigenvalues --   -1.01092  -1.00624  -0.98705  -0.97096  -0.96035
 Alpha  occ. eigenvalues --   -0.95754  -0.95364  -0.95262  -0.93518  -0.92706
 Alpha  occ. eigenvalues --   -0.91568  -0.91089  -0.90167  -0.88502  -0.87507
 Alpha  occ. eigenvalues --   -0.86835  -0.84511  -0.83413  -0.82246  -0.79998
 Alpha  occ. eigenvalues --   -0.79368  -0.78369  -0.77598  -0.76532  -0.75871
 Alpha  occ. eigenvalues --   -0.75653  -0.74904  -0.73793  -0.73453  -0.73116
 Alpha  occ. eigenvalues --   -0.72861  -0.72670  -0.72308  -0.71939  -0.71391
 Alpha  occ. eigenvalues --   -0.70810  -0.69765  -0.69484  -0.68343  -0.68096
 Alpha  occ. eigenvalues --   -0.67755  -0.67115  -0.66798  -0.66272  -0.65768
 Alpha  occ. eigenvalues --   -0.65602  -0.64922  -0.64357  -0.63892  -0.63565
 Alpha  occ. eigenvalues --   -0.63308  -0.62899  -0.62723  -0.62333  -0.62246
 Alpha  occ. eigenvalues --   -0.61409  -0.61231  -0.60753  -0.60537  -0.60495
 Alpha  occ. eigenvalues --   -0.60101  -0.59825  -0.58834  -0.58489  -0.58272
 Alpha  occ. eigenvalues --   -0.58074  -0.57673  -0.57382  -0.57183  -0.56462
 Alpha  occ. eigenvalues --   -0.56110  -0.55866  -0.55638  -0.55525  -0.55252
 Alpha  occ. eigenvalues --   -0.54744  -0.54250  -0.53865  -0.53437  -0.53169
 Alpha  occ. eigenvalues --   -0.53036  -0.52840  -0.52577  -0.52213  -0.52156
 Alpha  occ. eigenvalues --   -0.51680  -0.51206  -0.51109  -0.51030  -0.50723
 Alpha  occ. eigenvalues --   -0.50629  -0.50394  -0.50074  -0.49780  -0.49446
 Alpha  occ. eigenvalues --   -0.49057  -0.48531  -0.48477  -0.48367  -0.47864
 Alpha  occ. eigenvalues --   -0.47766  -0.47564  -0.47273  -0.46843  -0.46592
 Alpha  occ. eigenvalues --   -0.46513  -0.46413  -0.46353  -0.45935  -0.45695
 Alpha  occ. eigenvalues --   -0.44973  -0.44729  -0.44538  -0.44413  -0.44316
 Alpha  occ. eigenvalues --   -0.44043  -0.43765  -0.43597  -0.42947  -0.42207
 Alpha  occ. eigenvalues --   -0.41923  -0.41755  -0.41593  -0.39429  -0.39243
 Alpha  occ. eigenvalues --   -0.38592  -0.37643  -0.36079  -0.35054  -0.34855
 Alpha  occ. eigenvalues --   -0.33816  -0.33067  -0.32508  -0.32162  -0.26912
 Alpha  occ. eigenvalues --   -0.22061
 Alpha virt. eigenvalues --   -0.08622  -0.02529  -0.00776   0.00599   0.00767
 Alpha virt. eigenvalues --    0.01137   0.02149   0.02643   0.03959   0.04130
 Alpha virt. eigenvalues --    0.05675   0.05914   0.06600   0.07314   0.07721

 Mulliken charges:
               1
     1  Mg   0.436785
     2  C   -0.051563
     3  C   -0.088897
     4  C   -0.087969
     5  C   -0.075632
     6  N   -0.293166
     7  C    0.092021
     8  C    0.015725
     9  C    0.001439
    10  C    0.139730
    11  C   -0.046531
    12  C   -0.010718
    13  C    0.013129
    14  C    0.441693
    15  O   -0.503213
    16  O   -0.283394
    17  N   -0.299722
    18  C    0.144885
    19  C    0.033181
    20  C   -0.047516
    21  C    0.124626
    22  C   -0.037743
    23  C    0.332323
    24  O   -0.532465
    25  C   -0.023364
    26  N   -0.253650
    27  C    0.147997
    28  C   -0.009276
    29  C   -0.005449
    30  C    0.110033
    31  C   -0.059767
    32  C   -0.025379
    33  C   -0.057244
    34  N   -0.310542
    35  C    0.082625
    36  C    0.000905
    37  C   -0.050693
    38  C    0.105504
    39  C   -0.039990
    40  C    0.329447
    41  O   -0.513448
    42  C    0.046129
    43  C    0.474180
    44  O   -0.496558
    45  O   -0.268057
    46  C    0.075340
    47  C    0.111310
    48  C   -0.098091
    49  C    0.008930
    50  C   -0.044153
    51  C   -0.023487
    52  C   -0.028821
    53  C   -0.028778
    54  C   -0.018055
    55  C   -0.068354
    56  C   -0.047948
    57  C   -0.046320
    58  C   -0.035990
    59  C   -0.021084
    60  C   -0.059794
    61  C   -0.048797
    62  C   -0.035701
    63  C   -0.028266
    64  C   -0.013168
    65  C   -0.049588
    66  C   -0.062418
    67  H    0.033492
    68  H    0.010682
    69  H    0.029460
    70  H    0.044541
    71  H    0.035747
    72  H    0.024378
    73  H    0.025461
    74  H    0.021885
    75  H    0.035714
    76  H    0.028348
    77  H    0.035835
    78  H    0.040583
    79  H    0.027192
    80  H    0.032806
    81  H    0.045003
    82  H    0.027606
    83  H    0.044515
    84  H    0.040363
    85  H    0.034193
    86  H    0.034680
    87  H    0.029665
    88  H    0.026655
    89  H    0.021639
    90  H    0.026704
    91  H    0.024252
    92  H    0.021310
    93  H    0.020858
    94  H    0.020991
    95  H    0.034999
    96  H    0.042021
    97  H    0.016715
    98  H    0.055690
    99  H    0.029229
   100  H    0.063486
   101  H    0.033496
   102  H    0.046942
   103  H    0.034540
   104  H    0.019513
   105  H    0.022434
   106  H    0.022150
   107  H    0.038538
   108  H    0.017442
   109  H    0.019222
   110  H    0.024044
   111  H    0.029121
   112  H    0.023279
   113  H    0.020640
   114  H    0.016938
   115  H    0.020569
   116  H    0.024752
   117  H    0.019622
   118  H    0.020484
   119  H    0.017873
   120  H    0.021959
   121  H    0.030748
   122  H    0.022858
   123  H    0.016679
   124  H    0.018101
   125  H    0.022630
   126  H    0.028363
   127  H    0.005956
   128  H    0.011119
   129  H    0.022681
   130  H    0.010312
   131  H    0.030848
   132  H    0.018367
   133  H    0.020314
   134  H    0.014306
   135  H    0.014301
   136  H    0.017175
   137  H    0.013888
   138  H    0.017511
   139  H    0.021774
   140  H    0.024637
 Sum of Mulliken charges =  -0.00000

 Dipole moment (field-independent basis, Debye):
    X=              0.2492    Y=              6.7789    Z=             -2.1859  Tot=              7.1270
 N-N= 4.421245133836D+03 E-N= 0.000000000000D+00  KE=-9.515483585289D+03
 Leave Link  601 at Fri Apr 29 04:23:04 2022, MaxMem=  6710886400 cpu:               0.7 elap:               0.0
 (Enter /sw/apps/gaussian-16.0/g16/l9999.exe)
 1\1\GINC-BP1-COMPUTE156\SP\RZINDO CIS\STO-3G\C55H74Mg1N4O6\OF15641\29-
 Apr-2022\0\\#p ZINDO=(nstates=5)\\step_1851_chromophore_23 ZINDO\\0,1\
 Mg,0,-9.157,41.095,42.309\C,0,-9.008,37.711,41.429\C,0,-6.063,41.562,4
 0.844\C,0,-9.698,44.295,42.449\C,0,-12.506,40.532,43.451\N,0,-7.822,39
 .776,41.128\C,0,-7.96,38.461,40.802\C,0,-6.707,37.961,40.004\C,0,-5.65
 ,39.057,40.204\C,0,-6.548,40.249,40.809\C,0,-4.549,38.919,41.293\C,0,-
 7.054,37.613,38.485\C,0,-6.54,36.276,38.041\C,0,-5.454,36.306,36.857\O

 Normal termination of Gaussian 16 at Fri Apr 29 04:23:04 2022.
