 Gaussian 16, Revision A.03,
 Gaussian 16:  ES64L-G16RevA.03 25-Dec-2016

 ------------------------------
 #p blyp/Def2SVP td=(nstates=5)
 ------------------------------

 ---------------------------------------------------
 step_1851_chromophore_14 TDDFT with blyp functional
 ---------------------------------------------------
 Symbolic Z-matrix:
 Charge =  0 Multiplicity = 1

                         Standard orientation:
 ---------------------------------------------------------------------
 Center     Atomic      Atomic             Coordinates (Angstroms)
 Number     Number       Type             X           Y           Z
 ---------------------------------------------------------------------
      1         12           0        5.662064    0.830923   -0.142777
      2          6           0        4.454463   -2.424918    0.535470
      3          6           0        4.126103    0.570413   -3.365651
      4          6           0        5.769830    4.101202   -0.390232
      5          6           0        6.848775    0.927489    3.222354
      6          7           0        4.501630   -0.781219   -1.325991
      7          6           0        4.104805   -1.987924   -0.778254
      8          6           0        3.083539   -2.700162   -1.713946
      9          6           0        3.336172   -1.872298   -3.039890
     10          6           0        3.991723   -0.607226   -2.598653
     11          6           0        4.172486   -2.618345   -4.132936
     12          6           0        1.641400   -2.792646   -1.175384
     13          6           0        0.945877   -4.194065   -1.279158
     14          6           0       -0.528088   -4.337740   -1.738439
     15          8           0       -1.011869   -5.216137   -2.499868
     16          8           0       -1.365662   -3.378467   -1.215581
     17          7           0        5.025348    2.121602   -1.639303
     18          6           0        4.470510    1.824419   -2.897943
     19          6           0        4.312872    3.080777   -3.647125
     20          6           0        4.765308    4.106548   -2.820948
     21          6           0        5.180854    3.506361   -1.549734
     22          6           0        3.834172    3.173857   -5.129005
     23          6           0        4.780744    5.549987   -3.292655
     24          8           0        4.317221    5.976969   -4.358763
     25          6           0        5.491808    6.635534   -2.480603
     26          7           0        6.073147    2.311715    1.263411
     27          6           0        6.197260    3.593985    0.838990
     28          6           0        6.822742    4.446775    1.983713
     29          6           0        7.271451    3.426527    3.120833
     30          6           0        6.662813    2.160502    2.539637
     31          6           0        7.924622    5.450740    1.490275
     32          6           0        6.686357    3.790582    4.521834
     33          6           0        7.660467    4.445942    5.568823
     34          7           0        5.838445   -0.567243    1.512788
     35          6           0        6.261174   -0.318524    2.869261
     36          6           0        6.051767   -1.586430    3.603831
     37          6           0        5.422770   -2.441048    2.695828
     38          6           0        5.235092   -1.788543    1.494149
     39          6           0        6.474845   -1.924063    4.995146
     40          6           0        4.822244   -3.809431    2.545384
     41          8           0        4.772635   -4.814274    3.254474
     42          6           0        4.132228   -3.714008    1.183493
     43          6           0        4.555539   -4.951122    0.480313
     44          8           0        3.861538   -5.853341    0.217716
     45          8           0        5.950905   -4.724602    0.149349
     46          6           0        6.442042   -5.762015   -0.823351
     47          6           0       -2.697067   -3.308483   -1.812124
     48          6           0       -3.483049   -2.198920   -1.139342
     49          6           0       -3.820179   -0.954825   -1.555773
     50          6           0       -3.776867   -0.476375   -2.976894
     51          6           0       -4.493604    0.053464   -0.609602
     52          6           0       -5.976402   -0.116541   -0.566143
     53          6           0       -6.538480   -0.576429    0.784838
     54          6           0       -7.984897   -0.031540    0.997714
     55          6           0       -8.222595    0.366066    2.402662
     56          6           0       -9.034821   -1.165407    0.584990
     57          6           0      -10.085821   -0.679706   -0.465029
     58          6           0      -11.523669   -1.099667   -0.028644
     59          6           0      -12.184933   -0.094547    0.937529
     60          6           0      -12.135133   -0.697263    2.348351
     61          6           0      -13.631757    0.277019    0.400581
     62          6           0      -14.399615    1.206156    1.300433
     63          6           0      -15.133603    2.309262    0.493403
     64          6           0      -16.409167    2.753458    0.986164
     65          6           0      -17.514317    1.808974    0.582269
     66          6           0      -16.604024    4.189379    0.513027
     67          1           0        3.858721    0.479249   -4.420401
     68          1           0        5.864212    5.180967   -0.522842
     69          1           0        7.341915    0.856929    4.194931
     70          1           0        3.413358   -3.728554   -1.862881
     71          1           0        2.405445   -1.682881   -3.574484
     72          1           0        3.922524   -3.669090   -3.980488
     73          1           0        5.223350   -2.522489   -3.858212
     74          1           0        4.062940   -2.239091   -5.148381
     75          1           0        0.899070   -2.050741   -1.471225
     76          1           0        1.734260   -2.610263   -0.104474
     77          1           0        1.131509   -4.537085   -0.260884
     78          1           0        1.633810   -4.621521   -2.008658
     79          1           0        3.167626    4.031707   -5.216329
     80          1           0        3.080548    2.405509   -5.303552
     81          1           0        4.679278    3.248485   -5.814530
     82          1           0        6.517097    6.284136   -2.367366
     83          1           0        4.953142    6.807599   -1.548442
     84          1           0        5.378307    7.587251   -2.999359
     85          1           0        6.009099    5.007822    2.442591
     86          1           0        8.349322    3.267399    3.116624
     87          1           0        8.050404    5.538262    0.411540
     88          1           0        8.894477    5.096005    1.842009
     89          1           0        7.680829    6.370913    2.021216
     90          1           0        6.397962    2.847899    4.986382
     91          1           0        5.927552    4.536987    4.283066
     92          1           0        7.724798    3.577562    6.224262
     93          1           0        7.137581    5.178643    6.183495
     94          1           0        8.641389    4.705639    5.171257
     95          1           0        7.514163   -2.250291    5.003954
     96          1           0        5.812862   -2.614932    5.517025
     97          1           0        6.445080   -1.004668    5.580029
     98          1           0        3.067364   -3.882620    1.345504
     99          1           0        7.002709   -5.182567   -1.557006
    100          1           0        5.565577   -6.150769   -1.341985
    101          1           0        6.980058   -6.619854   -0.418216
    102          1           0       -3.162962   -4.255274   -1.539834
    103          1           0       -2.545482   -3.138845   -2.878689
    104          1           0       -3.814451   -2.495913   -0.144864
    105          1           0       -3.384075    0.534816   -3.083855
    106          1           0       -4.794991   -0.578237   -3.350764
    107          1           0       -3.190298   -1.120109   -3.632237
    108          1           0       -4.202299    1.029020   -1.000070
    109          1           0       -3.965420   -0.025497    0.340340
    110          1           0       -6.194697   -0.872966   -1.319216
    111          1           0       -6.366865    0.843747   -0.904068
    112          1           0       -5.950442   -0.254680    1.645031
    113          1           0       -6.450853   -1.662678    0.759277
    114          1           0       -8.209129    0.852364    0.400548
    115          1           0       -9.173757    0.015480    2.802985
    116          1           0       -8.256174    1.455131    2.377214
    117          1           0       -7.501742   -0.149492    3.036430
    118          1           0       -9.361661   -1.659798    1.498930
    119          1           0       -8.556319   -2.019848    0.106401
    120          1           0       -9.855153   -1.188365   -1.401701
    121          1           0      -10.042324    0.402584   -0.580252
    122          1           0      -11.442446   -2.097854    0.402336
    123          1           0      -12.186745   -1.230143   -0.883862
    124          1           0      -11.708173    0.884917    0.958074
    125          1           0      -11.285250   -1.308050    2.653721
    126          1           0      -13.076916   -1.239622    2.430477
    127          1           0      -12.329007    0.123666    3.039001
    128          1           0      -14.292753   -0.588559    0.444537
    129          1           0      -13.678124    0.532086   -0.657796
    130          1           0      -13.802469    1.747295    2.032960
    131          1           0      -15.168584    0.601048    1.782301
    132          1           0      -15.063384    2.021803   -0.554859
    133          1           0      -14.362630    3.074268    0.395454
    134          1           0      -16.391305    2.946470    2.058907
    135          1           0      -17.770875    1.155797    1.415882
    136          1           0      -17.313602    1.201936   -0.300782
    137          1           0      -18.370090    2.434686    0.329039
    138          1           0      -15.704570    4.708248    0.181595
    139          1           0      -16.906133    4.735079    1.405708
    140          1           0      -17.389674    4.306458   -0.233110
 ---------------------------------------------------------------------

 SCF Done:  E(RB-LYP) =  -3007.33376577     A.U. after   21 cycles

 Excitation energies and oscillator strengths:

 Excited State   1:      Singlet-A      1.7616 eV  703.83 nm  f=0.0398  <S**2>=0.000
     244 -> 247        0.65705
     246 -> 247        0.25387
 This state for optimization and/or second-order correction.
 Total Energy, E(TD-HF/TD-DFT) =  -3007.26902933
 Copying the excited state density for this state as the 1-particle RhoCI density.

 Excited State   2:      Singlet-A      1.8124 eV  684.07 nm  f=0.2492  <S**2>=0.000
     244 -> 247       -0.25947
     245 -> 248        0.19950
     246 -> 247        0.63615
     246 <- 247       -0.13485

 Excited State   3:      Singlet-A      1.9662 eV  630.57 nm  f=0.0361  <S**2>=0.000
     243 -> 247        0.33026
     245 -> 247        0.57090
     246 -> 248       -0.22815

 Excited State   4:      Singlet-A      2.0305 eV  610.62 nm  f=0.0142  <S**2>=0.000
     243 -> 247        0.62253
     245 -> 247       -0.28315
     246 -> 248        0.14733

 Excited State   5:      Singlet-A      2.1710 eV  571.09 nm  f=0.0009  <S**2>=0.000
     242 -> 247        0.70430

 The electronic state is 1-A.
 Alpha  occ. eigenvalues --  -46.28108 -18.81432 -18.81239 -18.78702 -18.76308
 Alpha  occ. eigenvalues --  -18.76048 -18.75684 -14.03926 -14.03881 -14.01844
 Alpha  occ. eigenvalues --  -14.00788 -10.04185 -10.04034 -10.00220 -10.00165
 Alpha  occ. eigenvalues --   -9.97479  -9.97440  -9.97421  -9.97403  -9.97380
 Alpha  occ. eigenvalues --   -9.97196  -9.96925  -9.96181  -9.96102  -9.94962
 Alpha  occ. eigenvalues --   -9.94703  -9.94545  -9.94330  -9.94231  -9.94152
 Alpha  occ. eigenvalues --   -9.94028  -9.93986  -9.93759  -9.93677  -9.93539
 Alpha  occ. eigenvalues --   -9.93464  -9.93426  -9.93330  -9.93249  -9.93238
 Alpha  occ. eigenvalues --   -9.93143  -9.93060  -9.92990  -9.92533  -9.92518
 Alpha  occ. eigenvalues --   -9.92340  -9.92319  -9.91940  -9.91730  -9.91528
 Alpha  occ. eigenvalues --   -9.91507  -9.91441  -9.91400  -9.91287  -9.91209
 Alpha  occ. eigenvalues --   -9.91133  -9.91087  -9.90791  -9.90695  -9.90665
 Alpha  occ. eigenvalues --   -9.90541  -9.90462  -9.90322  -9.90245  -9.90218
 Alpha  occ. eigenvalues --   -9.89764  -2.92585  -1.73006  -1.72491  -1.72279
 Alpha  occ. eigenvalues --   -0.98297  -0.96717  -0.91408  -0.90977  -0.90407
 Alpha  occ. eigenvalues --   -0.87466  -0.85913  -0.85505  -0.84648  -0.84125
 Alpha  occ. eigenvalues --   -0.76297  -0.73964  -0.73721  -0.72893  -0.72750
 Alpha  occ. eigenvalues --   -0.72303  -0.71826  -0.71202  -0.70928  -0.69891
 Alpha  occ. eigenvalues --   -0.69671  -0.69325  -0.68212  -0.67607  -0.67389
 Alpha  occ. eigenvalues --   -0.66895  -0.65902  -0.65263  -0.64647  -0.64569
 Alpha  occ. eigenvalues --   -0.64324  -0.62549  -0.62360  -0.61775  -0.60723
 Alpha  occ. eigenvalues --   -0.60629  -0.60407  -0.60025  -0.59412  -0.58654
 Alpha  occ. eigenvalues --   -0.58141  -0.57759  -0.57468  -0.55551  -0.54720
 Alpha  occ. eigenvalues --   -0.53908  -0.53482  -0.53003  -0.52156  -0.51629
 Alpha  occ. eigenvalues --   -0.51590  -0.50845  -0.50622  -0.50556  -0.49956
 Alpha  occ. eigenvalues --   -0.49655  -0.48972  -0.48905  -0.48700  -0.46587
 Alpha  occ. eigenvalues --   -0.46470  -0.46220  -0.46102  -0.45580  -0.44589
 Alpha  occ. eigenvalues --   -0.43902  -0.43510  -0.43224  -0.42869  -0.42469
 Alpha  occ. eigenvalues --   -0.42149  -0.41669  -0.41632  -0.41512  -0.41347
 Alpha  occ. eigenvalues --   -0.40993  -0.40830  -0.40659  -0.40608  -0.39983
 Alpha  occ. eigenvalues --   -0.39903  -0.39826  -0.39769  -0.39675  -0.39176
 Alpha  occ. eigenvalues --   -0.39005  -0.38797  -0.38675  -0.38559  -0.38391
 Alpha  occ. eigenvalues --   -0.38319  -0.38159  -0.37894  -0.37759  -0.37632
 Alpha  occ. eigenvalues --   -0.37226  -0.37054  -0.36766  -0.36582  -0.36503
 Alpha  occ. eigenvalues --   -0.36348  -0.36292  -0.36049  -0.35997  -0.35736
 Alpha  occ. eigenvalues --   -0.35439  -0.35213  -0.35122  -0.35065  -0.34726
 Alpha  occ. eigenvalues --   -0.34382  -0.34288  -0.34242  -0.34131  -0.34046
 Alpha  occ. eigenvalues --   -0.33943  -0.33884  -0.33572  -0.33505  -0.33412
 Alpha  occ. eigenvalues --   -0.33292  -0.33074  -0.32921  -0.32606  -0.32557
 Alpha  occ. eigenvalues --   -0.32001  -0.31683  -0.31449  -0.31350  -0.31175
 Alpha  occ. eigenvalues --   -0.31054  -0.31006  -0.30819  -0.30693  -0.30580
 Alpha  occ. eigenvalues --   -0.30418  -0.30335  -0.30177  -0.30122  -0.29989
 Alpha  occ. eigenvalues --   -0.29751  -0.29571  -0.29512  -0.28983  -0.28709
 Alpha  occ. eigenvalues --   -0.28667  -0.28519  -0.28352  -0.27927  -0.27853
 Alpha  occ. eigenvalues --   -0.27792  -0.27453  -0.26811  -0.26766  -0.26713
 Alpha  occ. eigenvalues --   -0.26542  -0.26132  -0.26000  -0.25314  -0.25193
 Alpha  occ. eigenvalues --   -0.24449  -0.24244  -0.24188  -0.23951  -0.23815
 Alpha  occ. eigenvalues --   -0.23495  -0.22784  -0.22291  -0.21437  -0.21255
 Alpha  occ. eigenvalues --   -0.20332  -0.19897  -0.19233  -0.18362  -0.17776
 Alpha  occ. eigenvalues --   -0.16258
 Alpha virt. eigenvalues --   -0.11927  -0.07775  -0.06519  -0.05177  -0.03402
 Alpha virt. eigenvalues --   -0.03296  -0.02660  -0.02415  -0.02074  -0.00560
 Alpha virt. eigenvalues --    0.00444   0.01651   0.01844   0.02503   0.03021

 Mulliken charges:
               1
     1  Mg   0.692615
     2  C    0.133849
     3  C   -0.082777
     4  C   -0.046761
     5  C   -0.056843
     6  N   -0.199340
     7  C   -0.111410
     8  C    0.023269
     9  C    0.009965
    10  C    0.042734
    11  C    0.116609
    12  C    0.115347
    13  C    0.098868
    14  C    0.109844
    15  O   -0.222633
    16  O   -0.279403
    17  N   -0.326122
    18  C    0.158711
    19  C   -0.170255
    20  C    0.070128
    21  C    0.108665
    22  C    0.200554
    23  C   -0.102003
    24  O   -0.172315
    25  C    0.138557
    26  N   -0.265943
    27  C    0.054386
    28  C    0.014736
    29  C    0.025467
    30  C    0.027765
    31  C    0.131348
    32  C    0.071608
    33  C    0.069685
    34  N   -0.284262
    35  C    0.085337
    36  C   -0.182710
    37  C    0.078413
    38  C    0.034697
    39  C    0.170297
    40  C   -0.027678
    41  O   -0.125983
    42  C    0.056204
    43  C    0.085510
    44  O   -0.088904
    45  O   -0.341028
    46  C    0.202265
    47  C    0.346485
    48  C   -0.097713
    49  C   -0.180955
    50  C    0.148002
    51  C    0.139152
    52  C    0.096231
    53  C    0.116070
    54  C   -0.106712
    55  C    0.153912
    56  C    0.087327
    57  C    0.089002
    58  C    0.119920
    59  C   -0.078922
    60  C    0.127592
    61  C    0.067364
    62  C    0.089908
    63  C    0.053895
    64  C   -0.029689
    65  C    0.142474
    66  C    0.097878
    67  H   -0.054916
    68  H   -0.090709
    69  H   -0.051705
    70  H   -0.021793
    71  H   -0.033306
    72  H   -0.004943
    73  H   -0.016030
    74  H    0.010451
    75  H   -0.017795
    76  H   -0.033405
    77  H    0.030223
    78  H    0.003360
    79  H    0.000617
    80  H   -0.022870
    81  H    0.023089
    82  H    0.016305
    83  H    0.014939
    84  H   -0.013189
    85  H   -0.014624
    86  H   -0.017851
    87  H    0.004547
    88  H   -0.020742
    89  H   -0.005560
    90  H   -0.008419
    91  H   -0.015926
    92  H   -0.018016
    93  H   -0.003014
    94  H    0.005004
    95  H    0.011015
    96  H    0.012219
    97  H   -0.024442
    98  H   -0.007683
    99  H    0.012473
   100  H    0.009049
   101  H    0.029513
   102  H   -0.011637
   103  H   -0.014910
   104  H   -0.040460
   105  H   -0.002176
   106  H    0.004068
   107  H   -0.022764
   108  H   -0.043672
   109  H   -0.022764
   110  H   -0.018294
   111  H   -0.030575
   112  H   -0.037454
   113  H   -0.023537
   114  H   -0.034691
   115  H   -0.033479
   116  H   -0.013189
   117  H   -0.023823
   118  H   -0.042470
   119  H   -0.047300
   120  H   -0.030886
   121  H   -0.024123
   122  H   -0.039209
   123  H   -0.052346
   124  H   -0.036928
   125  H    0.013191
   126  H   -0.033406
   127  H   -0.030790
   128  H   -0.043780
   129  H   -0.024513
   130  H   -0.024973
   131  H   -0.041564
   132  H   -0.053054
   133  H   -0.057793
   134  H   -0.043022
   135  H   -0.010401
   136  H   -0.014161
   137  H   -0.028328
   138  H   -0.022677
   139  H   -0.029513
   140  H   -0.020749
 Sum of Mulliken charges =  -0.00000

 Dipole moment (field-independent basis, Debye):
    X=              2.1363    Y=              5.2308    Z=              0.7982  Tot=              5.7064
 Quadrupole moment (field-independent basis, Debye-Ang):
   XX=           -350.2391   YY=           -450.1210   ZZ=           -407.5041
   XY=             10.8194   XZ=              3.6872   YZ=             33.0305

 Normal termination of Gaussian 16 at Wed May  4 16:18:47 2022.
