 Gaussian 16, Revision A.03,
 Gaussian 16:  ES64L-G16RevA.03 25-Dec-2016

 -----------------------------------
 #p cam-b3lyp/Def2SVP td=(nstates=5)
 -----------------------------------

 --------------------------------------------------------
 step_1851_chromophore_14 TDDFT with cam-b3lyp functional
 --------------------------------------------------------
 Symbolic Z-matrix:
 Charge =  0 Multiplicity = 1

                         Standard orientation:
 ---------------------------------------------------------------------
 Center     Atomic      Atomic             Coordinates (Angstroms)
 Number     Number       Type             X           Y           Z
 ---------------------------------------------------------------------
      1         12           0        5.662064    0.830923   -0.142777
      2          6           0        4.454463   -2.424918    0.535470
      3          6           0        4.126103    0.570413   -3.365651
      4          6           0        5.769830    4.101202   -0.390232
      5          6           0        6.848775    0.927489    3.222354
      6          7           0        4.501630   -0.781219   -1.325991
      7          6           0        4.104805   -1.987924   -0.778254
      8          6           0        3.083539   -2.700162   -1.713946
      9          6           0        3.336172   -1.872298   -3.039890
     10          6           0        3.991723   -0.607226   -2.598653
     11          6           0        4.172486   -2.618345   -4.132936
     12          6           0        1.641400   -2.792646   -1.175384
     13          6           0        0.945877   -4.194065   -1.279158
     14          6           0       -0.528088   -4.337740   -1.738439
     15          8           0       -1.011869   -5.216137   -2.499868
     16          8           0       -1.365662   -3.378467   -1.215581
     17          7           0        5.025348    2.121602   -1.639303
     18          6           0        4.470510    1.824419   -2.897943
     19          6           0        4.312872    3.080777   -3.647125
     20          6           0        4.765308    4.106548   -2.820948
     21          6           0        5.180854    3.506361   -1.549734
     22          6           0        3.834172    3.173857   -5.129005
     23          6           0        4.780744    5.549987   -3.292655
     24          8           0        4.317221    5.976969   -4.358763
     25          6           0        5.491808    6.635534   -2.480603
     26          7           0        6.073147    2.311715    1.263411
     27          6           0        6.197260    3.593985    0.838990
     28          6           0        6.822742    4.446775    1.983713
     29          6           0        7.271451    3.426527    3.120833
     30          6           0        6.662813    2.160502    2.539637
     31          6           0        7.924622    5.450740    1.490275
     32          6           0        6.686357    3.790582    4.521834
     33          6           0        7.660467    4.445942    5.568823
     34          7           0        5.838445   -0.567243    1.512788
     35          6           0        6.261174   -0.318524    2.869261
     36          6           0        6.051767   -1.586430    3.603831
     37          6           0        5.422770   -2.441048    2.695828
     38          6           0        5.235092   -1.788543    1.494149
     39          6           0        6.474845   -1.924063    4.995146
     40          6           0        4.822244   -3.809431    2.545384
     41          8           0        4.772635   -4.814274    3.254474
     42          6           0        4.132228   -3.714008    1.183493
     43          6           0        4.555539   -4.951122    0.480313
     44          8           0        3.861538   -5.853341    0.217716
     45          8           0        5.950905   -4.724602    0.149349
     46          6           0        6.442042   -5.762015   -0.823351
     47          6           0       -2.697067   -3.308483   -1.812124
     48          6           0       -3.483049   -2.198920   -1.139342
     49          6           0       -3.820179   -0.954825   -1.555773
     50          6           0       -3.776867   -0.476375   -2.976894
     51          6           0       -4.493604    0.053464   -0.609602
     52          6           0       -5.976402   -0.116541   -0.566143
     53          6           0       -6.538480   -0.576429    0.784838
     54          6           0       -7.984897   -0.031540    0.997714
     55          6           0       -8.222595    0.366066    2.402662
     56          6           0       -9.034821   -1.165407    0.584990
     57          6           0      -10.085821   -0.679706   -0.465029
     58          6           0      -11.523669   -1.099667   -0.028644
     59          6           0      -12.184933   -0.094547    0.937529
     60          6           0      -12.135133   -0.697263    2.348351
     61          6           0      -13.631757    0.277019    0.400581
     62          6           0      -14.399615    1.206156    1.300433
     63          6           0      -15.133603    2.309262    0.493403
     64          6           0      -16.409167    2.753458    0.986164
     65          6           0      -17.514317    1.808974    0.582269
     66          6           0      -16.604024    4.189379    0.513027
     67          1           0        3.858721    0.479249   -4.420401
     68          1           0        5.864212    5.180967   -0.522842
     69          1           0        7.341915    0.856929    4.194931
     70          1           0        3.413358   -3.728554   -1.862881
     71          1           0        2.405445   -1.682881   -3.574484
     72          1           0        3.922524   -3.669090   -3.980488
     73          1           0        5.223350   -2.522489   -3.858212
     74          1           0        4.062940   -2.239091   -5.148381
     75          1           0        0.899070   -2.050741   -1.471225
     76          1           0        1.734260   -2.610263   -0.104474
     77          1           0        1.131509   -4.537085   -0.260884
     78          1           0        1.633810   -4.621521   -2.008658
     79          1           0        3.167626    4.031707   -5.216329
     80          1           0        3.080548    2.405509   -5.303552
     81          1           0        4.679278    3.248485   -5.814530
     82          1           0        6.517097    6.284136   -2.367366
     83          1           0        4.953142    6.807599   -1.548442
     84          1           0        5.378307    7.587251   -2.999359
     85          1           0        6.009099    5.007822    2.442591
     86          1           0        8.349322    3.267399    3.116624
     87          1           0        8.050404    5.538262    0.411540
     88          1           0        8.894477    5.096005    1.842009
     89          1           0        7.680829    6.370913    2.021216
     90          1           0        6.397962    2.847899    4.986382
     91          1           0        5.927552    4.536987    4.283066
     92          1           0        7.724798    3.577562    6.224262
     93          1           0        7.137581    5.178643    6.183495
     94          1           0        8.641389    4.705639    5.171257
     95          1           0        7.514163   -2.250291    5.003954
     96          1           0        5.812862   -2.614932    5.517025
     97          1           0        6.445080   -1.004668    5.580029
     98          1           0        3.067364   -3.882620    1.345504
     99          1           0        7.002709   -5.182567   -1.557006
    100          1           0        5.565577   -6.150769   -1.341985
    101          1           0        6.980058   -6.619854   -0.418216
    102          1           0       -3.162962   -4.255274   -1.539834
    103          1           0       -2.545482   -3.138845   -2.878689
    104          1           0       -3.814451   -2.495913   -0.144864
    105          1           0       -3.384075    0.534816   -3.083855
    106          1           0       -4.794991   -0.578237   -3.350764
    107          1           0       -3.190298   -1.120109   -3.632237
    108          1           0       -4.202299    1.029020   -1.000070
    109          1           0       -3.965420   -0.025497    0.340340
    110          1           0       -6.194697   -0.872966   -1.319216
    111          1           0       -6.366865    0.843747   -0.904068
    112          1           0       -5.950442   -0.254680    1.645031
    113          1           0       -6.450853   -1.662678    0.759277
    114          1           0       -8.209129    0.852364    0.400548
    115          1           0       -9.173757    0.015480    2.802985
    116          1           0       -8.256174    1.455131    2.377214
    117          1           0       -7.501742   -0.149492    3.036430
    118          1           0       -9.361661   -1.659798    1.498930
    119          1           0       -8.556319   -2.019848    0.106401
    120          1           0       -9.855153   -1.188365   -1.401701
    121          1           0      -10.042324    0.402584   -0.580252
    122          1           0      -11.442446   -2.097854    0.402336
    123          1           0      -12.186745   -1.230143   -0.883862
    124          1           0      -11.708173    0.884917    0.958074
    125          1           0      -11.285250   -1.308050    2.653721
    126          1           0      -13.076916   -1.239622    2.430477
    127          1           0      -12.329007    0.123666    3.039001
    128          1           0      -14.292753   -0.588559    0.444537
    129          1           0      -13.678124    0.532086   -0.657796
    130          1           0      -13.802469    1.747295    2.032960
    131          1           0      -15.168584    0.601048    1.782301
    132          1           0      -15.063384    2.021803   -0.554859
    133          1           0      -14.362630    3.074268    0.395454
    134          1           0      -16.391305    2.946470    2.058907
    135          1           0      -17.770875    1.155797    1.415882
    136          1           0      -17.313602    1.201936   -0.300782
    137          1           0      -18.370090    2.434686    0.329039
    138          1           0      -15.704570    4.708248    0.181595
    139          1           0      -16.906133    4.735079    1.405708
    140          1           0      -17.389674    4.306458   -0.233110
 ---------------------------------------------------------------------

 SCF Done:  E(RCAM-B3LYP) =  -3007.11876671     A.U. after   17 cycles

 Excitation energies and oscillator strengths:

 Excited State   1:      Singlet-A      1.7088 eV  725.54 nm  f=0.3551  <S**2>=0.000
     245 -> 248        0.19216
     246 -> 247        0.68229
     245 <- 248        0.10976
 This state for optimization and/or second-order correction.
 Total Energy, E(TD-HF/TD-DFT) =  -3007.05596789
 Copying the excited state density for this state as the 1-particle RhoCI density.

 Excited State   2:      Singlet-A      2.2268 eV  556.77 nm  f=0.0594  <S**2>=0.000
     245 -> 247        0.61560
     246 -> 248       -0.33572

 Excited State   3:      Singlet-A      3.2667 eV  379.54 nm  f=0.0539  <S**2>=0.000
     244 -> 247        0.62520
     245 -> 247        0.10503
     246 -> 248        0.27766

 Excited State   4:      Singlet-A      3.4403 eV  360.38 nm  f=0.5633  <S**2>=0.000
     239 -> 247        0.13988
     241 -> 247        0.24657
     242 -> 247       -0.18178
     244 -> 247       -0.22460
     245 -> 247        0.27112
     246 -> 248        0.50910

 Excited State   5:      Singlet-A      3.4954 eV  354.71 nm  f=0.0007  <S**2>=0.000
     241 -> 247        0.31633
     241 -> 249       -0.20013
     241 -> 251       -0.15693
     242 -> 247        0.41805
     242 -> 248       -0.10009
     242 -> 249       -0.26283
     242 -> 251       -0.20781

 The electronic state is 1-A.
 Alpha  occ. eigenvalues --  -46.89712 -19.24267 -19.24083 -19.21865 -19.19490
 Alpha  occ. eigenvalues --  -19.19079 -19.19028 -14.43040 -14.42646 -14.40519
 Alpha  occ. eigenvalues --  -14.39088 -10.39601 -10.39472 -10.35566 -10.35519
 Alpha  occ. eigenvalues --  -10.32192 -10.32127 -10.31827 -10.31769 -10.31583
 Alpha  occ. eigenvalues --  -10.31489 -10.31387 -10.30754 -10.30263 -10.29270
 Alpha  occ. eigenvalues --  -10.29090 -10.28766 -10.28445 -10.28400 -10.28365
 Alpha  occ. eigenvalues --  -10.28126 -10.28077 -10.27974 -10.27881 -10.27802
 Alpha  occ. eigenvalues --  -10.27669 -10.27592 -10.27394 -10.27387 -10.27206
 Alpha  occ. eigenvalues --  -10.27072 -10.26849 -10.26784 -10.26468 -10.26141
 Alpha  occ. eigenvalues --  -10.26134 -10.26032 -10.25965 -10.25451 -10.25423
 Alpha  occ. eigenvalues --  -10.25167 -10.25115 -10.25091 -10.24970 -10.24911
 Alpha  occ. eigenvalues --  -10.24852 -10.24635 -10.24367 -10.24340 -10.24320
 Alpha  occ. eigenvalues --  -10.24135 -10.24106 -10.23960 -10.23782 -10.23747
 Alpha  occ. eigenvalues --  -10.23365  -3.18084  -1.92983  -1.92556  -1.92361
 Alpha  occ. eigenvalues --   -1.16966  -1.15109  -1.09756  -1.09530  -1.08224
 Alpha  occ. eigenvalues --   -1.05270  -1.03672  -1.03172  -1.02284  -1.01602
 Alpha  occ. eigenvalues --   -0.93378  -0.90828  -0.90551  -0.89606  -0.89527
 Alpha  occ. eigenvalues --   -0.89024  -0.88584  -0.87798  -0.87509  -0.86599
 Alpha  occ. eigenvalues --   -0.86192  -0.85704  -0.84457  -0.83715  -0.83605
 Alpha  occ. eigenvalues --   -0.83009  -0.81997  -0.81338  -0.80549  -0.80342
 Alpha  occ. eigenvalues --   -0.80121  -0.78121  -0.77908  -0.77567  -0.76089
 Alpha  occ. eigenvalues --   -0.75993  -0.75735  -0.75359  -0.74705  -0.73854
 Alpha  occ. eigenvalues --   -0.73168  -0.72718  -0.72436  -0.70423  -0.69288
 Alpha  occ. eigenvalues --   -0.68545  -0.68063  -0.67628  -0.66456  -0.65788
 Alpha  occ. eigenvalues --   -0.65644  -0.65019  -0.64791  -0.64493  -0.63980
 Alpha  occ. eigenvalues --   -0.63624  -0.62883  -0.62623  -0.62381  -0.60301
 Alpha  occ. eigenvalues --   -0.60100  -0.59742  -0.59615  -0.58944  -0.58021
 Alpha  occ. eigenvalues --   -0.57303  -0.56719  -0.56570  -0.55971  -0.55728
 Alpha  occ. eigenvalues --   -0.55595  -0.54714  -0.54407  -0.54346  -0.54245
 Alpha  occ. eigenvalues --   -0.53811  -0.53662  -0.53478  -0.53228  -0.52815
 Alpha  occ. eigenvalues --   -0.52710  -0.52418  -0.52284  -0.52256  -0.51890
 Alpha  occ. eigenvalues --   -0.51650  -0.51549  -0.51220  -0.51036  -0.50858
 Alpha  occ. eigenvalues --   -0.50781  -0.50458  -0.50171  -0.50008  -0.49908
 Alpha  occ. eigenvalues --   -0.49762  -0.49570  -0.49275  -0.48827  -0.48615
 Alpha  occ. eigenvalues --   -0.48462  -0.48369  -0.48257  -0.48137  -0.47986
 Alpha  occ. eigenvalues --   -0.47810  -0.47370  -0.47194  -0.46928  -0.46654
 Alpha  occ. eigenvalues --   -0.46422  -0.46289  -0.46136  -0.46023  -0.45916
 Alpha  occ. eigenvalues --   -0.45839  -0.45724  -0.45504  -0.45218  -0.45093
 Alpha  occ. eigenvalues --   -0.44983  -0.44671  -0.44624  -0.44227  -0.44182
 Alpha  occ. eigenvalues --   -0.43618  -0.43426  -0.43067  -0.42875  -0.42746
 Alpha  occ. eigenvalues --   -0.42536  -0.42501  -0.42297  -0.42126  -0.42020
 Alpha  occ. eigenvalues --   -0.41860  -0.41794  -0.41650  -0.41430  -0.41351
 Alpha  occ. eigenvalues --   -0.41065  -0.40701  -0.40684  -0.40246  -0.39789
 Alpha  occ. eigenvalues --   -0.39721  -0.39593  -0.39395  -0.38852  -0.38823
 Alpha  occ. eigenvalues --   -0.38690  -0.38322  -0.38091  -0.37649  -0.37491
 Alpha  occ. eigenvalues --   -0.37297  -0.37165  -0.36822  -0.36798  -0.35930
 Alpha  occ. eigenvalues --   -0.35820  -0.35618  -0.34801  -0.34674  -0.34375
 Alpha  occ. eigenvalues --   -0.33531  -0.33434  -0.33026  -0.31766  -0.31186
 Alpha  occ. eigenvalues --   -0.30818  -0.30766  -0.29877  -0.29392  -0.24681
 Alpha  occ. eigenvalues --   -0.21522
 Alpha virt. eigenvalues --   -0.08957  -0.02852  -0.00040   0.01710   0.01840
 Alpha virt. eigenvalues --    0.04478   0.04732   0.04855   0.05944   0.06340
 Alpha virt. eigenvalues --    0.07503   0.07725   0.08425   0.08657   0.09290

 Mulliken charges:
               1
     1  Mg   0.820652
     2  C    0.097763
     3  C   -0.091961
     4  C   -0.078432
     5  C   -0.068676
     6  N   -0.262344
     7  C   -0.063124
     8  C   -0.026847
     9  C   -0.047889
    10  C    0.057750
    11  C    0.064751
    12  C    0.061378
    13  C    0.034450
    14  C    0.190705
    15  O   -0.265402
    16  O   -0.342532
    17  N   -0.412472
    18  C    0.164003
    19  C   -0.167976
    20  C   -0.011953
    21  C    0.148079
    22  C    0.144766
    23  C   -0.018211
    24  O   -0.212676
    25  C    0.053676
    26  N   -0.342252
    27  C    0.083520
    28  C   -0.038644
    29  C   -0.032113
    30  C    0.052724
    31  C    0.070639
    32  C    0.020926
    33  C    0.008498
    34  N   -0.366054
    35  C    0.087903
    36  C   -0.186523
    37  C    0.003436
    38  C    0.074527
    39  C    0.120174
    40  C    0.077038
    41  O   -0.165013
    42  C   -0.023965
    43  C    0.170979
    44  O   -0.127708
    45  O   -0.402913
    46  C    0.167367
    47  C    0.311518
    48  C   -0.117749
    49  C   -0.202220
    50  C    0.086044
    51  C    0.077646
    52  C    0.043082
    53  C    0.062059
    54  C   -0.162721
    55  C    0.093778
    56  C    0.037201
    57  C    0.036034
    58  C    0.062226
    59  C   -0.129395
    60  C    0.065586
    61  C    0.016272
    62  C    0.036481
    63  C   -0.000603
    64  C   -0.099049
    65  C    0.079246
    66  C    0.038603
    67  H   -0.016810
    68  H   -0.055122
    69  H   -0.018367
    70  H    0.009281
    71  H    0.002972
    72  H    0.018086
    73  H    0.008948
    74  H    0.033445
    75  H    0.016618
    76  H   -0.000008
    77  H    0.059031
    78  H    0.033443
    79  H    0.033560
    80  H    0.004723
    81  H    0.051083
    82  H    0.041632
    83  H    0.041886
    84  H    0.024438
    85  H    0.019478
    86  H    0.016140
    87  H    0.027934
    88  H    0.004691
    89  H    0.019219
    90  H    0.019951
    91  H    0.010444
    92  H    0.004838
    93  H    0.021597
    94  H    0.026765
    95  H    0.036053
    96  H    0.037775
    97  H   -0.001400
    98  H    0.032076
    99  H    0.034363
   100  H    0.031548
   101  H    0.050433
   102  H    0.019790
   103  H    0.013046
   104  H   -0.008465
   105  H    0.021963
   106  H    0.027607
   107  H    0.002152
   108  H   -0.011503
   109  H    0.008891
   110  H    0.008396
   111  H   -0.001927
   112  H   -0.007774
   113  H    0.002970
   114  H   -0.003714
   115  H   -0.009974
   116  H    0.011056
   117  H    0.001212
   118  H   -0.015882
   119  H   -0.017580
   120  H   -0.001311
   121  H    0.001549
   122  H   -0.009918
   123  H   -0.020538
   124  H   -0.008383
   125  H    0.033444
   126  H   -0.007574
   127  H   -0.005579
   128  H   -0.014879
   129  H    0.003988
   130  H    0.002074
   131  H   -0.013234
   132  H   -0.022759
   133  H   -0.026425
   134  H   -0.008550
   135  H    0.013374
   136  H    0.010402
   137  H   -0.002894
   138  H    0.003303
   139  H   -0.004593
   140  H    0.003429
 Sum of Mulliken charges =  -0.00000

 Dipole moment (field-independent basis, Debye):
    X=              2.2689    Y=              5.9300    Z=              0.1683  Tot=              6.3514
 Quadrupole moment (field-independent basis, Debye-Ang):
   XX=           -350.7241   YY=           -447.3999   ZZ=           -405.4804
   XY=             13.8253   XZ=              1.2835   YZ=             32.9717

 Normal termination of Gaussian 16 at Wed May  4 14:56:14 2022.
