 Gaussian 16, Revision A.03,
 Gaussian 16:  ES64L-G16RevA.03 25-Dec-2016

 ---------------------------------
 #p PBE1PBE/Def2SVP td=(nstates=5)
 ---------------------------------

 ------------------------------------------------------
 step_1851_chromophore_14 TDDFT with PBE1PBE functional
 ------------------------------------------------------
 Symbolic Z-matrix:
 Charge =  0 Multiplicity = 1

                         Standard orientation:
 ---------------------------------------------------------------------
 Center     Atomic      Atomic             Coordinates (Angstroms)
 Number     Number       Type             X           Y           Z
 ---------------------------------------------------------------------
      1         12           0        5.662064    0.830923   -0.142777
      2          6           0        4.454463   -2.424918    0.535470
      3          6           0        4.126103    0.570413   -3.365651
      4          6           0        5.769830    4.101202   -0.390232
      5          6           0        6.848775    0.927489    3.222354
      6          7           0        4.501630   -0.781219   -1.325991
      7          6           0        4.104805   -1.987924   -0.778254
      8          6           0        3.083539   -2.700162   -1.713946
      9          6           0        3.336172   -1.872298   -3.039890
     10          6           0        3.991723   -0.607226   -2.598653
     11          6           0        4.172486   -2.618345   -4.132936
     12          6           0        1.641400   -2.792646   -1.175384
     13          6           0        0.945877   -4.194065   -1.279158
     14          6           0       -0.528088   -4.337740   -1.738439
     15          8           0       -1.011869   -5.216137   -2.499868
     16          8           0       -1.365662   -3.378467   -1.215581
     17          7           0        5.025348    2.121602   -1.639303
     18          6           0        4.470510    1.824419   -2.897943
     19          6           0        4.312872    3.080777   -3.647125
     20          6           0        4.765308    4.106548   -2.820948
     21          6           0        5.180854    3.506361   -1.549734
     22          6           0        3.834172    3.173857   -5.129005
     23          6           0        4.780744    5.549987   -3.292655
     24          8           0        4.317221    5.976969   -4.358763
     25          6           0        5.491808    6.635534   -2.480603
     26          7           0        6.073147    2.311715    1.263411
     27          6           0        6.197260    3.593985    0.838990
     28          6           0        6.822742    4.446775    1.983713
     29          6           0        7.271451    3.426527    3.120833
     30          6           0        6.662813    2.160502    2.539637
     31          6           0        7.924622    5.450740    1.490275
     32          6           0        6.686357    3.790582    4.521834
     33          6           0        7.660467    4.445942    5.568823
     34          7           0        5.838445   -0.567243    1.512788
     35          6           0        6.261174   -0.318524    2.869261
     36          6           0        6.051767   -1.586430    3.603831
     37          6           0        5.422770   -2.441048    2.695828
     38          6           0        5.235092   -1.788543    1.494149
     39          6           0        6.474845   -1.924063    4.995146
     40          6           0        4.822244   -3.809431    2.545384
     41          8           0        4.772635   -4.814274    3.254474
     42          6           0        4.132228   -3.714008    1.183493
     43          6           0        4.555539   -4.951122    0.480313
     44          8           0        3.861538   -5.853341    0.217716
     45          8           0        5.950905   -4.724602    0.149349
     46          6           0        6.442042   -5.762015   -0.823351
     47          6           0       -2.697067   -3.308483   -1.812124
     48          6           0       -3.483049   -2.198920   -1.139342
     49          6           0       -3.820179   -0.954825   -1.555773
     50          6           0       -3.776867   -0.476375   -2.976894
     51          6           0       -4.493604    0.053464   -0.609602
     52          6           0       -5.976402   -0.116541   -0.566143
     53          6           0       -6.538480   -0.576429    0.784838
     54          6           0       -7.984897   -0.031540    0.997714
     55          6           0       -8.222595    0.366066    2.402662
     56          6           0       -9.034821   -1.165407    0.584990
     57          6           0      -10.085821   -0.679706   -0.465029
     58          6           0      -11.523669   -1.099667   -0.028644
     59          6           0      -12.184933   -0.094547    0.937529
     60          6           0      -12.135133   -0.697263    2.348351
     61          6           0      -13.631757    0.277019    0.400581
     62          6           0      -14.399615    1.206156    1.300433
     63          6           0      -15.133603    2.309262    0.493403
     64          6           0      -16.409167    2.753458    0.986164
     65          6           0      -17.514317    1.808974    0.582269
     66          6           0      -16.604024    4.189379    0.513027
     67          1           0        3.858721    0.479249   -4.420401
     68          1           0        5.864212    5.180967   -0.522842
     69          1           0        7.341915    0.856929    4.194931
     70          1           0        3.413358   -3.728554   -1.862881
     71          1           0        2.405445   -1.682881   -3.574484
     72          1           0        3.922524   -3.669090   -3.980488
     73          1           0        5.223350   -2.522489   -3.858212
     74          1           0        4.062940   -2.239091   -5.148381
     75          1           0        0.899070   -2.050741   -1.471225
     76          1           0        1.734260   -2.610263   -0.104474
     77          1           0        1.131509   -4.537085   -0.260884
     78          1           0        1.633810   -4.621521   -2.008658
     79          1           0        3.167626    4.031707   -5.216329
     80          1           0        3.080548    2.405509   -5.303552
     81          1           0        4.679278    3.248485   -5.814530
     82          1           0        6.517097    6.284136   -2.367366
     83          1           0        4.953142    6.807599   -1.548442
     84          1           0        5.378307    7.587251   -2.999359
     85          1           0        6.009099    5.007822    2.442591
     86          1           0        8.349322    3.267399    3.116624
     87          1           0        8.050404    5.538262    0.411540
     88          1           0        8.894477    5.096005    1.842009
     89          1           0        7.680829    6.370913    2.021216
     90          1           0        6.397962    2.847899    4.986382
     91          1           0        5.927552    4.536987    4.283066
     92          1           0        7.724798    3.577562    6.224262
     93          1           0        7.137581    5.178643    6.183495
     94          1           0        8.641389    4.705639    5.171257
     95          1           0        7.514163   -2.250291    5.003954
     96          1           0        5.812862   -2.614932    5.517025
     97          1           0        6.445080   -1.004668    5.580029
     98          1           0        3.067364   -3.882620    1.345504
     99          1           0        7.002709   -5.182567   -1.557006
    100          1           0        5.565577   -6.150769   -1.341985
    101          1           0        6.980058   -6.619854   -0.418216
    102          1           0       -3.162962   -4.255274   -1.539834
    103          1           0       -2.545482   -3.138845   -2.878689
    104          1           0       -3.814451   -2.495913   -0.144864
    105          1           0       -3.384075    0.534816   -3.083855
    106          1           0       -4.794991   -0.578237   -3.350764
    107          1           0       -3.190298   -1.120109   -3.632237
    108          1           0       -4.202299    1.029020   -1.000070
    109          1           0       -3.965420   -0.025497    0.340340
    110          1           0       -6.194697   -0.872966   -1.319216
    111          1           0       -6.366865    0.843747   -0.904068
    112          1           0       -5.950442   -0.254680    1.645031
    113          1           0       -6.450853   -1.662678    0.759277
    114          1           0       -8.209129    0.852364    0.400548
    115          1           0       -9.173757    0.015480    2.802985
    116          1           0       -8.256174    1.455131    2.377214
    117          1           0       -7.501742   -0.149492    3.036430
    118          1           0       -9.361661   -1.659798    1.498930
    119          1           0       -8.556319   -2.019848    0.106401
    120          1           0       -9.855153   -1.188365   -1.401701
    121          1           0      -10.042324    0.402584   -0.580252
    122          1           0      -11.442446   -2.097854    0.402336
    123          1           0      -12.186745   -1.230143   -0.883862
    124          1           0      -11.708173    0.884917    0.958074
    125          1           0      -11.285250   -1.308050    2.653721
    126          1           0      -13.076916   -1.239622    2.430477
    127          1           0      -12.329007    0.123666    3.039001
    128          1           0      -14.292753   -0.588559    0.444537
    129          1           0      -13.678124    0.532086   -0.657796
    130          1           0      -13.802469    1.747295    2.032960
    131          1           0      -15.168584    0.601048    1.782301
    132          1           0      -15.063384    2.021803   -0.554859
    133          1           0      -14.362630    3.074268    0.395454
    134          1           0      -16.391305    2.946470    2.058907
    135          1           0      -17.770875    1.155797    1.415882
    136          1           0      -17.313602    1.201936   -0.300782
    137          1           0      -18.370090    2.434686    0.329039
    138          1           0      -15.704570    4.708248    0.181595
    139          1           0      -16.906133    4.735079    1.405708
    140          1           0      -17.389674    4.306458   -0.233110
 ---------------------------------------------------------------------

 SCF Done:  E(RPBE1PBE) =  -3005.30775151     A.U. after   15 cycles

 Excitation energies and oscillator strengths:

 Excited State   1:      Singlet-A      1.8563 eV  667.91 nm  f=0.3450  <S**2>=0.000
     245 -> 248        0.18771
     246 -> 247        0.68886
     246 <- 247       -0.10143
 This state for optimization and/or second-order correction.
 Total Energy, E(TD-HF/TD-DFT) =  -3005.23953320
 Copying the excited state density for this state as the 1-particle RhoCI density.

 Excited State   2:      Singlet-A      2.2197 eV  558.57 nm  f=0.0637  <S**2>=0.000
     245 -> 247        0.63217
     246 -> 248       -0.30249

 Excited State   3:      Singlet-A      2.9258 eV  423.76 nm  f=0.0006  <S**2>=0.000
     243 -> 247        0.57649
     244 -> 247       -0.34539
     246 -> 248        0.17502

 Excited State   4:      Singlet-A      2.9497 eV  420.33 nm  f=0.0000  <S**2>=0.000
     242 -> 247        0.66862
     242 -> 249        0.16860
     242 -> 250       -0.11791

 Excited State   5:      Singlet-A      3.1027 eV  399.60 nm  f=0.0005  <S**2>=0.000
     241 -> 247        0.67309
     241 -> 249       -0.15570

 The electronic state is 1-A.
 Alpha  occ. eigenvalues --  -46.93118 -19.24980 -19.24781 -19.22061 -19.19796
 Alpha  occ. eigenvalues --  -19.19377 -19.19194 -14.42455 -14.42276 -14.40111
 Alpha  occ. eigenvalues --  -14.38871 -10.36688 -10.36514 -10.32774 -10.32613
 Alpha  occ. eigenvalues --  -10.29757 -10.29743 -10.29682 -10.29564 -10.29176
 Alpha  occ. eigenvalues --  -10.28864 -10.28617 -10.28254 -10.28239 -10.26934
 Alpha  occ. eigenvalues --  -10.26694 -10.26591 -10.26353 -10.26142 -10.26113
 Alpha  occ. eigenvalues --  -10.26031 -10.25973 -10.25410 -10.25395 -10.25394
 Alpha  occ. eigenvalues --  -10.25327 -10.25318 -10.25102 -10.25055 -10.24926
 Alpha  occ. eigenvalues --  -10.24702 -10.24296 -10.24250 -10.23753 -10.23634
 Alpha  occ. eigenvalues --  -10.23601 -10.23371 -10.23334 -10.23134 -10.22977
 Alpha  occ. eigenvalues --  -10.22954 -10.22830 -10.22703 -10.22503 -10.22490
 Alpha  occ. eigenvalues --  -10.22392 -10.22248 -10.21969 -10.21900 -10.21691
 Alpha  occ. eigenvalues --  -10.21658 -10.21521 -10.21476 -10.21186 -10.21124
 Alpha  occ. eigenvalues --  -10.20898  -3.15074  -1.87910  -1.87464  -1.87271
 Alpha  occ. eigenvalues --   -1.11724  -1.09944  -1.04561  -1.04136  -1.03078
 Alpha  occ. eigenvalues --   -1.00150  -0.98221  -0.97752  -0.96879  -0.96282
 Alpha  occ. eigenvalues --   -0.87813  -0.84946  -0.84666  -0.83915  -0.83754
 Alpha  occ. eigenvalues --   -0.83128  -0.82843  -0.81918  -0.81821  -0.80784
 Alpha  occ. eigenvalues --   -0.80602  -0.79978  -0.78640  -0.78062  -0.77814
 Alpha  occ. eigenvalues --   -0.77196  -0.76246  -0.75487  -0.74807  -0.74702
 Alpha  occ. eigenvalues --   -0.74283  -0.72473  -0.72204  -0.71724  -0.70367
 Alpha  occ. eigenvalues --   -0.70087  -0.69908  -0.69682  -0.68823  -0.68037
 Alpha  occ. eigenvalues --   -0.67516  -0.67153  -0.66881  -0.64722  -0.63686
 Alpha  occ. eigenvalues --   -0.62990  -0.62271  -0.62030  -0.60686  -0.60258
 Alpha  occ. eigenvalues --   -0.60086  -0.59491  -0.59110  -0.58973  -0.58119
 Alpha  occ. eigenvalues --   -0.57775  -0.57169  -0.57043  -0.56927  -0.54799
 Alpha  occ. eigenvalues --   -0.54603  -0.54322  -0.54013  -0.53588  -0.52690
 Alpha  occ. eigenvalues --   -0.51669  -0.51299  -0.51042  -0.50407  -0.50330
 Alpha  occ. eigenvalues --   -0.50108  -0.49284  -0.48959  -0.48803  -0.48680
 Alpha  occ. eigenvalues --   -0.48402  -0.48176  -0.48041  -0.47706  -0.47308
 Alpha  occ. eigenvalues --   -0.47049  -0.46962  -0.46881  -0.46684  -0.46495
 Alpha  occ. eigenvalues --   -0.46278  -0.46116  -0.45720  -0.45567  -0.45396
 Alpha  occ. eigenvalues --   -0.45318  -0.44960  -0.44777  -0.44697  -0.44474
 Alpha  occ. eigenvalues --   -0.44402  -0.44162  -0.43876  -0.43473  -0.43253
 Alpha  occ. eigenvalues --   -0.43070  -0.42991  -0.42847  -0.42751  -0.42639
 Alpha  occ. eigenvalues --   -0.42494  -0.42065  -0.41849  -0.41546  -0.41396
 Alpha  occ. eigenvalues --   -0.41103  -0.40925  -0.40870  -0.40605  -0.40563
 Alpha  occ. eigenvalues --   -0.40472  -0.40416  -0.40211  -0.40076  -0.39933
 Alpha  occ. eigenvalues --   -0.39647  -0.39392  -0.39325  -0.39042  -0.38985
 Alpha  occ. eigenvalues --   -0.38456  -0.38153  -0.37908  -0.37666  -0.37468
 Alpha  occ. eigenvalues --   -0.37282  -0.37269  -0.37063  -0.36920  -0.36799
 Alpha  occ. eigenvalues --   -0.36689  -0.36566  -0.36487  -0.36328  -0.36065
 Alpha  occ. eigenvalues --   -0.35976  -0.35540  -0.35439  -0.35108  -0.34631
 Alpha  occ. eigenvalues --   -0.34526  -0.34460  -0.34171  -0.33843  -0.33742
 Alpha  occ. eigenvalues --   -0.33446  -0.33098  -0.33052  -0.32527  -0.32410
 Alpha  occ. eigenvalues --   -0.32192  -0.32093  -0.31749  -0.31655  -0.30789
 Alpha  occ. eigenvalues --   -0.30769  -0.30594  -0.30025  -0.29582  -0.29179
 Alpha  occ. eigenvalues --   -0.29093  -0.28291  -0.27997  -0.27331  -0.26340
 Alpha  occ. eigenvalues --   -0.26150  -0.25418  -0.25175  -0.25146  -0.21557
 Alpha  occ. eigenvalues --   -0.19180
 Alpha virt. eigenvalues --   -0.11492  -0.06266  -0.04229  -0.02597  -0.01101
 Alpha virt. eigenvalues --   -0.00137   0.00326   0.00371   0.01190   0.02410
 Alpha virt. eigenvalues --    0.03403   0.04348   0.04693   0.05255   0.06066

 Mulliken charges:
               1
     1  Mg   0.962596
     2  C    0.060434
     3  C   -0.081479
     4  C   -0.078162
     5  C   -0.065173
     6  N   -0.363407
     7  C    0.026017
     8  C   -0.102132
     9  C   -0.126805
    10  C    0.098425
    11  C    0.009074
    12  C    0.018353
    13  C   -0.045201
    14  C    0.251265
    15  O   -0.296775
    16  O   -0.370772
    17  N   -0.522797
    18  C    0.178999
    19  C   -0.184092
    20  C   -0.069041
    21  C    0.179105
    22  C    0.085059
    23  C    0.037293
    24  O   -0.248160
    25  C   -0.028091
    26  N   -0.443255
    27  C    0.116347
    28  C   -0.110261
    29  C   -0.109849
    30  C    0.088389
    31  C    0.010624
    32  C   -0.039198
    33  C   -0.062326
    34  N   -0.479007
    35  C    0.111000
    36  C   -0.209127
    37  C   -0.040895
    38  C    0.137210
    39  C    0.068659
    40  C    0.173749
    41  O   -0.211873
    42  C   -0.139506
    43  C    0.258651
    44  O   -0.166935
    45  O   -0.425474
    46  C    0.112991
    47  C    0.267462
    48  C   -0.124718
    49  C   -0.252182
    50  C    0.024459
    51  C    0.017749
    52  C   -0.019096
    53  C    0.006792
    54  C   -0.251096
    55  C    0.032101
    56  C   -0.007027
    57  C   -0.031729
    58  C    0.005227
    59  C   -0.212262
    60  C    0.002354
    61  C   -0.035344
    62  C   -0.026059
    63  C   -0.051679
    64  C   -0.202771
    65  C    0.021379
    66  C   -0.018403
    67  H    0.013282
    68  H   -0.016896
    69  H    0.013807
    70  H    0.050000
    71  H    0.040709
    72  H    0.045776
    73  H    0.037454
    74  H    0.059844
    75  H    0.048658
    76  H    0.035626
    77  H    0.091293
    78  H    0.065885
    79  H    0.060112
    80  H    0.030646
    81  H    0.077247
    82  H    0.068539
    83  H    0.067334
    84  H    0.052602
    85  H    0.056505
    86  H    0.052237
    87  H    0.054293
    88  H    0.032352
    89  H    0.046726
    90  H    0.052486
    91  H    0.042938
    92  H    0.032680
    93  H    0.049878
    94  H    0.053694
    95  H    0.064910
    96  H    0.065191
    97  H    0.026930
    98  H    0.071814
    99  H    0.056323
   100  H    0.052363
   101  H    0.071917
   102  H    0.047333
   103  H    0.040007
   104  H    0.021880
   105  H    0.048668
   106  H    0.055537
   107  H    0.030559
   108  H    0.022083
   109  H    0.040508
   110  H    0.042366
   111  H    0.029870
   112  H    0.024289
   113  H    0.035019
   114  H    0.032410
   115  H    0.022200
   116  H    0.038569
   117  H    0.028359
   118  H    0.015037
   119  H    0.015191
   120  H    0.031842
   121  H    0.033211
   122  H    0.023416
   123  H    0.012298
   124  H    0.029547
   125  H    0.058686
   126  H    0.022203
   127  H    0.022925
   128  H    0.018544
   129  H    0.034458
   130  H    0.033894
   131  H    0.020977
   132  H    0.010089
   133  H    0.007481
   134  H    0.029629
   135  H    0.040364
   136  H    0.037096
   137  H    0.025023
   138  H    0.030197
   139  H    0.023005
   140  H    0.030476
 Sum of Mulliken charges =  -0.00000

 Dipole moment (field-independent basis, Debye):
    X=              2.3323    Y=              5.7815    Z=              0.5458  Tot=              6.2580
 Quadrupole moment (field-independent basis, Debye-Ang):
   XX=           -345.4036   YY=           -444.8549   ZZ=           -401.2807
   XY=             13.3874   XZ=              4.0376   YZ=             34.1163

 Normal termination of Gaussian 16 at Wed May  4 15:17:21 2022.
