 Gaussian 16, Revision A.03,
 Gaussian 16:  ES64L-G16RevA.03 25-Dec-2016

 --------------------------------
 #p wB97XD/Def2SVP td=(nstates=5)
 --------------------------------

 -----------------------------------------------------
 step_1851_chromophore_14 TDDFT with wB97XD functional
 -----------------------------------------------------
 Symbolic Z-matrix:
 Charge =  0 Multiplicity = 1

                         Standard orientation:
 ---------------------------------------------------------------------
 Center     Atomic      Atomic             Coordinates (Angstroms)
 Number     Number       Type             X           Y           Z
 ---------------------------------------------------------------------
      1         12           0        5.662064    0.830923   -0.142777
      2          6           0        4.454463   -2.424918    0.535470
      3          6           0        4.126103    0.570413   -3.365651
      4          6           0        5.769830    4.101202   -0.390232
      5          6           0        6.848775    0.927489    3.222354
      6          7           0        4.501630   -0.781219   -1.325991
      7          6           0        4.104805   -1.987924   -0.778254
      8          6           0        3.083539   -2.700162   -1.713946
      9          6           0        3.336172   -1.872298   -3.039890
     10          6           0        3.991723   -0.607226   -2.598653
     11          6           0        4.172486   -2.618345   -4.132936
     12          6           0        1.641400   -2.792646   -1.175384
     13          6           0        0.945877   -4.194065   -1.279158
     14          6           0       -0.528088   -4.337740   -1.738439
     15          8           0       -1.011869   -5.216137   -2.499868
     16          8           0       -1.365662   -3.378467   -1.215581
     17          7           0        5.025348    2.121602   -1.639303
     18          6           0        4.470510    1.824419   -2.897943
     19          6           0        4.312872    3.080777   -3.647125
     20          6           0        4.765308    4.106548   -2.820948
     21          6           0        5.180854    3.506361   -1.549734
     22          6           0        3.834172    3.173857   -5.129005
     23          6           0        4.780744    5.549987   -3.292655
     24          8           0        4.317221    5.976969   -4.358763
     25          6           0        5.491808    6.635534   -2.480603
     26          7           0        6.073147    2.311715    1.263411
     27          6           0        6.197260    3.593985    0.838990
     28          6           0        6.822742    4.446775    1.983713
     29          6           0        7.271451    3.426527    3.120833
     30          6           0        6.662813    2.160502    2.539637
     31          6           0        7.924622    5.450740    1.490275
     32          6           0        6.686357    3.790582    4.521834
     33          6           0        7.660467    4.445942    5.568823
     34          7           0        5.838445   -0.567243    1.512788
     35          6           0        6.261174   -0.318524    2.869261
     36          6           0        6.051767   -1.586430    3.603831
     37          6           0        5.422770   -2.441048    2.695828
     38          6           0        5.235092   -1.788543    1.494149
     39          6           0        6.474845   -1.924063    4.995146
     40          6           0        4.822244   -3.809431    2.545384
     41          8           0        4.772635   -4.814274    3.254474
     42          6           0        4.132228   -3.714008    1.183493
     43          6           0        4.555539   -4.951122    0.480313
     44          8           0        3.861538   -5.853341    0.217716
     45          8           0        5.950905   -4.724602    0.149349
     46          6           0        6.442042   -5.762015   -0.823351
     47          6           0       -2.697067   -3.308483   -1.812124
     48          6           0       -3.483049   -2.198920   -1.139342
     49          6           0       -3.820179   -0.954825   -1.555773
     50          6           0       -3.776867   -0.476375   -2.976894
     51          6           0       -4.493604    0.053464   -0.609602
     52          6           0       -5.976402   -0.116541   -0.566143
     53          6           0       -6.538480   -0.576429    0.784838
     54          6           0       -7.984897   -0.031540    0.997714
     55          6           0       -8.222595    0.366066    2.402662
     56          6           0       -9.034821   -1.165407    0.584990
     57          6           0      -10.085821   -0.679706   -0.465029
     58          6           0      -11.523669   -1.099667   -0.028644
     59          6           0      -12.184933   -0.094547    0.937529
     60          6           0      -12.135133   -0.697263    2.348351
     61          6           0      -13.631757    0.277019    0.400581
     62          6           0      -14.399615    1.206156    1.300433
     63          6           0      -15.133603    2.309262    0.493403
     64          6           0      -16.409167    2.753458    0.986164
     65          6           0      -17.514317    1.808974    0.582269
     66          6           0      -16.604024    4.189379    0.513027
     67          1           0        3.858721    0.479249   -4.420401
     68          1           0        5.864212    5.180967   -0.522842
     69          1           0        7.341915    0.856929    4.194931
     70          1           0        3.413358   -3.728554   -1.862881
     71          1           0        2.405445   -1.682881   -3.574484
     72          1           0        3.922524   -3.669090   -3.980488
     73          1           0        5.223350   -2.522489   -3.858212
     74          1           0        4.062940   -2.239091   -5.148381
     75          1           0        0.899070   -2.050741   -1.471225
     76          1           0        1.734260   -2.610263   -0.104474
     77          1           0        1.131509   -4.537085   -0.260884
     78          1           0        1.633810   -4.621521   -2.008658
     79          1           0        3.167626    4.031707   -5.216329
     80          1           0        3.080548    2.405509   -5.303552
     81          1           0        4.679278    3.248485   -5.814530
     82          1           0        6.517097    6.284136   -2.367366
     83          1           0        4.953142    6.807599   -1.548442
     84          1           0        5.378307    7.587251   -2.999359
     85          1           0        6.009099    5.007822    2.442591
     86          1           0        8.349322    3.267399    3.116624
     87          1           0        8.050404    5.538262    0.411540
     88          1           0        8.894477    5.096005    1.842009
     89          1           0        7.680829    6.370913    2.021216
     90          1           0        6.397962    2.847899    4.986382
     91          1           0        5.927552    4.536987    4.283066
     92          1           0        7.724798    3.577562    6.224262
     93          1           0        7.137581    5.178643    6.183495
     94          1           0        8.641389    4.705639    5.171257
     95          1           0        7.514163   -2.250291    5.003954
     96          1           0        5.812862   -2.614932    5.517025
     97          1           0        6.445080   -1.004668    5.580029
     98          1           0        3.067364   -3.882620    1.345504
     99          1           0        7.002709   -5.182567   -1.557006
    100          1           0        5.565577   -6.150769   -1.341985
    101          1           0        6.980058   -6.619854   -0.418216
    102          1           0       -3.162962   -4.255274   -1.539834
    103          1           0       -2.545482   -3.138845   -2.878689
    104          1           0       -3.814451   -2.495913   -0.144864
    105          1           0       -3.384075    0.534816   -3.083855
    106          1           0       -4.794991   -0.578237   -3.350764
    107          1           0       -3.190298   -1.120109   -3.632237
    108          1           0       -4.202299    1.029020   -1.000070
    109          1           0       -3.965420   -0.025497    0.340340
    110          1           0       -6.194697   -0.872966   -1.319216
    111          1           0       -6.366865    0.843747   -0.904068
    112          1           0       -5.950442   -0.254680    1.645031
    113          1           0       -6.450853   -1.662678    0.759277
    114          1           0       -8.209129    0.852364    0.400548
    115          1           0       -9.173757    0.015480    2.802985
    116          1           0       -8.256174    1.455131    2.377214
    117          1           0       -7.501742   -0.149492    3.036430
    118          1           0       -9.361661   -1.659798    1.498930
    119          1           0       -8.556319   -2.019848    0.106401
    120          1           0       -9.855153   -1.188365   -1.401701
    121          1           0      -10.042324    0.402584   -0.580252
    122          1           0      -11.442446   -2.097854    0.402336
    123          1           0      -12.186745   -1.230143   -0.883862
    124          1           0      -11.708173    0.884917    0.958074
    125          1           0      -11.285250   -1.308050    2.653721
    126          1           0      -13.076916   -1.239622    2.430477
    127          1           0      -12.329007    0.123666    3.039001
    128          1           0      -14.292753   -0.588559    0.444537
    129          1           0      -13.678124    0.532086   -0.657796
    130          1           0      -13.802469    1.747295    2.032960
    131          1           0      -15.168584    0.601048    1.782301
    132          1           0      -15.063384    2.021803   -0.554859
    133          1           0      -14.362630    3.074268    0.395454
    134          1           0      -16.391305    2.946470    2.058907
    135          1           0      -17.770875    1.155797    1.415882
    136          1           0      -17.313602    1.201936   -0.300782
    137          1           0      -18.370090    2.434686    0.329039
    138          1           0      -15.704570    4.708248    0.181595
    139          1           0      -16.906133    4.735079    1.405708
    140          1           0      -17.389674    4.306458   -0.233110
 ---------------------------------------------------------------------

 SCF Done:  E(RwB97XD) =  -3007.81530149     A.U. after   17 cycles

 Excitation energies and oscillator strengths:

 Excited State   1:      Singlet-A      1.6556 eV  748.90 nm  f=0.3541  <S**2>=0.000
     245 -> 248        0.19675
     246 -> 247        0.68022
     245 <- 248        0.11869
 This state for optimization and/or second-order correction.
 Total Energy, E(TD-HF/TD-DFT) =  -3007.75446110
 Copying the excited state density for this state as the 1-particle RhoCI density.

 Excited State   2:      Singlet-A      2.1748 eV  570.09 nm  f=0.0583  <S**2>=0.000
     245 -> 247        0.61413
     246 -> 248       -0.33625

 Excited State   3:      Singlet-A      3.2881 eV  377.07 nm  f=0.0709  <S**2>=0.000
     244 -> 247        0.60681
     245 -> 247        0.11744
     246 -> 248        0.29922

 Excited State   4:      Singlet-A      3.4501 eV  359.36 nm  f=0.5228  <S**2>=0.000
     239 -> 247        0.14790
     241 -> 247        0.34223
     244 -> 247       -0.22857
     245 -> 247        0.25412
     246 -> 248        0.48802

 Excited State   5:      Singlet-A      3.5028 eV  353.96 nm  f=0.0009  <S**2>=0.000
     242 -> 247        0.50371
     242 -> 248       -0.12146
     242 -> 249        0.35978
     242 -> 250       -0.26616

 The electronic state is 1-A.
 Alpha  occ. eigenvalues --  -46.96052 -19.29489 -19.29336 -19.26754 -19.24517
 Alpha  occ. eigenvalues --  -19.24138 -19.24016 -14.47677 -14.47229 -14.45171
 Alpha  occ. eigenvalues --  -14.43693 -10.43450 -10.43321 -10.39577 -10.39529
 Alpha  occ. eigenvalues --  -10.36271 -10.36264 -10.35838 -10.35782 -10.35641
 Alpha  occ. eigenvalues --  -10.35382 -10.35106 -10.34854 -10.34260 -10.33489
 Alpha  occ. eigenvalues --  -10.33173 -10.32824 -10.32545 -10.32487 -10.32411
 Alpha  occ. eigenvalues --  -10.32126 -10.32063 -10.32053 -10.32016 -10.31719
 Alpha  occ. eigenvalues --  -10.31694 -10.31586 -10.31463 -10.31384 -10.31153
 Alpha  occ. eigenvalues --  -10.31032 -10.30728 -10.30665 -10.30452 -10.30040
 Alpha  occ. eigenvalues --  -10.29958 -10.29850 -10.29798 -10.29424 -10.29354
 Alpha  occ. eigenvalues --  -10.29094 -10.29088 -10.29082 -10.28880 -10.28848
 Alpha  occ. eigenvalues --  -10.28760 -10.28538 -10.28315 -10.28268 -10.28119
 Alpha  occ. eigenvalues --  -10.28016 -10.27984 -10.27860 -10.27592 -10.27552
 Alpha  occ. eigenvalues --  -10.27266  -3.21895  -1.95476  -1.95030  -1.94834
 Alpha  occ. eigenvalues --   -1.19087  -1.17310  -1.11962  -1.11771  -1.10419
 Alpha  occ. eigenvalues --   -1.07489  -1.05673  -1.05169  -1.04340  -1.03624
 Alpha  occ. eigenvalues --   -0.95353  -0.92616  -0.92304  -0.91492  -0.91377
 Alpha  occ. eigenvalues --   -0.90794  -0.90534  -0.89574  -0.89429  -0.88625
 Alpha  occ. eigenvalues --   -0.88105  -0.87593  -0.86301  -0.85618  -0.85481
 Alpha  occ. eigenvalues --   -0.84854  -0.83928  -0.83254  -0.82448  -0.82297
 Alpha  occ. eigenvalues --   -0.81946  -0.80052  -0.79814  -0.79519  -0.77999
 Alpha  occ. eigenvalues --   -0.77771  -0.77576  -0.77315  -0.76507  -0.75688
 Alpha  occ. eigenvalues --   -0.75095  -0.74695  -0.74416  -0.72361  -0.71215
 Alpha  occ. eigenvalues --   -0.70538  -0.69915  -0.69660  -0.68318  -0.67757
 Alpha  occ. eigenvalues --   -0.67554  -0.67034  -0.66623  -0.66505  -0.65788
 Alpha  occ. eigenvalues --   -0.65423  -0.64699  -0.64624  -0.64358  -0.62333
 Alpha  occ. eigenvalues --   -0.62064  -0.61708  -0.61528  -0.60946  -0.60016
 Alpha  occ. eigenvalues --   -0.59166  -0.58661  -0.58522  -0.57876  -0.57682
 Alpha  occ. eigenvalues --   -0.57579  -0.56648  -0.56306  -0.56217  -0.56111
 Alpha  occ. eigenvalues --   -0.55708  -0.55552  -0.55415  -0.55108  -0.54773
 Alpha  occ. eigenvalues --   -0.54633  -0.54329  -0.54213  -0.54099  -0.53837
 Alpha  occ. eigenvalues --   -0.53584  -0.53481  -0.53098  -0.52975  -0.52784
 Alpha  occ. eigenvalues --   -0.52664  -0.52324  -0.52090  -0.51906  -0.51792
 Alpha  occ. eigenvalues --   -0.51695  -0.51538  -0.51169  -0.50730  -0.50525
 Alpha  occ. eigenvalues --   -0.50410  -0.50289  -0.50129  -0.50080  -0.49904
 Alpha  occ. eigenvalues --   -0.49724  -0.49334  -0.49085  -0.48787  -0.48572
 Alpha  occ. eigenvalues --   -0.48349  -0.48228  -0.48044  -0.47868  -0.47806
 Alpha  occ. eigenvalues --   -0.47756  -0.47619  -0.47444  -0.47157  -0.46982
 Alpha  occ. eigenvalues --   -0.46841  -0.46572  -0.46505  -0.46182  -0.46116
 Alpha  occ. eigenvalues --   -0.45569  -0.45346  -0.45012  -0.44827  -0.44650
 Alpha  occ. eigenvalues --   -0.44440  -0.44405  -0.44206  -0.44106  -0.43889
 Alpha  occ. eigenvalues --   -0.43813  -0.43672  -0.43590  -0.43321  -0.43186
 Alpha  occ. eigenvalues --   -0.42986  -0.42606  -0.42533  -0.42148  -0.41668
 Alpha  occ. eigenvalues --   -0.41562  -0.41481  -0.41246  -0.40746  -0.40729
 Alpha  occ. eigenvalues --   -0.40517  -0.40131  -0.40028  -0.39576  -0.39483
 Alpha  occ. eigenvalues --   -0.39150  -0.39119  -0.38817  -0.38646  -0.37813
 Alpha  occ. eigenvalues --   -0.37767  -0.37657  -0.36813  -0.36511  -0.36209
 Alpha  occ. eigenvalues --   -0.35722  -0.35386  -0.34859  -0.33991  -0.33142
 Alpha  occ. eigenvalues --   -0.33027  -0.32740  -0.31884  -0.31511  -0.26617
 Alpha  occ. eigenvalues --   -0.23324
 Alpha virt. eigenvalues --   -0.07298  -0.00947   0.02056   0.03946   0.04857
 Alpha virt. eigenvalues --    0.06733   0.07029   0.07096   0.08080   0.09002
 Alpha virt. eigenvalues --    0.10065   0.10913   0.11304   0.12042   0.12836

 Mulliken charges:
               1
     1  Mg   0.954011
     2  C    0.073279
     3  C   -0.098958
     4  C   -0.091135
     5  C   -0.081418
     6  N   -0.328085
     7  C   -0.015850
     8  C   -0.067157
     9  C   -0.101598
    10  C    0.080490
    11  C    0.018808
    12  C    0.023509
    13  C   -0.024386
    14  C    0.244006
    15  O   -0.295119
    16  O   -0.370776
    17  N   -0.494034
    18  C    0.176806
    19  C   -0.178664
    20  C   -0.062240
    21  C    0.176634
    22  C    0.098495
    23  C    0.031548
    24  O   -0.242937
    25  C   -0.011510
    26  N   -0.415759
    27  C    0.110481
    28  C   -0.086755
    29  C   -0.084749
    30  C    0.078500
    31  C    0.022874
    32  C   -0.021826
    33  C   -0.047626
    34  N   -0.446090
    35  C    0.100589
    36  C   -0.205680
    37  C   -0.038046
    38  C    0.112429
    39  C    0.079312
    40  C    0.155127
    41  O   -0.202639
    42  C   -0.094270
    43  C    0.236637
    44  O   -0.161006
    45  O   -0.428811
    46  C    0.129925
    47  C    0.282312
    48  C   -0.138071
    49  C   -0.231061
    50  C    0.036438
    51  C    0.032793
    52  C   -0.003005
    53  C    0.023262
    54  C   -0.218247
    55  C    0.046320
    56  C    0.002307
    57  C   -0.011546
    58  C    0.022217
    59  C   -0.184152
    60  C    0.016794
    61  C   -0.019772
    62  C   -0.011585
    63  C   -0.033270
    64  C   -0.170402
    65  C    0.029694
    66  C   -0.008180
    67  H    0.009427
    68  H   -0.034257
    69  H    0.007818
    70  H    0.028987
    71  H    0.031826
    72  H    0.039836
    73  H    0.030478
    74  H    0.055544
    75  H    0.042563
    76  H    0.024561
    77  H    0.084886
    78  H    0.058344
    79  H    0.056840
    80  H    0.026095
    81  H    0.075262
    82  H    0.062190
    83  H    0.063120
    84  H    0.051785
    85  H    0.044891
    86  H    0.041512
    87  H    0.047831
    88  H    0.026422
    89  H    0.041759
    90  H    0.042634
    91  H    0.033801
    92  H    0.026025
    93  H    0.044662
    94  H    0.048008
    95  H    0.059089
    96  H    0.060986
    97  H    0.019196
    98  H    0.061911
    99  H    0.052495
   100  H    0.046805
   101  H    0.068429
   102  H    0.043357
   103  H    0.033731
   104  H    0.018505
   105  H    0.043698
   106  H    0.049262
   107  H    0.024130
   108  H    0.014428
   109  H    0.033088
   110  H    0.030434
   111  H    0.022457
   112  H    0.014440
   113  H    0.025757
   114  H    0.018195
   115  H    0.010852
   116  H    0.034121
   117  H    0.022408
   118  H    0.003050
   119  H    0.006521
   120  H    0.025346
   121  H    0.022902
   122  H    0.013614
   123  H    0.004693
   124  H    0.015571
   125  H    0.051646
   126  H    0.014508
   127  H    0.016160
   128  H    0.008365
   129  H    0.025253
   130  H    0.024874
   131  H    0.010869
   132  H   -0.001893
   133  H   -0.002833
   134  H    0.019909
   135  H    0.035226
   136  H    0.031378
   137  H    0.018753
   138  H    0.024329
   139  H    0.017541
   140  H    0.024415
 Sum of Mulliken charges =  -0.00000

 Dipole moment (field-independent basis, Debye):
    X=              2.3060    Y=              6.0948    Z=              0.0399  Tot=              6.5166
 Quadrupole moment (field-independent basis, Debye-Ang):
   XX=           -346.0933   YY=           -443.6388   ZZ=           -401.0427
   XY=             14.4550   XZ=              1.1320   YZ=             33.1075

 Normal termination of Gaussian 16 at Wed May  4 16:00:29 2022.
