 Gaussian 16, Revision A.03,
 Gaussian 16:  ES64L-G16RevA.03 25-Dec-2016

 --------------------
 #p ZINDO=(nstates=5)
 --------------------

 ------------------------------
 step_1851_chromophore_14 ZINDO
 ------------------------------
 Symbolic Z-matrix:
 Charge =  0 Multiplicity = 1

                         Standard orientation:
 ---------------------------------------------------------------------
 Center     Atomic      Atomic             Coordinates (Angstroms)
 Number     Number       Type             X           Y           Z
 ---------------------------------------------------------------------
      1         12           0        5.662064    0.830923   -0.142777
      2          6           0        4.454463   -2.424918    0.535470
      3          6           0        4.126103    0.570413   -3.365651
      4          6           0        5.769830    4.101202   -0.390232
      5          6           0        6.848775    0.927489    3.222354
      6          7           0        4.501630   -0.781219   -1.325991
      7          6           0        4.104805   -1.987924   -0.778254
      8          6           0        3.083539   -2.700162   -1.713946
      9          6           0        3.336172   -1.872298   -3.039890
     10          6           0        3.991723   -0.607226   -2.598653
     11          6           0        4.172486   -2.618345   -4.132936
     12          6           0        1.641400   -2.792646   -1.175384
     13          6           0        0.945877   -4.194065   -1.279158
     14          6           0       -0.528088   -4.337740   -1.738439
     15          8           0       -1.011869   -5.216137   -2.499868
     16          8           0       -1.365662   -3.378467   -1.215581
     17          7           0        5.025348    2.121602   -1.639303
     18          6           0        4.470510    1.824419   -2.897943
     19          6           0        4.312872    3.080777   -3.647125
     20          6           0        4.765308    4.106548   -2.820948
     21          6           0        5.180854    3.506361   -1.549734
     22          6           0        3.834172    3.173857   -5.129005
     23          6           0        4.780744    5.549987   -3.292655
     24          8           0        4.317221    5.976969   -4.358763
     25          6           0        5.491808    6.635534   -2.480603
     26          7           0        6.073147    2.311715    1.263411
     27          6           0        6.197260    3.593985    0.838990
     28          6           0        6.822742    4.446775    1.983713
     29          6           0        7.271451    3.426527    3.120833
     30          6           0        6.662813    2.160502    2.539637
     31          6           0        7.924622    5.450740    1.490275
     32          6           0        6.686357    3.790582    4.521834
     33          6           0        7.660467    4.445942    5.568823
     34          7           0        5.838445   -0.567243    1.512788
     35          6           0        6.261174   -0.318524    2.869261
     36          6           0        6.051767   -1.586430    3.603831
     37          6           0        5.422770   -2.441048    2.695828
     38          6           0        5.235092   -1.788543    1.494149
     39          6           0        6.474845   -1.924063    4.995146
     40          6           0        4.822244   -3.809431    2.545384
     41          8           0        4.772635   -4.814274    3.254474
     42          6           0        4.132228   -3.714008    1.183493
     43          6           0        4.555539   -4.951122    0.480313
     44          8           0        3.861538   -5.853341    0.217716
     45          8           0        5.950905   -4.724602    0.149349
     46          6           0        6.442042   -5.762015   -0.823351
     47          6           0       -2.697067   -3.308483   -1.812124
     48          6           0       -3.483049   -2.198920   -1.139342
     49          6           0       -3.820179   -0.954825   -1.555773
     50          6           0       -3.776867   -0.476375   -2.976894
     51          6           0       -4.493604    0.053464   -0.609602
     52          6           0       -5.976402   -0.116541   -0.566143
     53          6           0       -6.538480   -0.576429    0.784838
     54          6           0       -7.984897   -0.031540    0.997714
     55          6           0       -8.222595    0.366066    2.402662
     56          6           0       -9.034821   -1.165407    0.584990
     57          6           0      -10.085821   -0.679706   -0.465029
     58          6           0      -11.523669   -1.099667   -0.028644
     59          6           0      -12.184933   -0.094547    0.937529
     60          6           0      -12.135133   -0.697263    2.348351
     61          6           0      -13.631757    0.277019    0.400581
     62          6           0      -14.399615    1.206156    1.300433
     63          6           0      -15.133603    2.309262    0.493403
     64          6           0      -16.409167    2.753458    0.986164
     65          6           0      -17.514317    1.808974    0.582269
     66          6           0      -16.604024    4.189379    0.513027
     67          1           0        3.858721    0.479249   -4.420401
     68          1           0        5.864212    5.180967   -0.522842
     69          1           0        7.341915    0.856929    4.194931
     70          1           0        3.413358   -3.728554   -1.862881
     71          1           0        2.405445   -1.682881   -3.574484
     72          1           0        3.922524   -3.669090   -3.980488
     73          1           0        5.223350   -2.522489   -3.858212
     74          1           0        4.062940   -2.239091   -5.148381
     75          1           0        0.899070   -2.050741   -1.471225
     76          1           0        1.734260   -2.610263   -0.104474
     77          1           0        1.131509   -4.537085   -0.260884
     78          1           0        1.633810   -4.621521   -2.008658
     79          1           0        3.167626    4.031707   -5.216329
     80          1           0        3.080548    2.405509   -5.303552
     81          1           0        4.679278    3.248485   -5.814530
     82          1           0        6.517097    6.284136   -2.367366
     83          1           0        4.953142    6.807599   -1.548442
     84          1           0        5.378307    7.587251   -2.999359
     85          1           0        6.009099    5.007822    2.442591
     86          1           0        8.349322    3.267399    3.116624
     87          1           0        8.050404    5.538262    0.411540
     88          1           0        8.894477    5.096005    1.842009
     89          1           0        7.680829    6.370913    2.021216
     90          1           0        6.397962    2.847899    4.986382
     91          1           0        5.927552    4.536987    4.283066
     92          1           0        7.724798    3.577562    6.224262
     93          1           0        7.137581    5.178643    6.183495
     94          1           0        8.641389    4.705639    5.171257
     95          1           0        7.514163   -2.250291    5.003954
     96          1           0        5.812862   -2.614932    5.517025
     97          1           0        6.445080   -1.004668    5.580029
     98          1           0        3.067364   -3.882620    1.345504
     99          1           0        7.002709   -5.182567   -1.557006
    100          1           0        5.565577   -6.150769   -1.341985
    101          1           0        6.980058   -6.619854   -0.418216
    102          1           0       -3.162962   -4.255274   -1.539834
    103          1           0       -2.545482   -3.138845   -2.878689
    104          1           0       -3.814451   -2.495913   -0.144864
    105          1           0       -3.384075    0.534816   -3.083855
    106          1           0       -4.794991   -0.578237   -3.350764
    107          1           0       -3.190298   -1.120109   -3.632237
    108          1           0       -4.202299    1.029020   -1.000070
    109          1           0       -3.965420   -0.025497    0.340340
    110          1           0       -6.194697   -0.872966   -1.319216
    111          1           0       -6.366865    0.843747   -0.904068
    112          1           0       -5.950442   -0.254680    1.645031
    113          1           0       -6.450853   -1.662678    0.759277
    114          1           0       -8.209129    0.852364    0.400548
    115          1           0       -9.173757    0.015480    2.802985
    116          1           0       -8.256174    1.455131    2.377214
    117          1           0       -7.501742   -0.149492    3.036430
    118          1           0       -9.361661   -1.659798    1.498930
    119          1           0       -8.556319   -2.019848    0.106401
    120          1           0       -9.855153   -1.188365   -1.401701
    121          1           0      -10.042324    0.402584   -0.580252
    122          1           0      -11.442446   -2.097854    0.402336
    123          1           0      -12.186745   -1.230143   -0.883862
    124          1           0      -11.708173    0.884917    0.958074
    125          1           0      -11.285250   -1.308050    2.653721
    126          1           0      -13.076916   -1.239622    2.430477
    127          1           0      -12.329007    0.123666    3.039001
    128          1           0      -14.292753   -0.588559    0.444537
    129          1           0      -13.678124    0.532086   -0.657796
    130          1           0      -13.802469    1.747295    2.032960
    131          1           0      -15.168584    0.601048    1.782301
    132          1           0      -15.063384    2.021803   -0.554859
    133          1           0      -14.362630    3.074268    0.395454
    134          1           0      -16.391305    2.946470    2.058907
    135          1           0      -17.770875    1.155797    1.415882
    136          1           0      -17.313602    1.201936   -0.300782
    137          1           0      -18.370090    2.434686    0.329039
    138          1           0      -15.704570    4.708248    0.181595
    139          1           0      -16.906133    4.735079    1.405708
    140          1           0      -17.389674    4.306458   -0.233110
 ---------------------------------------------------------------------

 SCF Done:  E(RZINDO/S) =  -474.067685031     A.U. after   19 cycles

 Excitation energies and oscillator strengths:

 Excited State   1:      Singlet-A      1.2776 eV  970.45 nm  f=0.5569  <S**2>=0.000
     175 ->178         0.18541
     176 ->177         0.66532
 This state for optimization and/or second-order correction.
 Total Energy, E(CIS/TDA) =  -474.020734469
 Copying the excited state density for this state as the 1-particle RhoCI density.

 Excited State   2:      Singlet-A      1.9081 eV  649.76 nm  f=0.0028  <S**2>=0.000
     175 ->177         0.49605
     176 ->178        -0.47983

 Excited State   3:      Singlet-A      2.8712 eV  431.83 nm  f=0.0006  <S**2>=0.000
     168 ->177         0.28176
     168 ->178        -0.13142
     168 ->179        -0.44104
     168 ->181         0.30145
     168 ->184        -0.12445
     168 ->185         0.21504
     168 ->193         0.12605

 Excited State   4:      Singlet-A      2.9846 eV  415.42 nm  f=1.0613  <S**2>=0.000
     173 ->177        -0.12363
     175 ->177         0.42640
     176 ->178         0.45329
     176 ->179        -0.19926
     176 ->181        -0.11986

 Excited State   5:      Singlet-A      3.0388 eV  408.01 nm  f=0.1793  <S**2>=0.000
     175 ->177         0.13557
     176 ->178         0.15602
     176 ->179         0.48160
     176 ->180         0.29669
     176 ->181         0.19928

 The electronic state is 1-A.
 Alpha  occ. eigenvalues --   -1.82427  -1.79405  -1.78400  -1.72244  -1.71532
 Alpha  occ. eigenvalues --   -1.69492  -1.66531  -1.63498  -1.59273  -1.57623
 Alpha  occ. eigenvalues --   -1.56340  -1.52008  -1.49492  -1.48470  -1.47247
 Alpha  occ. eigenvalues --   -1.45416  -1.42828  -1.39756  -1.39461  -1.37812
 Alpha  occ. eigenvalues --   -1.35947  -1.33244  -1.32294  -1.31628  -1.28202
 Alpha  occ. eigenvalues --   -1.28072  -1.26855  -1.22800  -1.20862  -1.18019
 Alpha  occ. eigenvalues --   -1.17008  -1.15655  -1.14163  -1.13930  -1.13505
 Alpha  occ. eigenvalues --   -1.12703  -1.10429  -1.09246  -1.04519  -1.03766
 Alpha  occ. eigenvalues --   -1.02089  -1.01048  -0.98422  -0.98143  -0.96608
 Alpha  occ. eigenvalues --   -0.95025  -0.94913  -0.94524  -0.93884  -0.92197
 Alpha  occ. eigenvalues --   -0.91320  -0.90664  -0.89029  -0.88039  -0.87984
 Alpha  occ. eigenvalues --   -0.86179  -0.84380  -0.83109  -0.82655  -0.80842
 Alpha  occ. eigenvalues --   -0.80118  -0.79454  -0.77459  -0.77317  -0.76878
 Alpha  occ. eigenvalues --   -0.76369  -0.75716  -0.74934  -0.73847  -0.73654
 Alpha  occ. eigenvalues --   -0.73453  -0.72096  -0.71950  -0.71336  -0.70906
 Alpha  occ. eigenvalues --   -0.70707  -0.69549  -0.69321  -0.68626  -0.68239
 Alpha  occ. eigenvalues --   -0.67836  -0.67585  -0.67057  -0.66608  -0.66005
 Alpha  occ. eigenvalues --   -0.65295  -0.65206  -0.64690  -0.64148  -0.63568
 Alpha  occ. eigenvalues --   -0.63128  -0.62856  -0.62410  -0.62301  -0.61947
 Alpha  occ. eigenvalues --   -0.61659  -0.60804  -0.60742  -0.60269  -0.60193
 Alpha  occ. eigenvalues --   -0.59770  -0.59402  -0.58818  -0.58744  -0.57951
 Alpha  occ. eigenvalues --   -0.57900  -0.57643  -0.57459  -0.56877  -0.56662
 Alpha  occ. eigenvalues --   -0.56495  -0.56239  -0.55644  -0.55586  -0.55135
 Alpha  occ. eigenvalues --   -0.54763  -0.53685  -0.53107  -0.52874  -0.52686
 Alpha  occ. eigenvalues --   -0.52272  -0.51839  -0.51690  -0.51537  -0.51287
 Alpha  occ. eigenvalues --   -0.51231  -0.51138  -0.50886  -0.50649  -0.50394
 Alpha  occ. eigenvalues --   -0.50336  -0.50096  -0.49668  -0.49444  -0.49048
 Alpha  occ. eigenvalues --   -0.48751  -0.48613  -0.48163  -0.47922  -0.47545
 Alpha  occ. eigenvalues --   -0.47289  -0.47146  -0.46983  -0.46863  -0.46546
 Alpha  occ. eigenvalues --   -0.46301  -0.45876  -0.45666  -0.45579  -0.45429
 Alpha  occ. eigenvalues --   -0.45023  -0.44697  -0.44462  -0.43947  -0.43912
 Alpha  occ. eigenvalues --   -0.43360  -0.43314  -0.43097  -0.43029  -0.42355
 Alpha  occ. eigenvalues --   -0.41387  -0.40898  -0.40288  -0.39347  -0.38907
 Alpha  occ. eigenvalues --   -0.38531  -0.37732  -0.35831  -0.35171  -0.34954
 Alpha  occ. eigenvalues --   -0.34784  -0.32846  -0.32174  -0.31785  -0.27437
 Alpha  occ. eigenvalues --   -0.22103
 Alpha virt. eigenvalues --   -0.08686  -0.03093  -0.00862   0.00831   0.00939
 Alpha virt. eigenvalues --    0.01508   0.01875   0.03396   0.04289   0.04777
 Alpha virt. eigenvalues --    0.05713   0.06079   0.06895   0.07293   0.07598

 Mulliken charges:
               1
     1  Mg   0.435981
     2  C   -0.020111
     3  C   -0.059557
     4  C   -0.100347
     5  C   -0.061753
     6  N   -0.284384
     7  C    0.084865
     8  C    0.007667
     9  C    0.010134
    10  C    0.161026
    11  C   -0.050529
    12  C   -0.027642
    13  C   -0.004551
    14  C    0.465229
    15  O   -0.523268
    16  O   -0.270205
    17  N   -0.344695
    18  C    0.124231
    19  C    0.048513
    20  C   -0.033748
    21  C    0.148332
    22  C   -0.041837
    23  C    0.321222
    24  O   -0.524242
    25  C   -0.031320
    26  N   -0.275828
    27  C    0.166146
    28  C   -0.002971
    29  C   -0.002086
    30  C    0.093891
    31  C   -0.057574
    32  C   -0.038265
    33  C   -0.073495
    34  N   -0.348867
    35  C    0.061115
    36  C    0.016793
    37  C   -0.051467
    38  C    0.105677
    39  C   -0.035607
    40  C    0.332315
    41  O   -0.514262
    42  C    0.058251
    43  C    0.490998
    44  O   -0.486348
    45  O   -0.294499
    46  C    0.065128
    47  C    0.111783
    48  C   -0.103580
    49  C    0.003066
    50  C   -0.039928
    51  C   -0.021300
    52  C   -0.023807
    53  C   -0.029900
    54  C   -0.016102
    55  C   -0.058025
    56  C   -0.048391
    57  C   -0.034455
    58  C   -0.035635
    59  C   -0.007886
    60  C   -0.059676
    61  C   -0.039792
    62  C   -0.041507
    63  C   -0.032377
    64  C    0.008479
    65  C   -0.049886
    66  C   -0.062194
    67  H    0.032457
    68  H    0.019339
    69  H    0.030398
    70  H    0.035135
    71  H    0.022461
    72  H    0.027136
    73  H    0.018306
    74  H    0.031911
    75  H    0.030732
    76  H    0.014783
    77  H    0.061676
    78  H    0.045066
    79  H    0.039887
    80  H    0.023817
    81  H    0.052240
    82  H    0.041360
    83  H    0.035532
    84  H    0.039066
    85  H    0.035432
    86  H    0.039074
    87  H    0.031185
    88  H    0.017699
    89  H    0.023332
    90  H    0.034948
    91  H    0.028553
    92  H    0.014856
    93  H    0.027526
    94  H    0.033594
    95  H    0.036535
    96  H    0.036072
    97  H    0.012081
    98  H    0.052092
    99  H    0.029924
   100  H    0.038988
   101  H    0.054931
   102  H    0.052582
   103  H    0.048751
   104  H    0.022436
   105  H    0.026921
   106  H    0.032198
   107  H    0.015630
   108  H    0.012789
   109  H    0.021324
   110  H    0.022848
   111  H    0.018036
   112  H    0.018462
   113  H    0.024968
   114  H    0.024625
   115  H    0.012262
   116  H    0.021156
   117  H    0.023545
   118  H    0.026835
   119  H    0.007380
   120  H    0.017938
   121  H    0.025130
   122  H    0.018295
   123  H    0.010838
   124  H    0.020454
   125  H    0.035943
   126  H    0.014973
   127  H    0.008659
   128  H    0.008222
   129  H    0.026929
   130  H    0.021476
   131  H    0.015426
   132  H    0.015835
   133  H   -0.000166
   134  H    0.022502
   135  H    0.018302
   136  H    0.023425
   137  H    0.013655
   138  H    0.019378
   139  H    0.006885
   140  H    0.018079
 Sum of Mulliken charges =  -0.00000

 Dipole moment (field-independent basis, Debye):
    X=              3.1248    Y=              8.7940    Z=             -1.0065  Tot=              9.3868
 N-N= 4.243334303390D+03 E-N= 0.000000000000D+00  KE=-9.160316129741D+03
 Leave Link  601 at Wed May  4 16:18:54 2022, MaxMem=  6710886400 cpu:               0.7 elap:               0.0
 (Enter /sw/apps/gaussian-16.0/g16/l9999.exe)
 1\1\GINC-BP1-COMPUTE135\SP\RZINDO CIS\STO-3G\C55H74Mg1N4O6\OF15641\04-
 May-2022\0\\#p ZINDO=(nstates=5)\\step_1851_chromophore_14 ZINDO\\0,1\
 Mg,0,47.547,45.188,43.472\C,0,44.135,45.048,42.546\C,0,47.794,41.745,4
 2.524\C,0,50.801,45.547,43.248\C,0,47.084,48.676,44.073\N,0,46.107,43.
 547,42.711\C,0,44.789,43.791,42.369\C,0,44.192,42.574,41.602\C,0,45.27
 9,41.484,41.973\C,0,46.483,42.254,42.4\C,0,44.829,40.447,43.056\C,0,43
 .881,42.816,40.111\C,0,42.475,42.341,39.605\C,0,42.305,41.603,38.252\O

 Normal termination of Gaussian 16 at Wed May  4 16:18:54 2022.
