 Gaussian 16, Revision A.03,
 Gaussian 16:  ES64L-G16RevA.03 25-Dec-2016

 ------------------------------
 #p blyp/Def2SVP td=(nstates=5)
 ------------------------------

 --------------------------------------------------
 step_451_chromophore_20 TDDFT with blyp functional
 --------------------------------------------------
 Symbolic Z-matrix:
 Charge =  0 Multiplicity = 1

                         Standard orientation:
 ---------------------------------------------------------------------
 Center     Atomic      Atomic             Coordinates (Angstroms)
 Number     Number       Type             X           Y           Z
 ---------------------------------------------------------------------
      1         12           0        3.871878   -1.354968    0.686401
      2          6           0        3.816146    2.212851    0.854575
      3          6           0        1.548443   -1.393988    3.200375
      4          6           0        3.478762   -4.502360   -0.018694
      5          6           0        6.458187   -1.041831   -1.789273
      6          7           0        2.619525    0.207641    1.675309
      7          6           0        2.779248    1.614444    1.630282
      8          6           0        1.866806    2.320168    2.613856
      9          6           0        1.517186    1.158988    3.539966
     10          6           0        1.962890   -0.119311    2.793709
     11          6           0        1.893284    1.289763    4.994546
     12          6           0        0.670111    3.014459    1.888536
     13          6           0        0.432583    4.388734    2.360306
     14          6           0       -1.040181    4.830487    2.414918
     15          8           0       -1.652703    5.088031    3.427956
     16          8           0       -1.701428    4.684412    1.167132
     17          7           0        2.688080   -2.746981    1.417994
     18          6           0        1.750854   -2.580369    2.434511
     19          6           0        1.043089   -3.842975    2.696016
     20          6           0        1.494383   -4.778484    1.722009
     21          6           0        2.618833   -4.028348    0.987042
     22          6           0        0.062564   -4.003302    3.719039
     23          6           0        1.018344   -6.153875    1.525536
     24          8           0        0.112136   -6.577948    2.230408
     25          6           0        1.532682   -7.111577    0.483942
     26          7           0        4.825960   -2.535801   -0.741466
     27          6           0        4.481286   -3.812714   -0.778819
     28          6           0        5.317147   -4.602655   -1.769925
     29          6           0        6.329348   -3.586052   -2.222499
     30          6           0        5.865971   -2.311808   -1.492062
     31          6           0        5.855961   -5.955818   -1.188288
     32          6           0        6.337627   -3.472971   -3.765497
     33          6           0        7.812440   -3.224838   -4.365571
     34          7           0        4.982980    0.205844   -0.280463
     35          6           0        5.937118    0.185540   -1.366146
     36          6           0        6.504233    1.560839   -1.448902
     37          6           0        5.697974    2.372643   -0.632950
     38          6           0        4.777703    1.558872    0.056483
     39          6           0        7.720148    1.966860   -2.279955
     40          6           0        5.412645    3.693051   -0.193156
     41          8           0        6.084734    4.716861   -0.279504
     42          6           0        4.078435    3.718465    0.664643
     43          6           0        3.081934    4.414395   -0.100792
     44          8           0        2.536294    3.983663   -1.089761
     45          8           0        2.913187    5.687077    0.273086
     46          6           0        1.977434    6.496654   -0.595539
     47          6           0       -3.026135    5.254072    1.127415
     48          6           0       -3.780600    4.839419   -0.112818
     49          6           0       -3.803321    5.340420   -1.398354
     50          6           0       -2.861381    6.407531   -1.913078
     51          6           0       -4.765771    4.857220   -2.475332
     52          6           0       -4.818239    3.322258   -2.648634
     53          6           0       -6.010303    2.715030   -2.017314
     54          6           0       -6.465270    1.537171   -2.884014
     55          6           0       -7.794293    1.731164   -3.664062
     56          6           0       -6.550231    0.303830   -2.024757
     57          6           0       -6.194886   -0.968191   -2.820802
     58          6           0       -7.394855   -1.924835   -2.978681
     59          6           0       -7.199246   -3.253627   -2.163817
     60          6           0       -6.865791   -4.424223   -3.162430
     61          6           0       -8.213041   -3.530554   -0.972593
     62          6           0       -7.900630   -2.897645    0.410323
     63          6           0       -9.012855   -2.070055    0.967292
     64          6           0      -10.037805   -2.894971    1.848715
     65          6           0      -11.544848   -2.864206    1.348135
     66          6           0       -9.961535   -2.477985    3.354251
     67          1           0        0.954468   -1.432701    4.115402
     68          1           0        3.416288   -5.520139   -0.406568
     69          1           0        7.337689   -1.007877   -2.436502
     70          1           0        2.398679    3.132702    3.108303
     71          1           0        0.428204    1.122706    3.507221
     72          1           0        1.012336    1.734680    5.457990
     73          1           0        2.774531    1.924235    5.088892
     74          1           0        2.149469    0.335049    5.455380
     75          1           0       -0.219148    2.446249    2.161208
     76          1           0        0.979582    3.104644    0.847024
     77          1           0        0.895914    5.053405    1.631920
     78          1           0        0.911057    4.484692    3.334640
     79          1           0       -0.940214   -3.648230    3.481456
     80          1           0        0.348612   -3.340439    4.535010
     81          1           0        0.050271   -4.999825    4.159467
     82          1           0        2.603524   -7.242726    0.641757
     83          1           0        1.406065   -6.557987   -0.446464
     84          1           0        0.938684   -8.020042    0.375983
     85          1           0        4.589540   -4.795504   -2.558810
     86          1           0        7.341176   -3.816056   -1.888520
     87          1           0        5.229227   -6.793006   -1.494077
     88          1           0        5.853445   -5.842378   -0.104253
     89          1           0        6.858811   -6.121108   -1.581767
     90          1           0        5.674905   -2.669542   -4.086948
     91          1           0        6.029491   -4.422774   -4.202630
     92          1           0        8.181268   -4.048203   -4.975802
     93          1           0        8.540081   -2.966026   -3.596730
     94          1           0        7.791362   -2.377678   -5.051687
     95          1           0        8.500734    2.059236   -1.525133
     96          1           0        7.576827    2.822105   -2.940372
     97          1           0        7.934299    1.149611   -2.967957
     98          1           0        4.250971    4.137728    1.656591
     99          1           0        1.545182    7.303499   -0.003461
    100          1           0        1.232847    6.018835   -1.233173
    101          1           0        2.703462    6.918692   -1.290648
    102          1           0       -2.973723    6.341635    1.180874
    103          1           0       -3.577023    4.866543    1.984033
    104          1           0       -4.551835    4.080061    0.012837
    105          1           0       -2.317764    6.932149   -1.127909
    106          1           0       -3.490247    7.130949   -2.431875
    107          1           0       -2.176194    5.915377   -2.602698
    108          1           0       -4.526117    5.394274   -3.392136
    109          1           0       -5.731657    5.128181   -2.048144
    110          1           0       -3.911354    2.860540   -2.259139
    111          1           0       -4.689873    3.187647   -3.723200
    112          1           0       -6.861390    3.362285   -1.804212
    113          1           0       -5.594001    2.307909   -1.096413
    114          1           0       -5.779860    1.430703   -3.724332
    115          1           0       -8.317135    2.550212   -3.169874
    116          1           0       -8.464119    0.872603   -3.706802
    117          1           0       -7.658656    2.175100   -4.650855
    118          1           0       -7.523875    0.196698   -1.546663
    119          1           0       -5.750747    0.317168   -1.284251
    120          1           0       -5.427987   -1.397967   -2.176213
    121          1           0       -5.712814   -0.662941   -3.748550
    122          1           0       -7.527228   -2.045837   -4.053456
    123          1           0       -8.273763   -1.424590   -2.571775
    124          1           0       -6.254952   -3.168398   -1.625704
    125          1           0       -6.625607   -4.014621   -4.143747
    126          1           0       -7.662014   -5.168293   -3.144454
    127          1           0       -5.990696   -4.924823   -2.748883
    128          1           0       -8.300285   -4.596216   -0.763158
    129          1           0       -9.210353   -3.363894   -1.378808
    130          1           0       -7.088496   -2.178472    0.309394
    131          1           0       -7.514436   -3.649694    1.097251
    132          1           0       -9.652301   -1.724115    0.155535
    133          1           0       -8.814795   -1.142600    1.504109
    134          1           0       -9.786579   -3.954763    1.879230
    135          1           0      -12.216034   -3.016562    2.194216
    136          1           0      -11.652163   -3.629832    0.579579
    137          1           0      -11.911941   -1.877979    1.063557
    138          1           0       -9.455812   -3.327851    3.813120
    139          1           0      -10.883369   -2.296805    3.907273
    140          1           0       -9.382039   -1.576262    3.554542
 ---------------------------------------------------------------------

 SCF Done:  E(RB-LYP) =  -3007.33822044     A.U. after   20 cycles

 Excitation energies and oscillator strengths:

 Excited State   1:      Singlet-A      1.7588 eV  704.92 nm  f=0.0837  <S**2>=0.000
     244 -> 247        0.59525
     245 -> 248       -0.10560
     246 -> 247       -0.36671
 This state for optimization and/or second-order correction.
 Total Energy, E(TD-HF/TD-DFT) =  -3007.27358410
 Copying the excited state density for this state as the 1-particle RhoCI density.

 Excited State   2:      Singlet-A      1.7796 eV  696.68 nm  f=0.2010  <S**2>=0.000
     244 -> 247        0.37519
     245 -> 248        0.17526
     246 -> 247        0.57431
     246 <- 247       -0.12313

 Excited State   3:      Singlet-A      1.9355 eV  640.59 nm  f=0.0064  <S**2>=0.000
     243 -> 247        0.68975
     245 -> 247       -0.12263

 Excited State   4:      Singlet-A      1.9968 eV  620.92 nm  f=0.0393  <S**2>=0.000
     241 -> 247        0.12264
     243 -> 247        0.13166
     245 -> 247        0.61330
     246 -> 248       -0.27574

 Excited State   5:      Singlet-A      2.1444 eV  578.17 nm  f=0.0005  <S**2>=0.000
     242 -> 247        0.70505

 The electronic state is 1-A.
 Alpha  occ. eigenvalues --  -46.26877 -18.82341 -18.80790 -18.77055 -18.75570
 Alpha  occ. eigenvalues --  -18.75510 -18.74757 -14.03569 -14.03425 -14.02095
 Alpha  occ. eigenvalues --  -14.00727 -10.03867 -10.03172  -9.99701  -9.99347
 Alpha  occ. eigenvalues --   -9.97980  -9.97055  -9.97039  -9.96927  -9.96767
 Alpha  occ. eigenvalues --   -9.96681  -9.96643  -9.96496  -9.95967  -9.94777
 Alpha  occ. eigenvalues --   -9.94488  -9.94056  -9.93956  -9.93930  -9.93875
 Alpha  occ. eigenvalues --   -9.93754  -9.93714  -9.93625  -9.93433  -9.93349
 Alpha  occ. eigenvalues --   -9.93309  -9.93228  -9.93224  -9.93209  -9.93040
 Alpha  occ. eigenvalues --   -9.93010  -9.92775  -9.92657  -9.92612  -9.92446
 Alpha  occ. eigenvalues --   -9.92068  -9.92006  -9.91900  -9.91767  -9.91667
 Alpha  occ. eigenvalues --   -9.91567  -9.91272  -9.91267  -9.91213  -9.91037
 Alpha  occ. eigenvalues --   -9.91016  -9.90991  -9.90732  -9.90724  -9.90706
 Alpha  occ. eigenvalues --   -9.90612  -9.90609  -9.90549  -9.90204  -9.90181
 Alpha  occ. eigenvalues --   -9.90112  -2.91686  -1.72100  -1.71592  -1.71386
 Alpha  occ. eigenvalues --   -0.98702  -0.96817  -0.91296  -0.91061  -0.89626
 Alpha  occ. eigenvalues --   -0.89394  -0.89123  -0.86202  -0.85358  -0.83153
 Alpha  occ. eigenvalues --   -0.75439  -0.74178  -0.74047  -0.73243  -0.72483
 Alpha  occ. eigenvalues --   -0.72409  -0.71682  -0.71179  -0.70696  -0.70083
 Alpha  occ. eigenvalues --   -0.69803  -0.69192  -0.68042  -0.67840  -0.67306
 Alpha  occ. eigenvalues --   -0.66174  -0.66119  -0.65483  -0.65263  -0.64672
 Alpha  occ. eigenvalues --   -0.63877  -0.62712  -0.62332  -0.62078  -0.61238
 Alpha  occ. eigenvalues --   -0.60359  -0.60323  -0.59461  -0.59045  -0.58949
 Alpha  occ. eigenvalues --   -0.57872  -0.57559  -0.57087  -0.55406  -0.55309
 Alpha  occ. eigenvalues --   -0.53918  -0.53465  -0.53155  -0.52768  -0.52493
 Alpha  occ. eigenvalues --   -0.51521  -0.51146  -0.50860  -0.50451  -0.49693
 Alpha  occ. eigenvalues --   -0.49232  -0.49125  -0.48764  -0.48449  -0.46753
 Alpha  occ. eigenvalues --   -0.46301  -0.46249  -0.45724  -0.44992  -0.44825
 Alpha  occ. eigenvalues --   -0.44204  -0.44089  -0.43698  -0.43052  -0.42860
 Alpha  occ. eigenvalues --   -0.42268  -0.41967  -0.41866  -0.41421  -0.40782
 Alpha  occ. eigenvalues --   -0.40569  -0.40428  -0.40296  -0.40002  -0.39722
 Alpha  occ. eigenvalues --   -0.39641  -0.39604  -0.39266  -0.39124  -0.39045
 Alpha  occ. eigenvalues --   -0.38793  -0.38658  -0.38582  -0.38462  -0.38267
 Alpha  occ. eigenvalues --   -0.38120  -0.37949  -0.37856  -0.37388  -0.37145
 Alpha  occ. eigenvalues --   -0.37079  -0.36995  -0.36828  -0.36686  -0.36332
 Alpha  occ. eigenvalues --   -0.36138  -0.36118  -0.35999  -0.35923  -0.35813
 Alpha  occ. eigenvalues --   -0.35652  -0.35506  -0.35373  -0.34896  -0.34775
 Alpha  occ. eigenvalues --   -0.34731  -0.34531  -0.34503  -0.34297  -0.34250
 Alpha  occ. eigenvalues --   -0.33950  -0.33758  -0.33672  -0.33583  -0.33160
 Alpha  occ. eigenvalues --   -0.33022  -0.32920  -0.32689  -0.32538  -0.32357
 Alpha  occ. eigenvalues --   -0.32303  -0.31856  -0.31822  -0.31719  -0.31436
 Alpha  occ. eigenvalues --   -0.31192  -0.31002  -0.30940  -0.30746  -0.30633
 Alpha  occ. eigenvalues --   -0.30531  -0.30451  -0.30281  -0.30096  -0.30058
 Alpha  occ. eigenvalues --   -0.29837  -0.29670  -0.29442  -0.29234  -0.29169
 Alpha  occ. eigenvalues --   -0.28776  -0.28466  -0.28263  -0.28254  -0.28118
 Alpha  occ. eigenvalues --   -0.27373  -0.26995  -0.26692  -0.26468  -0.26415
 Alpha  occ. eigenvalues --   -0.25763  -0.25712  -0.25429  -0.25246  -0.24919
 Alpha  occ. eigenvalues --   -0.24853  -0.24369  -0.24186  -0.23963  -0.23542
 Alpha  occ. eigenvalues --   -0.22560  -0.22180  -0.21855  -0.21394  -0.21122
 Alpha  occ. eigenvalues --   -0.20037  -0.19522  -0.18660  -0.18042  -0.17620
 Alpha  occ. eigenvalues --   -0.15878
 Alpha virt. eigenvalues --   -0.11647  -0.07743  -0.06401  -0.04691  -0.03070
 Alpha virt. eigenvalues --   -0.02483  -0.02476  -0.02155  -0.01806  -0.00044
 Alpha virt. eigenvalues --    0.01018   0.01553   0.02550   0.02764   0.02998

 Mulliken charges:
               1
     1  Mg   0.711060
     2  C    0.020796
     3  C   -0.099054
     4  C   -0.063533
     5  C   -0.064754
     6  N   -0.209482
     7  C   -0.086393
     8  C   -0.028518
     9  C    0.028822
    10  C    0.038474
    11  C    0.150986
    12  C    0.138869
    13  C    0.149289
    14  C    0.052840
    15  O   -0.171250
    16  O   -0.297464
    17  N   -0.337774
    18  C    0.168579
    19  C   -0.130238
    20  C    0.074270
    21  C    0.174105
    22  C    0.192336
    23  C   -0.139831
    24  O   -0.172751
    25  C    0.158949
    26  N   -0.150557
    27  C   -0.069919
    28  C    0.018222
    29  C    0.049179
    30  C   -0.019470
    31  C    0.134201
    32  C    0.082673
    33  C    0.035449
    34  N   -0.320772
    35  C    0.136230
    36  C   -0.216662
    37  C    0.188024
    38  C    0.063151
    39  C    0.176420
    40  C   -0.108862
    41  O   -0.142350
    42  C    0.110301
    43  C    0.090873
    44  O   -0.188211
    45  O   -0.257621
    46  C    0.207100
    47  C    0.344023
    48  C   -0.102090
    49  C   -0.208563
    50  C    0.146322
    51  C    0.163033
    52  C    0.046926
    53  C    0.143726
    54  C   -0.091148
    55  C    0.103257
    56  C    0.079400
    57  C    0.059787
    58  C    0.118509
    59  C   -0.086054
    60  C    0.111521
    61  C    0.093886
    62  C    0.105546
    63  C    0.122265
    64  C   -0.108632
    65  C    0.086744
    66  C    0.079416
    67  H   -0.052572
    68  H   -0.087697
    69  H   -0.060135
    70  H   -0.031843
    71  H   -0.034061
    72  H    0.001420
    73  H   -0.008586
    74  H   -0.011371
    75  H   -0.012304
    76  H    0.011944
    77  H   -0.005768
    78  H   -0.018124
    79  H    0.007422
    80  H   -0.031718
    81  H    0.008228
    82  H    0.017630
    83  H   -0.001143
    84  H   -0.005040
    85  H   -0.018108
    86  H   -0.027504
    87  H   -0.000440
    88  H    0.002643
    89  H   -0.006863
    90  H   -0.005249
    91  H   -0.013199
    92  H   -0.005517
    93  H    0.001250
    94  H   -0.011304
    95  H    0.020711
    96  H    0.016146
    97  H   -0.023790
    98  H   -0.016099
    99  H    0.023323
   100  H    0.039707
   101  H    0.018487
   102  H   -0.013046
   103  H   -0.018160
   104  H   -0.048469
   105  H   -0.018188
   106  H   -0.004510
   107  H    0.012538
   108  H   -0.041042
   109  H   -0.011271
   110  H   -0.021645
   111  H   -0.032146
   112  H   -0.025144
   113  H   -0.015890
   114  H   -0.027999
   115  H   -0.039320
   116  H   -0.003560
   117  H   -0.026162
   118  H   -0.021531
   119  H   -0.043179
   120  H   -0.033739
   121  H   -0.037701
   122  H   -0.030331
   123  H   -0.029278
   124  H   -0.033046
   125  H   -0.011177
   126  H   -0.017027
   127  H   -0.022802
   128  H   -0.048958
   129  H   -0.031614
   130  H   -0.030927
   131  H   -0.021860
   132  H   -0.040987
   133  H   -0.035986
   134  H   -0.032822
   135  H   -0.027178
   136  H   -0.002925
   137  H   -0.019041
   138  H   -0.016770
   139  H   -0.019503
   140  H   -0.021687
 Sum of Mulliken charges =  -0.00000

 Dipole moment (field-independent basis, Debye):
    X=              1.7983    Y=             -2.0726    Z=             -2.4213  Tot=              3.6595
 Quadrupole moment (field-independent basis, Debye-Ang):
   XX=           -395.2620   YY=           -416.8064   ZZ=           -399.0386
   XY=            -43.5779   XZ=              1.7501   YZ=              4.7994

 Normal termination of Gaussian 16 at Wed May  4 22:25:55 2022.
