 Gaussian 16, Revision A.03,
 Gaussian 16:  ES64L-G16RevA.03 25-Dec-2016

 -----------------------------------
 #p cam-b3lyp/Def2SVP td=(nstates=5)
 -----------------------------------

 -------------------------------------------------------
 step_451_chromophore_20 TDDFT with cam-b3lyp functional
 -------------------------------------------------------
 Symbolic Z-matrix:
 Charge =  0 Multiplicity = 1

                         Standard orientation:
 ---------------------------------------------------------------------
 Center     Atomic      Atomic             Coordinates (Angstroms)
 Number     Number       Type             X           Y           Z
 ---------------------------------------------------------------------
      1         12           0        3.871878   -1.354968    0.686401
      2          6           0        3.816146    2.212851    0.854575
      3          6           0        1.548443   -1.393988    3.200375
      4          6           0        3.478762   -4.502360   -0.018694
      5          6           0        6.458187   -1.041831   -1.789273
      6          7           0        2.619525    0.207641    1.675309
      7          6           0        2.779248    1.614444    1.630282
      8          6           0        1.866806    2.320168    2.613856
      9          6           0        1.517186    1.158988    3.539966
     10          6           0        1.962890   -0.119311    2.793709
     11          6           0        1.893284    1.289763    4.994546
     12          6           0        0.670111    3.014459    1.888536
     13          6           0        0.432583    4.388734    2.360306
     14          6           0       -1.040181    4.830487    2.414918
     15          8           0       -1.652703    5.088031    3.427956
     16          8           0       -1.701428    4.684412    1.167132
     17          7           0        2.688080   -2.746981    1.417994
     18          6           0        1.750854   -2.580369    2.434511
     19          6           0        1.043089   -3.842975    2.696016
     20          6           0        1.494383   -4.778484    1.722009
     21          6           0        2.618833   -4.028348    0.987042
     22          6           0        0.062564   -4.003302    3.719039
     23          6           0        1.018344   -6.153875    1.525536
     24          8           0        0.112136   -6.577948    2.230408
     25          6           0        1.532682   -7.111577    0.483942
     26          7           0        4.825960   -2.535801   -0.741466
     27          6           0        4.481286   -3.812714   -0.778819
     28          6           0        5.317147   -4.602655   -1.769925
     29          6           0        6.329348   -3.586052   -2.222499
     30          6           0        5.865971   -2.311808   -1.492062
     31          6           0        5.855961   -5.955818   -1.188288
     32          6           0        6.337627   -3.472971   -3.765497
     33          6           0        7.812440   -3.224838   -4.365571
     34          7           0        4.982980    0.205844   -0.280463
     35          6           0        5.937118    0.185540   -1.366146
     36          6           0        6.504233    1.560839   -1.448902
     37          6           0        5.697974    2.372643   -0.632950
     38          6           0        4.777703    1.558872    0.056483
     39          6           0        7.720148    1.966860   -2.279955
     40          6           0        5.412645    3.693051   -0.193156
     41          8           0        6.084734    4.716861   -0.279504
     42          6           0        4.078435    3.718465    0.664643
     43          6           0        3.081934    4.414395   -0.100792
     44          8           0        2.536294    3.983663   -1.089761
     45          8           0        2.913187    5.687077    0.273086
     46          6           0        1.977434    6.496654   -0.595539
     47          6           0       -3.026135    5.254072    1.127415
     48          6           0       -3.780600    4.839419   -0.112818
     49          6           0       -3.803321    5.340420   -1.398354
     50          6           0       -2.861381    6.407531   -1.913078
     51          6           0       -4.765771    4.857220   -2.475332
     52          6           0       -4.818239    3.322258   -2.648634
     53          6           0       -6.010303    2.715030   -2.017314
     54          6           0       -6.465270    1.537171   -2.884014
     55          6           0       -7.794293    1.731164   -3.664062
     56          6           0       -6.550231    0.303830   -2.024757
     57          6           0       -6.194886   -0.968191   -2.820802
     58          6           0       -7.394855   -1.924835   -2.978681
     59          6           0       -7.199246   -3.253627   -2.163817
     60          6           0       -6.865791   -4.424223   -3.162430
     61          6           0       -8.213041   -3.530554   -0.972593
     62          6           0       -7.900630   -2.897645    0.410323
     63          6           0       -9.012855   -2.070055    0.967292
     64          6           0      -10.037805   -2.894971    1.848715
     65          6           0      -11.544848   -2.864206    1.348135
     66          6           0       -9.961535   -2.477985    3.354251
     67          1           0        0.954468   -1.432701    4.115402
     68          1           0        3.416288   -5.520139   -0.406568
     69          1           0        7.337689   -1.007877   -2.436502
     70          1           0        2.398679    3.132702    3.108303
     71          1           0        0.428204    1.122706    3.507221
     72          1           0        1.012336    1.734680    5.457990
     73          1           0        2.774531    1.924235    5.088892
     74          1           0        2.149469    0.335049    5.455380
     75          1           0       -0.219148    2.446249    2.161208
     76          1           0        0.979582    3.104644    0.847024
     77          1           0        0.895914    5.053405    1.631920
     78          1           0        0.911057    4.484692    3.334640
     79          1           0       -0.940214   -3.648230    3.481456
     80          1           0        0.348612   -3.340439    4.535010
     81          1           0        0.050271   -4.999825    4.159467
     82          1           0        2.603524   -7.242726    0.641757
     83          1           0        1.406065   -6.557987   -0.446464
     84          1           0        0.938684   -8.020042    0.375983
     85          1           0        4.589540   -4.795504   -2.558810
     86          1           0        7.341176   -3.816056   -1.888520
     87          1           0        5.229227   -6.793006   -1.494077
     88          1           0        5.853445   -5.842378   -0.104253
     89          1           0        6.858811   -6.121108   -1.581767
     90          1           0        5.674905   -2.669542   -4.086948
     91          1           0        6.029491   -4.422774   -4.202630
     92          1           0        8.181268   -4.048203   -4.975802
     93          1           0        8.540081   -2.966026   -3.596730
     94          1           0        7.791362   -2.377678   -5.051687
     95          1           0        8.500734    2.059236   -1.525133
     96          1           0        7.576827    2.822105   -2.940372
     97          1           0        7.934299    1.149611   -2.967957
     98          1           0        4.250971    4.137728    1.656591
     99          1           0        1.545182    7.303499   -0.003461
    100          1           0        1.232847    6.018835   -1.233173
    101          1           0        2.703462    6.918692   -1.290648
    102          1           0       -2.973723    6.341635    1.180874
    103          1           0       -3.577023    4.866543    1.984033
    104          1           0       -4.551835    4.080061    0.012837
    105          1           0       -2.317764    6.932149   -1.127909
    106          1           0       -3.490247    7.130949   -2.431875
    107          1           0       -2.176194    5.915377   -2.602698
    108          1           0       -4.526117    5.394274   -3.392136
    109          1           0       -5.731657    5.128181   -2.048144
    110          1           0       -3.911354    2.860540   -2.259139
    111          1           0       -4.689873    3.187647   -3.723200
    112          1           0       -6.861390    3.362285   -1.804212
    113          1           0       -5.594001    2.307909   -1.096413
    114          1           0       -5.779860    1.430703   -3.724332
    115          1           0       -8.317135    2.550212   -3.169874
    116          1           0       -8.464119    0.872603   -3.706802
    117          1           0       -7.658656    2.175100   -4.650855
    118          1           0       -7.523875    0.196698   -1.546663
    119          1           0       -5.750747    0.317168   -1.284251
    120          1           0       -5.427987   -1.397967   -2.176213
    121          1           0       -5.712814   -0.662941   -3.748550
    122          1           0       -7.527228   -2.045837   -4.053456
    123          1           0       -8.273763   -1.424590   -2.571775
    124          1           0       -6.254952   -3.168398   -1.625704
    125          1           0       -6.625607   -4.014621   -4.143747
    126          1           0       -7.662014   -5.168293   -3.144454
    127          1           0       -5.990696   -4.924823   -2.748883
    128          1           0       -8.300285   -4.596216   -0.763158
    129          1           0       -9.210353   -3.363894   -1.378808
    130          1           0       -7.088496   -2.178472    0.309394
    131          1           0       -7.514436   -3.649694    1.097251
    132          1           0       -9.652301   -1.724115    0.155535
    133          1           0       -8.814795   -1.142600    1.504109
    134          1           0       -9.786579   -3.954763    1.879230
    135          1           0      -12.216034   -3.016562    2.194216
    136          1           0      -11.652163   -3.629832    0.579579
    137          1           0      -11.911941   -1.877979    1.063557
    138          1           0       -9.455812   -3.327851    3.813120
    139          1           0      -10.883369   -2.296805    3.907273
    140          1           0       -9.382039   -1.576262    3.554542
 ---------------------------------------------------------------------

 SCF Done:  E(RCAM-B3LYP) =  -3007.13470686     A.U. after   19 cycles

 Excitation energies and oscillator strengths:

 Excited State   1:      Singlet-A      1.6935 eV  732.13 nm  f=0.3557  <S**2>=0.000
     245 -> 248       -0.18723
     246 -> 247        0.68279
     245 <- 248       -0.10805
 This state for optimization and/or second-order correction.
 Total Energy, E(TD-HF/TD-DFT) =  -3007.07247270
 Copying the excited state density for this state as the 1-particle RhoCI density.

 Excited State   2:      Singlet-A      2.2429 eV  552.79 nm  f=0.0384  <S**2>=0.000
     245 -> 247        0.59494
     246 -> 248        0.36788

 Excited State   3:      Singlet-A      3.2644 eV  379.81 nm  f=0.2510  <S**2>=0.000
     244 -> 247        0.49429
     245 -> 247        0.22834
     246 -> 248       -0.43683

 Excited State   4:      Singlet-A      3.4084 eV  363.76 nm  f=0.1489  <S**2>=0.000
     241 -> 247        0.45596
     241 -> 248       -0.14175
     241 -> 249        0.22643
     241 -> 250        0.15199
     241 -> 251       -0.11839
     244 -> 247        0.26213
     245 -> 247       -0.15323
     246 -> 248        0.22326

 Excited State   5:      Singlet-A      3.4348 eV  360.96 nm  f=0.3686  <S**2>=0.000
     240 -> 247       -0.26927
     240 -> 249       -0.10206
     241 -> 247       -0.22340
     241 -> 249       -0.12659
     241 -> 250       -0.10340
     244 -> 247        0.36846
     245 -> 247       -0.23263
     246 -> 248        0.33507

 The electronic state is 1-A.
 Alpha  occ. eigenvalues --  -46.88379 -19.25312 -19.23676 -19.20160 -19.18683
 Alpha  occ. eigenvalues --  -19.18411 -19.18183 -14.42382 -14.42325 -14.40804
 Alpha  occ. eigenvalues --  -14.38984 -10.39285 -10.38515 -10.34811 -10.34676
 Alpha  occ. eigenvalues --  -10.32044 -10.31938 -10.31424 -10.31353 -10.31345
 Alpha  occ. eigenvalues --  -10.31317 -10.31099 -10.30793 -10.29898 -10.28991
 Alpha  occ. eigenvalues --  -10.28867 -10.28650 -10.28238 -10.28081 -10.27956
 Alpha  occ. eigenvalues --  -10.27933 -10.27689 -10.27646 -10.27593 -10.27515
 Alpha  occ. eigenvalues --  -10.27471 -10.27329 -10.27231 -10.27131 -10.27046
 Alpha  occ. eigenvalues --  -10.27002 -10.26454 -10.26421 -10.26286 -10.26276
 Alpha  occ. eigenvalues --  -10.26080 -10.25693 -10.25646 -10.25549 -10.25447
 Alpha  occ. eigenvalues --  -10.25445 -10.25009 -10.24917 -10.24910 -10.24890
 Alpha  occ. eigenvalues --  -10.24632 -10.24622 -10.24400 -10.24359 -10.24294
 Alpha  occ. eigenvalues --  -10.24253 -10.24208 -10.24136 -10.23823 -10.23801
 Alpha  occ. eigenvalues --  -10.23709  -3.17100  -1.91988  -1.91575  -1.91402
 Alpha  occ. eigenvalues --   -1.17319  -1.15349  -1.09919  -1.09209  -1.07514
 Alpha  occ. eigenvalues --   -1.07342  -1.06910  -1.04042  -1.03110  -1.00393
 Alpha  occ. eigenvalues --   -0.92411  -0.91066  -0.90912  -0.89921  -0.89436
 Alpha  occ. eigenvalues --   -0.89179  -0.88377  -0.87831  -0.87440  -0.86629
 Alpha  occ. eigenvalues --   -0.86345  -0.85413  -0.84273  -0.84058  -0.83604
 Alpha  occ. eigenvalues --   -0.82313  -0.82192  -0.81390  -0.81126  -0.80528
 Alpha  occ. eigenvalues --   -0.79652  -0.78349  -0.78217  -0.77581  -0.76640
 Alpha  occ. eigenvalues --   -0.75687  -0.75633  -0.74813  -0.74317  -0.74192
 Alpha  occ. eigenvalues --   -0.72811  -0.72528  -0.72048  -0.70208  -0.69980
 Alpha  occ. eigenvalues --   -0.68626  -0.68015  -0.67691  -0.66890  -0.66858
 Alpha  occ. eigenvalues --   -0.65606  -0.65279  -0.65052  -0.64457  -0.63707
 Alpha  occ. eigenvalues --   -0.63113  -0.62999  -0.62695  -0.62091  -0.60414
 Alpha  occ. eigenvalues --   -0.59954  -0.59878  -0.59330  -0.58504  -0.58311
 Alpha  occ. eigenvalues --   -0.57499  -0.57403  -0.57189  -0.56210  -0.55827
 Alpha  occ. eigenvalues --   -0.55408  -0.54892  -0.54800  -0.54260  -0.53744
 Alpha  occ. eigenvalues --   -0.53445  -0.53226  -0.53056  -0.52934  -0.52690
 Alpha  occ. eigenvalues --   -0.52477  -0.52310  -0.52080  -0.51882  -0.51581
 Alpha  occ. eigenvalues --   -0.51185  -0.51085  -0.51006  -0.50910  -0.50801
 Alpha  occ. eigenvalues --   -0.50568  -0.50399  -0.50204  -0.49713  -0.49541
 Alpha  occ. eigenvalues --   -0.49453  -0.49277  -0.49096  -0.48891  -0.48742
 Alpha  occ. eigenvalues --   -0.48531  -0.48390  -0.48132  -0.48107  -0.47901
 Alpha  occ. eigenvalues --   -0.47710  -0.47579  -0.47530  -0.47134  -0.46822
 Alpha  occ. eigenvalues --   -0.46670  -0.46458  -0.46390  -0.46118  -0.46043
 Alpha  occ. eigenvalues --   -0.45738  -0.45514  -0.45410  -0.45318  -0.45026
 Alpha  occ. eigenvalues --   -0.44831  -0.44608  -0.44371  -0.44242  -0.44107
 Alpha  occ. eigenvalues --   -0.43836  -0.43702  -0.43476  -0.43357  -0.42919
 Alpha  occ. eigenvalues --   -0.42825  -0.42484  -0.42316  -0.42256  -0.42101
 Alpha  occ. eigenvalues --   -0.41888  -0.41742  -0.41710  -0.41450  -0.41253
 Alpha  occ. eigenvalues --   -0.41120  -0.40944  -0.40672  -0.40538  -0.40418
 Alpha  occ. eigenvalues --   -0.39982  -0.39680  -0.39342  -0.39332  -0.39072
 Alpha  occ. eigenvalues --   -0.38242  -0.37814  -0.37785  -0.37269  -0.37202
 Alpha  occ. eigenvalues --   -0.36823  -0.36466  -0.36316  -0.36109  -0.35871
 Alpha  occ. eigenvalues --   -0.35626  -0.35399  -0.34865  -0.34479  -0.34059
 Alpha  occ. eigenvalues --   -0.33835  -0.33561  -0.32914  -0.31260  -0.30779
 Alpha  occ. eigenvalues --   -0.30663  -0.30454  -0.29138  -0.29005  -0.24551
 Alpha  occ. eigenvalues --   -0.21025
 Alpha virt. eigenvalues --   -0.08592  -0.02800   0.00087   0.02198   0.02493
 Alpha virt. eigenvalues --    0.04550   0.04886   0.05449   0.05589   0.06575
 Alpha virt. eigenvalues --    0.08022   0.08238   0.08859   0.08892   0.09272

 Mulliken charges:
               1
     1  Mg   0.845699
     2  C   -0.006279
     3  C   -0.111223
     4  C   -0.088509
     5  C   -0.074095
     6  N   -0.277709
     7  C   -0.042752
     8  C   -0.075501
     9  C   -0.033438
    10  C    0.060416
    11  C    0.091260
    12  C    0.084147
    13  C    0.084213
    14  C    0.135824
    15  O   -0.211090
    16  O   -0.359406
    17  N   -0.429826
    18  C    0.177173
    19  C   -0.128377
    20  C    0.005653
    21  C    0.206276
    22  C    0.127756
    23  C   -0.061759
    24  O   -0.212635
    25  C    0.078236
    26  N   -0.227434
    27  C   -0.034234
    28  C   -0.047305
    29  C   -0.007619
    30  C    0.001413
    31  C    0.073423
    32  C    0.025296
    33  C   -0.024098
    34  N   -0.401040
    35  C    0.140336
    36  C   -0.211081
    37  C    0.104951
    38  C    0.096920
    39  C    0.127714
    40  C   -0.014218
    41  O   -0.182318
    42  C    0.031273
    43  C    0.174844
    44  O   -0.223072
    45  O   -0.319761
    46  C    0.164382
    47  C    0.310094
    48  C   -0.128114
    49  C   -0.216650
    50  C    0.085149
    51  C    0.098771
    52  C   -0.009975
    53  C    0.083921
    54  C   -0.145399
    55  C    0.048945
    56  C    0.026130
    57  C    0.008706
    58  C    0.060462
    59  C   -0.139538
    60  C    0.056886
    61  C    0.042641
    62  C    0.047420
    63  C    0.064986
    64  C   -0.165931
    65  C    0.031024
    66  C    0.021821
    67  H   -0.016665
    68  H   -0.050339
    69  H   -0.025637
    70  H    0.002094
    71  H    0.002625
    72  H    0.026190
    73  H    0.016679
    74  H    0.014436
    75  H    0.018172
    76  H    0.042997
    77  H    0.022080
    78  H    0.016092
    79  H    0.038102
    80  H   -0.004393
    81  H    0.040669
    82  H    0.042632
    83  H    0.026306
    84  H    0.032121
    85  H    0.017717
    86  H    0.007661
    87  H    0.022130
    88  H    0.028331
    89  H    0.019171
    90  H    0.024863
    91  H    0.014685
    92  H    0.018586
    93  H    0.020948
    94  H    0.012650
    95  H    0.044972
    96  H    0.041010
    97  H   -0.001524
    98  H    0.028887
    99  H    0.045105
   100  H    0.064938
   101  H    0.044239
   102  H    0.013019
   103  H    0.014709
   104  H   -0.019422
   105  H    0.005458
   106  H    0.018937
   107  H    0.035813
   108  H   -0.007922
   109  H    0.018860
   110  H    0.009956
   111  H   -0.002859
   112  H    0.002578
   113  H    0.011756
   114  H    0.002729
   115  H   -0.015147
   116  H    0.018748
   117  H   -0.000873
   118  H    0.003286
   119  H   -0.013174
   120  H   -0.005043
   121  H   -0.008252
   122  H   -0.000589
   123  H   -0.004535
   124  H   -0.002277
   125  H    0.012183
   126  H    0.006208
   127  H    0.000960
   128  H   -0.018333
   129  H   -0.004745
   130  H   -0.003621
   131  H    0.006235
   132  H   -0.012443
   133  H   -0.005904
   134  H   -0.001945
   135  H   -0.002774
   136  H    0.019211
   137  H    0.004161
   138  H    0.006299
   139  H    0.004820
   140  H    0.001627
 Sum of Mulliken charges =  -0.00000

 Dipole moment (field-independent basis, Debye):
    X=              1.3933    Y=             -2.6834    Z=             -2.1107  Tot=              3.6874
 Quadrupole moment (field-independent basis, Debye-Ang):
   XX=           -397.8602   YY=           -411.8627   ZZ=           -397.1988
   XY=            -46.5103   XZ=              1.4983   YZ=              4.6895

 Normal termination of Gaussian 16 at Wed May  4 21:08:22 2022.
