 Gaussian 16, Revision A.03,
 Gaussian 16:  ES64L-G16RevA.03 25-Dec-2016

 ---------------------------------
 #p PBE1PBE/Def2SVP td=(nstates=5)
 ---------------------------------

 -----------------------------------------------------
 step_451_chromophore_20 TDDFT with PBE1PBE functional
 -----------------------------------------------------
 Symbolic Z-matrix:
 Charge =  0 Multiplicity = 1

                         Standard orientation:
 ---------------------------------------------------------------------
 Center     Atomic      Atomic             Coordinates (Angstroms)
 Number     Number       Type             X           Y           Z
 ---------------------------------------------------------------------
      1         12           0        3.871878   -1.354968    0.686401
      2          6           0        3.816146    2.212851    0.854575
      3          6           0        1.548443   -1.393988    3.200375
      4          6           0        3.478762   -4.502360   -0.018694
      5          6           0        6.458187   -1.041831   -1.789273
      6          7           0        2.619525    0.207641    1.675309
      7          6           0        2.779248    1.614444    1.630282
      8          6           0        1.866806    2.320168    2.613856
      9          6           0        1.517186    1.158988    3.539966
     10          6           0        1.962890   -0.119311    2.793709
     11          6           0        1.893284    1.289763    4.994546
     12          6           0        0.670111    3.014459    1.888536
     13          6           0        0.432583    4.388734    2.360306
     14          6           0       -1.040181    4.830487    2.414918
     15          8           0       -1.652703    5.088031    3.427956
     16          8           0       -1.701428    4.684412    1.167132
     17          7           0        2.688080   -2.746981    1.417994
     18          6           0        1.750854   -2.580369    2.434511
     19          6           0        1.043089   -3.842975    2.696016
     20          6           0        1.494383   -4.778484    1.722009
     21          6           0        2.618833   -4.028348    0.987042
     22          6           0        0.062564   -4.003302    3.719039
     23          6           0        1.018344   -6.153875    1.525536
     24          8           0        0.112136   -6.577948    2.230408
     25          6           0        1.532682   -7.111577    0.483942
     26          7           0        4.825960   -2.535801   -0.741466
     27          6           0        4.481286   -3.812714   -0.778819
     28          6           0        5.317147   -4.602655   -1.769925
     29          6           0        6.329348   -3.586052   -2.222499
     30          6           0        5.865971   -2.311808   -1.492062
     31          6           0        5.855961   -5.955818   -1.188288
     32          6           0        6.337627   -3.472971   -3.765497
     33          6           0        7.812440   -3.224838   -4.365571
     34          7           0        4.982980    0.205844   -0.280463
     35          6           0        5.937118    0.185540   -1.366146
     36          6           0        6.504233    1.560839   -1.448902
     37          6           0        5.697974    2.372643   -0.632950
     38          6           0        4.777703    1.558872    0.056483
     39          6           0        7.720148    1.966860   -2.279955
     40          6           0        5.412645    3.693051   -0.193156
     41          8           0        6.084734    4.716861   -0.279504
     42          6           0        4.078435    3.718465    0.664643
     43          6           0        3.081934    4.414395   -0.100792
     44          8           0        2.536294    3.983663   -1.089761
     45          8           0        2.913187    5.687077    0.273086
     46          6           0        1.977434    6.496654   -0.595539
     47          6           0       -3.026135    5.254072    1.127415
     48          6           0       -3.780600    4.839419   -0.112818
     49          6           0       -3.803321    5.340420   -1.398354
     50          6           0       -2.861381    6.407531   -1.913078
     51          6           0       -4.765771    4.857220   -2.475332
     52          6           0       -4.818239    3.322258   -2.648634
     53          6           0       -6.010303    2.715030   -2.017314
     54          6           0       -6.465270    1.537171   -2.884014
     55          6           0       -7.794293    1.731164   -3.664062
     56          6           0       -6.550231    0.303830   -2.024757
     57          6           0       -6.194886   -0.968191   -2.820802
     58          6           0       -7.394855   -1.924835   -2.978681
     59          6           0       -7.199246   -3.253627   -2.163817
     60          6           0       -6.865791   -4.424223   -3.162430
     61          6           0       -8.213041   -3.530554   -0.972593
     62          6           0       -7.900630   -2.897645    0.410323
     63          6           0       -9.012855   -2.070055    0.967292
     64          6           0      -10.037805   -2.894971    1.848715
     65          6           0      -11.544848   -2.864206    1.348135
     66          6           0       -9.961535   -2.477985    3.354251
     67          1           0        0.954468   -1.432701    4.115402
     68          1           0        3.416288   -5.520139   -0.406568
     69          1           0        7.337689   -1.007877   -2.436502
     70          1           0        2.398679    3.132702    3.108303
     71          1           0        0.428204    1.122706    3.507221
     72          1           0        1.012336    1.734680    5.457990
     73          1           0        2.774531    1.924235    5.088892
     74          1           0        2.149469    0.335049    5.455380
     75          1           0       -0.219148    2.446249    2.161208
     76          1           0        0.979582    3.104644    0.847024
     77          1           0        0.895914    5.053405    1.631920
     78          1           0        0.911057    4.484692    3.334640
     79          1           0       -0.940214   -3.648230    3.481456
     80          1           0        0.348612   -3.340439    4.535010
     81          1           0        0.050271   -4.999825    4.159467
     82          1           0        2.603524   -7.242726    0.641757
     83          1           0        1.406065   -6.557987   -0.446464
     84          1           0        0.938684   -8.020042    0.375983
     85          1           0        4.589540   -4.795504   -2.558810
     86          1           0        7.341176   -3.816056   -1.888520
     87          1           0        5.229227   -6.793006   -1.494077
     88          1           0        5.853445   -5.842378   -0.104253
     89          1           0        6.858811   -6.121108   -1.581767
     90          1           0        5.674905   -2.669542   -4.086948
     91          1           0        6.029491   -4.422774   -4.202630
     92          1           0        8.181268   -4.048203   -4.975802
     93          1           0        8.540081   -2.966026   -3.596730
     94          1           0        7.791362   -2.377678   -5.051687
     95          1           0        8.500734    2.059236   -1.525133
     96          1           0        7.576827    2.822105   -2.940372
     97          1           0        7.934299    1.149611   -2.967957
     98          1           0        4.250971    4.137728    1.656591
     99          1           0        1.545182    7.303499   -0.003461
    100          1           0        1.232847    6.018835   -1.233173
    101          1           0        2.703462    6.918692   -1.290648
    102          1           0       -2.973723    6.341635    1.180874
    103          1           0       -3.577023    4.866543    1.984033
    104          1           0       -4.551835    4.080061    0.012837
    105          1           0       -2.317764    6.932149   -1.127909
    106          1           0       -3.490247    7.130949   -2.431875
    107          1           0       -2.176194    5.915377   -2.602698
    108          1           0       -4.526117    5.394274   -3.392136
    109          1           0       -5.731657    5.128181   -2.048144
    110          1           0       -3.911354    2.860540   -2.259139
    111          1           0       -4.689873    3.187647   -3.723200
    112          1           0       -6.861390    3.362285   -1.804212
    113          1           0       -5.594001    2.307909   -1.096413
    114          1           0       -5.779860    1.430703   -3.724332
    115          1           0       -8.317135    2.550212   -3.169874
    116          1           0       -8.464119    0.872603   -3.706802
    117          1           0       -7.658656    2.175100   -4.650855
    118          1           0       -7.523875    0.196698   -1.546663
    119          1           0       -5.750747    0.317168   -1.284251
    120          1           0       -5.427987   -1.397967   -2.176213
    121          1           0       -5.712814   -0.662941   -3.748550
    122          1           0       -7.527228   -2.045837   -4.053456
    123          1           0       -8.273763   -1.424590   -2.571775
    124          1           0       -6.254952   -3.168398   -1.625704
    125          1           0       -6.625607   -4.014621   -4.143747
    126          1           0       -7.662014   -5.168293   -3.144454
    127          1           0       -5.990696   -4.924823   -2.748883
    128          1           0       -8.300285   -4.596216   -0.763158
    129          1           0       -9.210353   -3.363894   -1.378808
    130          1           0       -7.088496   -2.178472    0.309394
    131          1           0       -7.514436   -3.649694    1.097251
    132          1           0       -9.652301   -1.724115    0.155535
    133          1           0       -8.814795   -1.142600    1.504109
    134          1           0       -9.786579   -3.954763    1.879230
    135          1           0      -12.216034   -3.016562    2.194216
    136          1           0      -11.652163   -3.629832    0.579579
    137          1           0      -11.911941   -1.877979    1.063557
    138          1           0       -9.455812   -3.327851    3.813120
    139          1           0      -10.883369   -2.296805    3.907273
    140          1           0       -9.382039   -1.576262    3.554542
 ---------------------------------------------------------------------

 SCF Done:  E(RPBE1PBE) =  -3005.32447945     A.U. after   15 cycles

 Excitation energies and oscillator strengths:

 Excited State   1:      Singlet-A      1.8320 eV  676.77 nm  f=0.3441  <S**2>=0.000
     245 -> 248       -0.18305
     246 -> 247        0.68919
     246 <- 247       -0.10343
 This state for optimization and/or second-order correction.
 Total Energy, E(TD-HF/TD-DFT) =  -3005.25715500
 Copying the excited state density for this state as the 1-particle RhoCI density.

 Excited State   2:      Singlet-A      2.2358 eV  554.55 nm  f=0.0468  <S**2>=0.000
     245 -> 247        0.61853
     246 -> 248        0.32393

 Excited State   3:      Singlet-A      2.9068 eV  426.53 nm  f=0.0000  <S**2>=0.000
     242 -> 247        0.65229
     242 -> 248       -0.12200
     242 -> 249        0.14742
     242 -> 250       -0.12912
     243 -> 247        0.13040

 Excited State   4:      Singlet-A      2.9440 eV  421.14 nm  f=0.0085  <S**2>=0.000
     241 -> 247       -0.11721
     242 -> 247       -0.12092
     243 -> 247        0.63470
     246 -> 248       -0.23020

 Excited State   5:      Singlet-A      3.0267 eV  409.63 nm  f=0.0055  <S**2>=0.000
     241 -> 247        0.65753
     241 -> 249       -0.17792

 The electronic state is 1-A.
 Alpha  occ. eigenvalues --  -46.91786 -19.25970 -19.24363 -19.20427 -19.18920
 Alpha  occ. eigenvalues --  -19.18838 -19.18237 -14.41856 -14.41844 -14.40340
 Alpha  occ. eigenvalues --  -14.38841 -10.36353 -10.35499 -10.32123 -10.31638
 Alpha  occ. eigenvalues --  -10.29395 -10.29319 -10.29231 -10.29024 -10.28879
 Alpha  occ. eigenvalues --  -10.28777 -10.28720 -10.28466 -10.27938 -10.26768
 Alpha  occ. eigenvalues --  -10.26612 -10.26329 -10.26147 -10.25789 -10.25777
 Alpha  occ. eigenvalues --  -10.25486 -10.25454 -10.25397 -10.25377 -10.25182
 Alpha  occ. eigenvalues --  -10.25089 -10.25035 -10.24893 -10.24852 -10.24521
 Alpha  occ. eigenvalues --  -10.24476 -10.24087 -10.23860 -10.23825 -10.23602
 Alpha  occ. eigenvalues --  -10.23462 -10.23371 -10.23157 -10.23026 -10.23022
 Alpha  occ. eigenvalues --  -10.22949 -10.22804 -10.22509 -10.22453 -10.22376
 Alpha  occ. eigenvalues --  -10.22354 -10.22190 -10.21921 -10.21915 -10.21718
 Alpha  occ. eigenvalues --  -10.21698 -10.21636 -10.21574 -10.21345 -10.21268
 Alpha  occ. eigenvalues --  -10.21206  -3.14082  -1.86912  -1.86477  -1.86309
 Alpha  occ. eigenvalues --   -1.12106  -1.10144  -1.04489  -1.04120  -1.02397
 Alpha  occ. eigenvalues --   -1.02174  -1.01592  -0.98555  -0.97642  -0.95190
 Alpha  occ. eigenvalues --   -0.86867  -0.85295  -0.85081  -0.84255  -0.83630
 Alpha  occ. eigenvalues --   -0.83282  -0.82463  -0.82112  -0.81660  -0.80784
 Alpha  occ. eigenvalues --   -0.80527  -0.79896  -0.78576  -0.78255  -0.77799
 Alpha  occ. eigenvalues --   -0.76466  -0.76352  -0.75678  -0.75423  -0.74807
 Alpha  occ. eigenvalues --   -0.73806  -0.72656  -0.72388  -0.71899  -0.70977
 Alpha  occ. eigenvalues --   -0.70029  -0.69831  -0.68878  -0.68446  -0.68352
 Alpha  occ. eigenvalues --   -0.67276  -0.66914  -0.66481  -0.64498  -0.64377
 Alpha  occ. eigenvalues --   -0.63036  -0.62248  -0.62152  -0.61305  -0.61096
 Alpha  occ. eigenvalues --   -0.60093  -0.59762  -0.59259  -0.59038  -0.57859
 Alpha  occ. eigenvalues --   -0.57540  -0.57243  -0.56838  -0.56717  -0.54921
 Alpha  occ. eigenvalues --   -0.54460  -0.54419  -0.53819  -0.52940  -0.52819
 Alpha  occ. eigenvalues --   -0.52119  -0.51886  -0.51655  -0.50640  -0.50441
 Alpha  occ. eigenvalues --   -0.50000  -0.49418  -0.49325  -0.48823  -0.48314
 Alpha  occ. eigenvalues --   -0.48056  -0.47779  -0.47633  -0.47445  -0.47172
 Alpha  occ. eigenvalues --   -0.46887  -0.46784  -0.46528  -0.46398  -0.46170
 Alpha  occ. eigenvalues --   -0.45787  -0.45682  -0.45553  -0.45470  -0.45441
 Alpha  occ. eigenvalues --   -0.45119  -0.44892  -0.44679  -0.44276  -0.44128
 Alpha  occ. eigenvalues --   -0.44083  -0.43831  -0.43749  -0.43573  -0.43358
 Alpha  occ. eigenvalues --   -0.43123  -0.42985  -0.42751  -0.42690  -0.42534
 Alpha  occ. eigenvalues --   -0.42348  -0.42181  -0.42092  -0.41734  -0.41468
 Alpha  occ. eigenvalues --   -0.41284  -0.41179  -0.41072  -0.40871  -0.40700
 Alpha  occ. eigenvalues --   -0.40509  -0.40169  -0.40060  -0.39961  -0.39713
 Alpha  occ. eigenvalues --   -0.39571  -0.39464  -0.39222  -0.38934  -0.38878
 Alpha  occ. eigenvalues --   -0.38659  -0.38427  -0.38286  -0.37963  -0.37743
 Alpha  occ. eigenvalues --   -0.37641  -0.37327  -0.37304  -0.37097  -0.36870
 Alpha  occ. eigenvalues --   -0.36738  -0.36637  -0.36520  -0.36363  -0.36018
 Alpha  occ. eigenvalues --   -0.35912  -0.35727  -0.35558  -0.35417  -0.35224
 Alpha  occ. eigenvalues --   -0.34911  -0.34606  -0.34281  -0.34060  -0.33839
 Alpha  occ. eigenvalues --   -0.33025  -0.32806  -0.32559  -0.32327  -0.32007
 Alpha  occ. eigenvalues --   -0.31824  -0.31333  -0.31278  -0.30866  -0.30722
 Alpha  occ. eigenvalues --   -0.30476  -0.30276  -0.29757  -0.29727  -0.29217
 Alpha  occ. eigenvalues --   -0.28801  -0.28664  -0.27868  -0.26904  -0.26211
 Alpha  occ. eigenvalues --   -0.25500  -0.25221  -0.24836  -0.24465  -0.21399
 Alpha  occ. eigenvalues --   -0.18733
 Alpha virt. eigenvalues --   -0.11162  -0.06227  -0.04135  -0.02126  -0.00248
 Alpha virt. eigenvalues --    0.00010   0.00417   0.00879   0.01111   0.02895
 Alpha virt. eigenvalues --    0.03816   0.04474   0.05453   0.05716   0.05997

 Mulliken charges:
               1
     1  Mg   1.000004
     2  C   -0.018375
     3  C   -0.093904
     4  C   -0.082610
     5  C   -0.081043
     6  N   -0.378294
     7  C    0.029222
     8  C   -0.142490
     9  C   -0.113062
    10  C    0.093287
    11  C    0.032779
    12  C    0.033307
    13  C   -0.000809
    14  C    0.200358
    15  O   -0.244502
    16  O   -0.386919
    17  N   -0.549190
    18  C    0.194588
    19  C   -0.155965
    20  C   -0.039777
    21  C    0.234493
    22  C    0.069690
    23  C   -0.010989
    24  O   -0.248610
    25  C    0.001861
    26  N   -0.346414
    27  C    0.010186
    28  C   -0.126549
    29  C   -0.087463
    30  C    0.047763
    31  C    0.009564
    32  C   -0.034145
    33  C   -0.094937
    34  N   -0.508533
    35  C    0.171709
    36  C   -0.223917
    37  C    0.053161
    38  C    0.146450
    39  C    0.073427
    40  C    0.076640
    41  O   -0.224447
    42  C   -0.082384
    43  C    0.268809
    44  O   -0.258397
    45  O   -0.353393
    46  C    0.104246
    47  C    0.267432
    48  C   -0.142951
    49  C   -0.253549
    50  C    0.019522
    51  C    0.031134
    52  C   -0.070241
    53  C    0.025301
    54  C   -0.227743
    55  C   -0.006182
    56  C   -0.035610
    57  C   -0.048973
    58  C    0.002206
    59  C   -0.221868
    60  C   -0.003905
    61  C   -0.007926
    62  C   -0.021723
    63  C    0.007268
    64  C   -0.251879
    65  C   -0.032192
    66  C   -0.035378
    67  H    0.012424
    68  H   -0.015896
    69  H    0.009731
    70  H    0.039621
    71  H    0.041097
    72  H    0.053186
    73  H    0.044013
    74  H    0.041820
    75  H    0.051917
    76  H    0.079099
    77  H    0.066006
    78  H    0.047905
    79  H    0.064780
    80  H    0.023292
    81  H    0.066952
    82  H    0.068275
    83  H    0.053564
    84  H    0.059103
    85  H    0.055901
    86  H    0.045333
    87  H    0.049201
    88  H    0.057641
    89  H    0.047258
    90  H    0.056895
    91  H    0.048870
    92  H    0.046662
    93  H    0.046136
    94  H    0.040523
    95  H    0.073583
    96  H    0.068296
    97  H    0.026928
    98  H    0.065023
    99  H    0.066341
   100  H    0.085590
   101  H    0.067313
   102  H    0.039700
   103  H    0.041570
   104  H    0.015744
   105  H    0.033293
   106  H    0.047011
   107  H    0.064213
   108  H    0.023046
   109  H    0.054195
   110  H    0.043246
   111  H    0.029654
   112  H    0.032328
   113  H    0.043633
   114  H    0.039151
   115  H    0.012875
   116  H    0.046754
   117  H    0.027004
   118  H    0.036313
   119  H    0.020694
   120  H    0.027517
   121  H    0.023654
   122  H    0.031032
   123  H    0.028146
   124  H    0.037293
   125  H    0.039001
   126  H    0.033881
   127  H    0.028816
   128  H    0.014647
   129  H    0.026608
   130  H    0.031140
   131  H    0.038131
   132  H    0.021883
   133  H    0.024710
   134  H    0.035603
   135  H    0.024963
   136  H    0.046754
   137  H    0.031341
   138  H    0.033714
   139  H    0.031085
   140  H    0.028104
 Sum of Mulliken charges =  -0.00000

 Dipole moment (field-independent basis, Debye):
    X=              1.6941    Y=             -2.4260    Z=             -2.3658  Tot=              3.7885
 Quadrupole moment (field-independent basis, Debye-Ang):
   XX=           -391.7734   YY=           -409.8915   ZZ=           -393.6691
   XY=            -46.3310   XZ=             -0.2460   YZ=              5.5298

 Normal termination of Gaussian 16 at Wed May  4 21:33:33 2022.
