 Gaussian 16, Revision A.03,
 Gaussian 16:  ES64L-G16RevA.03 25-Dec-2016

 --------------------------------
 #p wB97XD/Def2SVP td=(nstates=5)
 --------------------------------

 ----------------------------------------------------
 step_451_chromophore_20 TDDFT with wB97XD functional
 ----------------------------------------------------
 Symbolic Z-matrix:
 Charge =  0 Multiplicity = 1

                         Standard orientation:
 ---------------------------------------------------------------------
 Center     Atomic      Atomic             Coordinates (Angstroms)
 Number     Number       Type             X           Y           Z
 ---------------------------------------------------------------------
      1         12           0        3.871878   -1.354968    0.686401
      2          6           0        3.816146    2.212851    0.854575
      3          6           0        1.548443   -1.393988    3.200375
      4          6           0        3.478762   -4.502360   -0.018694
      5          6           0        6.458187   -1.041831   -1.789273
      6          7           0        2.619525    0.207641    1.675309
      7          6           0        2.779248    1.614444    1.630282
      8          6           0        1.866806    2.320168    2.613856
      9          6           0        1.517186    1.158988    3.539966
     10          6           0        1.962890   -0.119311    2.793709
     11          6           0        1.893284    1.289763    4.994546
     12          6           0        0.670111    3.014459    1.888536
     13          6           0        0.432583    4.388734    2.360306
     14          6           0       -1.040181    4.830487    2.414918
     15          8           0       -1.652703    5.088031    3.427956
     16          8           0       -1.701428    4.684412    1.167132
     17          7           0        2.688080   -2.746981    1.417994
     18          6           0        1.750854   -2.580369    2.434511
     19          6           0        1.043089   -3.842975    2.696016
     20          6           0        1.494383   -4.778484    1.722009
     21          6           0        2.618833   -4.028348    0.987042
     22          6           0        0.062564   -4.003302    3.719039
     23          6           0        1.018344   -6.153875    1.525536
     24          8           0        0.112136   -6.577948    2.230408
     25          6           0        1.532682   -7.111577    0.483942
     26          7           0        4.825960   -2.535801   -0.741466
     27          6           0        4.481286   -3.812714   -0.778819
     28          6           0        5.317147   -4.602655   -1.769925
     29          6           0        6.329348   -3.586052   -2.222499
     30          6           0        5.865971   -2.311808   -1.492062
     31          6           0        5.855961   -5.955818   -1.188288
     32          6           0        6.337627   -3.472971   -3.765497
     33          6           0        7.812440   -3.224838   -4.365571
     34          7           0        4.982980    0.205844   -0.280463
     35          6           0        5.937118    0.185540   -1.366146
     36          6           0        6.504233    1.560839   -1.448902
     37          6           0        5.697974    2.372643   -0.632950
     38          6           0        4.777703    1.558872    0.056483
     39          6           0        7.720148    1.966860   -2.279955
     40          6           0        5.412645    3.693051   -0.193156
     41          8           0        6.084734    4.716861   -0.279504
     42          6           0        4.078435    3.718465    0.664643
     43          6           0        3.081934    4.414395   -0.100792
     44          8           0        2.536294    3.983663   -1.089761
     45          8           0        2.913187    5.687077    0.273086
     46          6           0        1.977434    6.496654   -0.595539
     47          6           0       -3.026135    5.254072    1.127415
     48          6           0       -3.780600    4.839419   -0.112818
     49          6           0       -3.803321    5.340420   -1.398354
     50          6           0       -2.861381    6.407531   -1.913078
     51          6           0       -4.765771    4.857220   -2.475332
     52          6           0       -4.818239    3.322258   -2.648634
     53          6           0       -6.010303    2.715030   -2.017314
     54          6           0       -6.465270    1.537171   -2.884014
     55          6           0       -7.794293    1.731164   -3.664062
     56          6           0       -6.550231    0.303830   -2.024757
     57          6           0       -6.194886   -0.968191   -2.820802
     58          6           0       -7.394855   -1.924835   -2.978681
     59          6           0       -7.199246   -3.253627   -2.163817
     60          6           0       -6.865791   -4.424223   -3.162430
     61          6           0       -8.213041   -3.530554   -0.972593
     62          6           0       -7.900630   -2.897645    0.410323
     63          6           0       -9.012855   -2.070055    0.967292
     64          6           0      -10.037805   -2.894971    1.848715
     65          6           0      -11.544848   -2.864206    1.348135
     66          6           0       -9.961535   -2.477985    3.354251
     67          1           0        0.954468   -1.432701    4.115402
     68          1           0        3.416288   -5.520139   -0.406568
     69          1           0        7.337689   -1.007877   -2.436502
     70          1           0        2.398679    3.132702    3.108303
     71          1           0        0.428204    1.122706    3.507221
     72          1           0        1.012336    1.734680    5.457990
     73          1           0        2.774531    1.924235    5.088892
     74          1           0        2.149469    0.335049    5.455380
     75          1           0       -0.219148    2.446249    2.161208
     76          1           0        0.979582    3.104644    0.847024
     77          1           0        0.895914    5.053405    1.631920
     78          1           0        0.911057    4.484692    3.334640
     79          1           0       -0.940214   -3.648230    3.481456
     80          1           0        0.348612   -3.340439    4.535010
     81          1           0        0.050271   -4.999825    4.159467
     82          1           0        2.603524   -7.242726    0.641757
     83          1           0        1.406065   -6.557987   -0.446464
     84          1           0        0.938684   -8.020042    0.375983
     85          1           0        4.589540   -4.795504   -2.558810
     86          1           0        7.341176   -3.816056   -1.888520
     87          1           0        5.229227   -6.793006   -1.494077
     88          1           0        5.853445   -5.842378   -0.104253
     89          1           0        6.858811   -6.121108   -1.581767
     90          1           0        5.674905   -2.669542   -4.086948
     91          1           0        6.029491   -4.422774   -4.202630
     92          1           0        8.181268   -4.048203   -4.975802
     93          1           0        8.540081   -2.966026   -3.596730
     94          1           0        7.791362   -2.377678   -5.051687
     95          1           0        8.500734    2.059236   -1.525133
     96          1           0        7.576827    2.822105   -2.940372
     97          1           0        7.934299    1.149611   -2.967957
     98          1           0        4.250971    4.137728    1.656591
     99          1           0        1.545182    7.303499   -0.003461
    100          1           0        1.232847    6.018835   -1.233173
    101          1           0        2.703462    6.918692   -1.290648
    102          1           0       -2.973723    6.341635    1.180874
    103          1           0       -3.577023    4.866543    1.984033
    104          1           0       -4.551835    4.080061    0.012837
    105          1           0       -2.317764    6.932149   -1.127909
    106          1           0       -3.490247    7.130949   -2.431875
    107          1           0       -2.176194    5.915377   -2.602698
    108          1           0       -4.526117    5.394274   -3.392136
    109          1           0       -5.731657    5.128181   -2.048144
    110          1           0       -3.911354    2.860540   -2.259139
    111          1           0       -4.689873    3.187647   -3.723200
    112          1           0       -6.861390    3.362285   -1.804212
    113          1           0       -5.594001    2.307909   -1.096413
    114          1           0       -5.779860    1.430703   -3.724332
    115          1           0       -8.317135    2.550212   -3.169874
    116          1           0       -8.464119    0.872603   -3.706802
    117          1           0       -7.658656    2.175100   -4.650855
    118          1           0       -7.523875    0.196698   -1.546663
    119          1           0       -5.750747    0.317168   -1.284251
    120          1           0       -5.427987   -1.397967   -2.176213
    121          1           0       -5.712814   -0.662941   -3.748550
    122          1           0       -7.527228   -2.045837   -4.053456
    123          1           0       -8.273763   -1.424590   -2.571775
    124          1           0       -6.254952   -3.168398   -1.625704
    125          1           0       -6.625607   -4.014621   -4.143747
    126          1           0       -7.662014   -5.168293   -3.144454
    127          1           0       -5.990696   -4.924823   -2.748883
    128          1           0       -8.300285   -4.596216   -0.763158
    129          1           0       -9.210353   -3.363894   -1.378808
    130          1           0       -7.088496   -2.178472    0.309394
    131          1           0       -7.514436   -3.649694    1.097251
    132          1           0       -9.652301   -1.724115    0.155535
    133          1           0       -8.814795   -1.142600    1.504109
    134          1           0       -9.786579   -3.954763    1.879230
    135          1           0      -12.216034   -3.016562    2.194216
    136          1           0      -11.652163   -3.629832    0.579579
    137          1           0      -11.911941   -1.877979    1.063557
    138          1           0       -9.455812   -3.327851    3.813120
    139          1           0      -10.883369   -2.296805    3.907273
    140          1           0       -9.382039   -1.576262    3.554542
 ---------------------------------------------------------------------

 SCF Done:  E(RwB97XD) =  -3007.83269272     A.U. after   19 cycles

 Excitation energies and oscillator strengths:

 Excited State   1:      Singlet-A      1.6449 eV  753.76 nm  f=0.3543  <S**2>=0.000
     245 -> 248       -0.19176
     246 -> 247        0.68074
     245 <- 248       -0.11674
 This state for optimization and/or second-order correction.
 Total Energy, E(TD-HF/TD-DFT) =  -3007.77224476
 Copying the excited state density for this state as the 1-particle RhoCI density.

 Excited State   2:      Singlet-A      2.1886 eV  566.50 nm  f=0.0377  <S**2>=0.000
     245 -> 247        0.59437
     246 -> 248        0.36721

 Excited State   3:      Singlet-A      3.2805 eV  377.94 nm  f=0.2946  <S**2>=0.000
     243 -> 247        0.12455
     244 -> 247       -0.44774
     245 -> 247       -0.24143
     246 -> 248        0.45983

 Excited State   4:      Singlet-A      3.4103 eV  363.56 nm  f=0.0272  <S**2>=0.000
     241 -> 247        0.51607
     241 -> 248       -0.17941
     241 -> 249        0.29320
     241 -> 250       -0.24649
     244 -> 247        0.13455

 Excited State   5:      Singlet-A      3.4580 eV  358.55 nm  f=0.4485  <S**2>=0.000
     240 -> 247       -0.25593
     241 -> 247       -0.11767
     243 -> 247       -0.11789
     244 -> 247        0.42886
     245 -> 247       -0.25027
     246 -> 248        0.35838

 The electronic state is 1-A.
 Alpha  occ. eigenvalues --  -46.94738 -19.30503 -19.28935 -19.25110 -19.23586
 Alpha  occ. eigenvalues --  -19.23433 -19.23265 -14.46946 -14.46933 -14.45465
 Alpha  occ. eigenvalues --  -14.43612 -10.43132 -10.42303 -10.38792 -10.38678
 Alpha  occ. eigenvalues --  -10.36074 -10.35805 -10.35513 -10.35476 -10.35421
 Alpha  occ. eigenvalues --  -10.35342 -10.34993 -10.34734 -10.33877 -10.33206
 Alpha  occ. eigenvalues --  -10.32829 -10.32717 -10.32362 -10.32141 -10.32090
 Alpha  occ. eigenvalues --  -10.31995 -10.31727 -10.31707 -10.31693 -10.31575
 Alpha  occ. eigenvalues --  -10.31528 -10.31344 -10.31232 -10.31068 -10.30956
 Alpha  occ. eigenvalues --  -10.30900 -10.30404 -10.30288 -10.30191 -10.30100
 Alpha  occ. eigenvalues --  -10.29916 -10.29655 -10.29514 -10.29459 -10.29448
 Alpha  occ. eigenvalues --  -10.29371 -10.28989 -10.28876 -10.28841 -10.28783
 Alpha  occ. eigenvalues --  -10.28617 -10.28540 -10.28302 -10.28291 -10.28122
 Alpha  occ. eigenvalues --  -10.28074 -10.28071 -10.28025 -10.27705 -10.27636
 Alpha  occ. eigenvalues --  -10.27617  -3.20876  -1.94458  -1.94025  -1.93850
 Alpha  occ. eigenvalues --   -1.19457  -1.17526  -1.12184  -1.11409  -1.09745
 Alpha  occ. eigenvalues --   -1.09500  -1.08908  -1.06093  -1.05179  -1.02374
 Alpha  occ. eigenvalues --   -0.94359  -0.92903  -0.92715  -0.91782  -0.91427
 Alpha  occ. eigenvalues --   -0.90956  -0.90143  -0.89785  -0.89406  -0.88464
 Alpha  occ. eigenvalues --   -0.88208  -0.87328  -0.86185  -0.85898  -0.85508
 Alpha  occ. eigenvalues --   -0.84226  -0.84020  -0.83296  -0.83067  -0.82437
 Alpha  occ. eigenvalues --   -0.81472  -0.80306  -0.80170  -0.79480  -0.78563
 Alpha  occ. eigenvalues --   -0.77621  -0.77500  -0.76597  -0.76133  -0.76024
 Alpha  occ. eigenvalues --   -0.74765  -0.74483  -0.74047  -0.72146  -0.71884
 Alpha  occ. eigenvalues --   -0.70627  -0.69879  -0.69725  -0.68762  -0.68739
 Alpha  occ. eigenvalues --   -0.67560  -0.67283  -0.66899  -0.66467  -0.65520
 Alpha  occ. eigenvalues --   -0.65016  -0.64908  -0.64505  -0.64072  -0.62399
 Alpha  occ. eigenvalues --   -0.61921  -0.61901  -0.61255  -0.60412  -0.60270
 Alpha  occ. eigenvalues --   -0.59508  -0.59329  -0.59168  -0.58087  -0.57764
 Alpha  occ. eigenvalues --   -0.57386  -0.56813  -0.56721  -0.56199  -0.55671
 Alpha  occ. eigenvalues --   -0.55383  -0.55137  -0.54996  -0.54828  -0.54666
 Alpha  occ. eigenvalues --   -0.54429  -0.54221  -0.53935  -0.53811  -0.53498
 Alpha  occ. eigenvalues --   -0.53116  -0.52971  -0.52890  -0.52793  -0.52723
 Alpha  occ. eigenvalues --   -0.52516  -0.52326  -0.52066  -0.51691  -0.51434
 Alpha  occ. eigenvalues --   -0.51347  -0.51156  -0.51016  -0.50835  -0.50671
 Alpha  occ. eigenvalues --   -0.50455  -0.50274  -0.50040  -0.49988  -0.49802
 Alpha  occ. eigenvalues --   -0.49652  -0.49491  -0.49426  -0.49067  -0.48795
 Alpha  occ. eigenvalues --   -0.48536  -0.48394  -0.48271  -0.48046  -0.47914
 Alpha  occ. eigenvalues --   -0.47685  -0.47366  -0.47344  -0.47183  -0.46964
 Alpha  occ. eigenvalues --   -0.46745  -0.46498  -0.46316  -0.46093  -0.46076
 Alpha  occ. eigenvalues --   -0.45767  -0.45638  -0.45391  -0.45203  -0.44839
 Alpha  occ. eigenvalues --   -0.44755  -0.44411  -0.44219  -0.44170  -0.44141
 Alpha  occ. eigenvalues --   -0.43803  -0.43632  -0.43594  -0.43380  -0.43121
 Alpha  occ. eigenvalues --   -0.42989  -0.42825  -0.42572  -0.42431  -0.42293
 Alpha  occ. eigenvalues --   -0.41879  -0.41610  -0.41246  -0.41178  -0.40914
 Alpha  occ. eigenvalues --   -0.40084  -0.39711  -0.39648  -0.39353  -0.39044
 Alpha  occ. eigenvalues --   -0.38828  -0.38347  -0.38300  -0.37939  -0.37722
 Alpha  occ. eigenvalues --   -0.37549  -0.37290  -0.36700  -0.36468  -0.35950
 Alpha  occ. eigenvalues --   -0.35842  -0.35747  -0.34738  -0.33501  -0.33014
 Alpha  occ. eigenvalues --   -0.32647  -0.32405  -0.31183  -0.31130  -0.26494
 Alpha  occ. eigenvalues --   -0.22837
 Alpha virt. eigenvalues --   -0.06937  -0.00897   0.02147   0.04363   0.05536
 Alpha virt. eigenvalues --    0.06796   0.07118   0.07688   0.07931   0.09352
 Alpha virt. eigenvalues --    0.10392   0.11210   0.12222   0.12534   0.12725

 Mulliken charges:
               1
     1  Mg   0.988201
     2  C   -0.020994
     3  C   -0.118090
     4  C   -0.096553
     5  C   -0.085290
     6  N   -0.346306
     7  C   -0.000422
     8  C   -0.116099
     9  C   -0.084750
    10  C    0.083957
    11  C    0.042071
    12  C    0.046028
    13  C    0.025692
    14  C    0.192358
    15  O   -0.242584
    16  O   -0.386610
    17  N   -0.518084
    18  C    0.192173
    19  C   -0.143391
    20  C   -0.036574
    21  C    0.233248
    22  C    0.078642
    23  C   -0.014343
    24  O   -0.243038
    25  C    0.017057
    26  N   -0.306834
    27  C   -0.002264
    28  C   -0.101918
    29  C   -0.059271
    30  C    0.026934
    31  C    0.023492
    32  C   -0.021618
    33  C   -0.078843
    34  N   -0.478799
    35  C    0.156980
    36  C   -0.224241
    37  C    0.058566
    38  C    0.129020
    39  C    0.086112
    40  C    0.059516
    41  O   -0.217712
    42  C   -0.039101
    43  C    0.238319
    44  O   -0.251300
    45  O   -0.349686
    46  C    0.118653
    47  C    0.280947
    48  C   -0.149031
    49  C   -0.240485
    50  C    0.034712
    51  C    0.050853
    52  C   -0.054188
    53  C    0.043055
    54  C   -0.196758
    55  C    0.004110
    56  C   -0.013892
    57  C   -0.033324
    58  C    0.018507
    59  C   -0.189874
    60  C    0.008931
    61  C    0.002700
    62  C   -0.003114
    63  C    0.026593
    64  C   -0.228213
    65  C   -0.017334
    66  C   -0.023826
    67  H    0.007437
    68  H   -0.031687
    69  H   -0.000261
    70  H    0.023120
    71  H    0.028829
    72  H    0.048672
    73  H    0.038968
    74  H    0.036052
    75  H    0.042490
    76  H    0.068383
    77  H    0.048898
    78  H    0.041977
    79  H    0.063113
    80  H    0.017530
    81  H    0.065009
    82  H    0.062804
    83  H    0.047033
    84  H    0.059525
    85  H    0.044476
    86  H    0.033218
    87  H    0.043898
    88  H    0.049638
    89  H    0.042456
    90  H    0.049392
    91  H    0.039405
    92  H    0.041547
    93  H    0.039359
    94  H    0.034607
    95  H    0.067595
    96  H    0.063661
    97  H    0.019303
    98  H    0.059718
    99  H    0.063431
   100  H    0.082688
   101  H    0.063794
   102  H    0.034345
   103  H    0.037508
   104  H    0.005921
   105  H    0.027803
   106  H    0.040400
   107  H    0.058195
   108  H    0.017657
   109  H    0.043133
   110  H    0.034468
   111  H    0.021345
   112  H    0.023266
   113  H    0.031407
   114  H    0.022982
   115  H    0.005283
   116  H    0.039744
   117  H    0.021895
   118  H    0.024616
   119  H    0.010971
   120  H    0.017493
   121  H    0.016158
   122  H    0.023942
   123  H    0.013603
   124  H    0.020199
   125  H    0.033016
   126  H    0.027965
   127  H    0.023176
   128  H    0.007085
   129  H    0.017049
   130  H    0.020235
   131  H    0.031097
   132  H    0.008435
   133  H    0.017745
   134  H    0.024049
   135  H    0.018150
   136  H    0.041151
   137  H    0.025054
   138  H    0.027606
   139  H    0.025498
   140  H    0.021600
 Sum of Mulliken charges =  -0.00000

 Dipole moment (field-independent basis, Debye):
    X=              1.3153    Y=             -2.8570    Z=             -2.0685  Tot=              3.7645
 Quadrupole moment (field-independent basis, Debye-Ang):
   XX=           -394.5995   YY=           -407.3693   ZZ=           -393.2087
   XY=            -46.9866   XZ=              0.9755   YZ=              4.5517

 Normal termination of Gaussian 16 at Wed May  4 22:09:33 2022.
