 Gaussian 16, Revision A.03,
 Gaussian 16:  ES64L-G16RevA.03 25-Dec-2016

 --------------------
 #p ZINDO=(nstates=5)
 --------------------

 -----------------------------
 step_451_chromophore_20 ZINDO
 -----------------------------
 Symbolic Z-matrix:
 Charge =  0 Multiplicity = 1

                         Standard orientation:
 ---------------------------------------------------------------------
 Center     Atomic      Atomic             Coordinates (Angstroms)
 Number     Number       Type             X           Y           Z
 ---------------------------------------------------------------------
      1         12           0        3.871878   -1.354968    0.686401
      2          6           0        3.816146    2.212851    0.854575
      3          6           0        1.548443   -1.393988    3.200375
      4          6           0        3.478762   -4.502360   -0.018694
      5          6           0        6.458187   -1.041831   -1.789273
      6          7           0        2.619525    0.207641    1.675309
      7          6           0        2.779248    1.614444    1.630282
      8          6           0        1.866806    2.320168    2.613856
      9          6           0        1.517186    1.158988    3.539966
     10          6           0        1.962890   -0.119311    2.793709
     11          6           0        1.893284    1.289763    4.994546
     12          6           0        0.670111    3.014459    1.888536
     13          6           0        0.432583    4.388734    2.360306
     14          6           0       -1.040181    4.830487    2.414918
     15          8           0       -1.652703    5.088031    3.427956
     16          8           0       -1.701428    4.684412    1.167132
     17          7           0        2.688080   -2.746981    1.417994
     18          6           0        1.750854   -2.580369    2.434511
     19          6           0        1.043089   -3.842975    2.696016
     20          6           0        1.494383   -4.778484    1.722009
     21          6           0        2.618833   -4.028348    0.987042
     22          6           0        0.062564   -4.003302    3.719039
     23          6           0        1.018344   -6.153875    1.525536
     24          8           0        0.112136   -6.577948    2.230408
     25          6           0        1.532682   -7.111577    0.483942
     26          7           0        4.825960   -2.535801   -0.741466
     27          6           0        4.481286   -3.812714   -0.778819
     28          6           0        5.317147   -4.602655   -1.769925
     29          6           0        6.329348   -3.586052   -2.222499
     30          6           0        5.865971   -2.311808   -1.492062
     31          6           0        5.855961   -5.955818   -1.188288
     32          6           0        6.337627   -3.472971   -3.765497
     33          6           0        7.812440   -3.224838   -4.365571
     34          7           0        4.982980    0.205844   -0.280463
     35          6           0        5.937118    0.185540   -1.366146
     36          6           0        6.504233    1.560839   -1.448902
     37          6           0        5.697974    2.372643   -0.632950
     38          6           0        4.777703    1.558872    0.056483
     39          6           0        7.720148    1.966860   -2.279955
     40          6           0        5.412645    3.693051   -0.193156
     41          8           0        6.084734    4.716861   -0.279504
     42          6           0        4.078435    3.718465    0.664643
     43          6           0        3.081934    4.414395   -0.100792
     44          8           0        2.536294    3.983663   -1.089761
     45          8           0        2.913187    5.687077    0.273086
     46          6           0        1.977434    6.496654   -0.595539
     47          6           0       -3.026135    5.254072    1.127415
     48          6           0       -3.780600    4.839419   -0.112818
     49          6           0       -3.803321    5.340420   -1.398354
     50          6           0       -2.861381    6.407531   -1.913078
     51          6           0       -4.765771    4.857220   -2.475332
     52          6           0       -4.818239    3.322258   -2.648634
     53          6           0       -6.010303    2.715030   -2.017314
     54          6           0       -6.465270    1.537171   -2.884014
     55          6           0       -7.794293    1.731164   -3.664062
     56          6           0       -6.550231    0.303830   -2.024757
     57          6           0       -6.194886   -0.968191   -2.820802
     58          6           0       -7.394855   -1.924835   -2.978681
     59          6           0       -7.199246   -3.253627   -2.163817
     60          6           0       -6.865791   -4.424223   -3.162430
     61          6           0       -8.213041   -3.530554   -0.972593
     62          6           0       -7.900630   -2.897645    0.410323
     63          6           0       -9.012855   -2.070055    0.967292
     64          6           0      -10.037805   -2.894971    1.848715
     65          6           0      -11.544848   -2.864206    1.348135
     66          6           0       -9.961535   -2.477985    3.354251
     67          1           0        0.954468   -1.432701    4.115402
     68          1           0        3.416288   -5.520139   -0.406568
     69          1           0        7.337689   -1.007877   -2.436502
     70          1           0        2.398679    3.132702    3.108303
     71          1           0        0.428204    1.122706    3.507221
     72          1           0        1.012336    1.734680    5.457990
     73          1           0        2.774531    1.924235    5.088892
     74          1           0        2.149469    0.335049    5.455380
     75          1           0       -0.219148    2.446249    2.161208
     76          1           0        0.979582    3.104644    0.847024
     77          1           0        0.895914    5.053405    1.631920
     78          1           0        0.911057    4.484692    3.334640
     79          1           0       -0.940214   -3.648230    3.481456
     80          1           0        0.348612   -3.340439    4.535010
     81          1           0        0.050271   -4.999825    4.159467
     82          1           0        2.603524   -7.242726    0.641757
     83          1           0        1.406065   -6.557987   -0.446464
     84          1           0        0.938684   -8.020042    0.375983
     85          1           0        4.589540   -4.795504   -2.558810
     86          1           0        7.341176   -3.816056   -1.888520
     87          1           0        5.229227   -6.793006   -1.494077
     88          1           0        5.853445   -5.842378   -0.104253
     89          1           0        6.858811   -6.121108   -1.581767
     90          1           0        5.674905   -2.669542   -4.086948
     91          1           0        6.029491   -4.422774   -4.202630
     92          1           0        8.181268   -4.048203   -4.975802
     93          1           0        8.540081   -2.966026   -3.596730
     94          1           0        7.791362   -2.377678   -5.051687
     95          1           0        8.500734    2.059236   -1.525133
     96          1           0        7.576827    2.822105   -2.940372
     97          1           0        7.934299    1.149611   -2.967957
     98          1           0        4.250971    4.137728    1.656591
     99          1           0        1.545182    7.303499   -0.003461
    100          1           0        1.232847    6.018835   -1.233173
    101          1           0        2.703462    6.918692   -1.290648
    102          1           0       -2.973723    6.341635    1.180874
    103          1           0       -3.577023    4.866543    1.984033
    104          1           0       -4.551835    4.080061    0.012837
    105          1           0       -2.317764    6.932149   -1.127909
    106          1           0       -3.490247    7.130949   -2.431875
    107          1           0       -2.176194    5.915377   -2.602698
    108          1           0       -4.526117    5.394274   -3.392136
    109          1           0       -5.731657    5.128181   -2.048144
    110          1           0       -3.911354    2.860540   -2.259139
    111          1           0       -4.689873    3.187647   -3.723200
    112          1           0       -6.861390    3.362285   -1.804212
    113          1           0       -5.594001    2.307909   -1.096413
    114          1           0       -5.779860    1.430703   -3.724332
    115          1           0       -8.317135    2.550212   -3.169874
    116          1           0       -8.464119    0.872603   -3.706802
    117          1           0       -7.658656    2.175100   -4.650855
    118          1           0       -7.523875    0.196698   -1.546663
    119          1           0       -5.750747    0.317168   -1.284251
    120          1           0       -5.427987   -1.397967   -2.176213
    121          1           0       -5.712814   -0.662941   -3.748550
    122          1           0       -7.527228   -2.045837   -4.053456
    123          1           0       -8.273763   -1.424590   -2.571775
    124          1           0       -6.254952   -3.168398   -1.625704
    125          1           0       -6.625607   -4.014621   -4.143747
    126          1           0       -7.662014   -5.168293   -3.144454
    127          1           0       -5.990696   -4.924823   -2.748883
    128          1           0       -8.300285   -4.596216   -0.763158
    129          1           0       -9.210353   -3.363894   -1.378808
    130          1           0       -7.088496   -2.178472    0.309394
    131          1           0       -7.514436   -3.649694    1.097251
    132          1           0       -9.652301   -1.724115    0.155535
    133          1           0       -8.814795   -1.142600    1.504109
    134          1           0       -9.786579   -3.954763    1.879230
    135          1           0      -12.216034   -3.016562    2.194216
    136          1           0      -11.652163   -3.629832    0.579579
    137          1           0      -11.911941   -1.877979    1.063557
    138          1           0       -9.455812   -3.327851    3.813120
    139          1           0      -10.883369   -2.296805    3.907273
    140          1           0       -9.382039   -1.576262    3.554542
 ---------------------------------------------------------------------

 SCF Done:  E(RZINDO/S) =  -474.433760567     A.U. after   19 cycles

 Excitation energies and oscillator strengths:

 Excited State   1:      Singlet-A      1.2735 eV  973.60 nm  f=0.5275  <S**2>=0.000
     175 ->178        -0.19024
     176 ->177         0.66330
 This state for optimization and/or second-order correction.
 Total Energy, E(CIS/TDA) =  -474.386961740
 Copying the excited state density for this state as the 1-particle RhoCI density.

 Excited State   2:      Singlet-A      1.8810 eV  659.15 nm  f=0.0003  <S**2>=0.000
     175 ->177         0.46988
     176 ->178         0.50445

 Excited State   3:      Singlet-A      2.8414 eV  436.35 nm  f=0.0061  <S**2>=0.000
     168 ->177         0.34527
     168 ->178        -0.17257
     168 ->179        -0.34183
     168 ->180         0.32378
     168 ->184         0.12129
     168 ->185        -0.20022
     168 ->187         0.10564
     168 ->192         0.13831

 Excited State   4:      Singlet-A      2.8948 eV  428.30 nm  f=0.5893  <S**2>=0.000
     175 ->177        -0.29338
     176 ->178         0.32377
     176 ->179         0.50602

 Excited State   5:      Singlet-A      2.9525 eV  419.94 nm  f=0.7442  <S**2>=0.000
     175 ->177         0.38119
     176 ->178        -0.33071
     176 ->179         0.40350
     176 ->180         0.14169
     176 ->183         0.11487

 The electronic state is 1-A.
 Alpha  occ. eigenvalues --   -1.85545  -1.82443  -1.79875  -1.74316  -1.72495
 Alpha  occ. eigenvalues --   -1.70172  -1.67260  -1.60964  -1.60265  -1.57940
 Alpha  occ. eigenvalues --   -1.54961  -1.51520  -1.49322  -1.48066  -1.47093
 Alpha  occ. eigenvalues --   -1.45567  -1.43553  -1.40974  -1.39789  -1.38005
 Alpha  occ. eigenvalues --   -1.37120  -1.33194  -1.32653  -1.31238  -1.27860
 Alpha  occ. eigenvalues --   -1.27070  -1.26583  -1.24025  -1.21408  -1.17839
 Alpha  occ. eigenvalues --   -1.17047  -1.15531  -1.15215  -1.14701  -1.12665
 Alpha  occ. eigenvalues --   -1.11572  -1.10497  -1.09467  -1.04981  -1.04270
 Alpha  occ. eigenvalues --   -1.01677  -1.01361  -0.98696  -0.97598  -0.97145
 Alpha  occ. eigenvalues --   -0.96519  -0.94816  -0.94250  -0.92747  -0.91536
 Alpha  occ. eigenvalues --   -0.91280  -0.90976  -0.89920  -0.88854  -0.88226
 Alpha  occ. eigenvalues --   -0.86352  -0.84593  -0.83886  -0.81634  -0.79716
 Alpha  occ. eigenvalues --   -0.78904  -0.78403  -0.77250  -0.76989  -0.76609
 Alpha  occ. eigenvalues --   -0.76180  -0.75539  -0.74693  -0.74017  -0.73581
 Alpha  occ. eigenvalues --   -0.73157  -0.72850  -0.72142  -0.71857  -0.70645
 Alpha  occ. eigenvalues --   -0.69870  -0.69431  -0.69413  -0.68700  -0.67661
 Alpha  occ. eigenvalues --   -0.66862  -0.66517  -0.65957  -0.65303  -0.64566
 Alpha  occ. eigenvalues --   -0.64393  -0.64095  -0.63989  -0.63773  -0.63543
 Alpha  occ. eigenvalues --   -0.63314  -0.63072  -0.62881  -0.62666  -0.62518
 Alpha  occ. eigenvalues --   -0.62051  -0.61730  -0.61230  -0.60262  -0.60199
 Alpha  occ. eigenvalues --   -0.60064  -0.59014  -0.58920  -0.58587  -0.58218
 Alpha  occ. eigenvalues --   -0.57909  -0.57387  -0.57000  -0.56743  -0.56497
 Alpha  occ. eigenvalues --   -0.55986  -0.55403  -0.55256  -0.55108  -0.55052
 Alpha  occ. eigenvalues --   -0.54577  -0.53885  -0.53683  -0.53245  -0.52846
 Alpha  occ. eigenvalues --   -0.52609  -0.52477  -0.52075  -0.51764  -0.51495
 Alpha  occ. eigenvalues --   -0.51382  -0.51115  -0.50884  -0.50645  -0.50428
 Alpha  occ. eigenvalues --   -0.50122  -0.49896  -0.49560  -0.49316  -0.49005
 Alpha  occ. eigenvalues --   -0.48468  -0.48283  -0.48175  -0.47993  -0.47721
 Alpha  occ. eigenvalues --   -0.47552  -0.47318  -0.46690  -0.46559  -0.46215
 Alpha  occ. eigenvalues --   -0.45971  -0.45676  -0.45561  -0.45410  -0.45099
 Alpha  occ. eigenvalues --   -0.44853  -0.44510  -0.44119  -0.43855  -0.43668
 Alpha  occ. eigenvalues --   -0.43219  -0.42920  -0.42870  -0.42061  -0.42030
 Alpha  occ. eigenvalues --   -0.41859  -0.41276  -0.39517  -0.38948  -0.38611
 Alpha  occ. eigenvalues --   -0.37889  -0.37239  -0.35475  -0.34985  -0.34469
 Alpha  occ. eigenvalues --   -0.34034  -0.32371  -0.31783  -0.31267  -0.26991
 Alpha  occ. eigenvalues --   -0.21607
 Alpha virt. eigenvalues --   -0.08109  -0.02932  -0.00787   0.01030   0.01713
 Alpha virt. eigenvalues --    0.02269   0.02532   0.03163   0.04742   0.04976
 Alpha virt. eigenvalues --    0.06369   0.06696   0.06980   0.07625   0.08165

 Mulliken charges:
               1
     1  Mg   0.432301
     2  C   -0.043902
     3  C   -0.095253
     4  C   -0.101917
     5  C   -0.052830
     6  N   -0.290586
     7  C    0.095909
     8  C    0.002398
     9  C    0.007779
    10  C    0.168206
    11  C   -0.045542
    12  C   -0.021809
    13  C    0.008426
    14  C    0.456306
    15  O   -0.503634
    16  O   -0.279335
    17  N   -0.316407
    18  C    0.129267
    19  C    0.069213
    20  C   -0.052354
    21  C    0.130207
    22  C   -0.027489
    23  C    0.331373
    24  O   -0.533404
    25  C   -0.025428
    26  N   -0.225462
    27  C    0.144097
    28  C   -0.000454
    29  C    0.005800
    30  C    0.093894
    31  C   -0.052654
    32  C   -0.032605
    33  C   -0.068683
    34  N   -0.361282
    35  C    0.049849
    36  C    0.033082
    37  C   -0.044592
    38  C    0.110479
    39  C   -0.039500
    40  C    0.342285
    41  O   -0.539608
    42  C    0.058059
    43  C    0.503996
    44  O   -0.542678
    45  O   -0.266723
    46  C    0.069223
    47  C    0.117772
    48  C   -0.115831
    49  C    0.003222
    50  C   -0.043209
    51  C   -0.028804
    52  C   -0.023338
    53  C   -0.027014
    54  C   -0.012994
    55  C   -0.065364
    56  C   -0.034869
    57  C   -0.047318
    58  C   -0.030594
    59  C   -0.023323
    60  C   -0.060000
    61  C   -0.031737
    62  C   -0.016704
    63  C   -0.028939
    64  C   -0.020825
    65  C   -0.063874
    66  C   -0.064225
    67  H    0.036443
    68  H    0.026257
    69  H    0.031379
    70  H    0.026288
    71  H    0.024949
    72  H    0.025998
    73  H    0.022586
    74  H    0.023284
    75  H    0.037458
    76  H    0.047368
    77  H    0.041571
    78  H    0.037097
    79  H    0.045671
    80  H    0.013507
    81  H    0.043704
    82  H    0.039446
    83  H    0.028532
    84  H    0.046855
    85  H    0.033086
    86  H    0.031121
    87  H    0.022307
    88  H    0.028022
    89  H    0.021399
    90  H    0.032132
    91  H    0.017900
    92  H    0.021633
    93  H    0.022778
    94  H    0.014839
    95  H    0.041954
    96  H    0.040542
    97  H    0.014838
    98  H    0.048507
    99  H    0.034529
   100  H    0.060686
   101  H    0.037347
   102  H    0.042830
   103  H    0.044877
   104  H    0.019137
   105  H    0.020529
   106  H    0.023545
   107  H    0.035533
   108  H    0.025173
   109  H    0.029048
   110  H    0.020789
   111  H    0.013197
   112  H    0.028945
   113  H    0.021337
   114  H    0.022385
   115  H    0.007984
   116  H    0.026636
   117  H    0.014251
   118  H    0.026483
   119  H    0.010631
   120  H    0.015171
   121  H    0.022210
   122  H    0.022338
   123  H    0.017493
   124  H    0.012841
   125  H    0.028046
   126  H    0.021881
   127  H    0.014027
   128  H    0.010408
   129  H    0.019433
   130  H    0.010920
   131  H    0.026202
   132  H    0.010721
   133  H    0.026376
   134  H    0.019592
   135  H    0.014465
   136  H    0.023546
   137  H    0.020610
   138  H    0.012297
   139  H    0.020271
   140  H    0.015781
 Sum of Mulliken charges =  -0.00000

 Dipole moment (field-independent basis, Debye):
    X=              1.3121    Y=             -4.1097    Z=             -0.5783  Tot=              4.3527
 N-N= 4.508763164499D+03 E-N= 0.000000000000D+00  KE=-9.692055231059D+03
 Leave Link  601 at Wed May  4 22:26:03 2022, MaxMem=  6710886400 cpu:               0.7 elap:               0.0
 (Enter /sw/apps/gaussian-16.0/g16/l9999.exe)
 1\1\GINC-BP1-COMPUTE181\SP\RZINDO CIS\STO-3G\C55H74Mg1N4O6\OF15641\04-
 May-2022\0\\#p ZINDO=(nstates=5)\\step_451_chromophore_20 ZINDO\\0,1\M
 g,0,6.638,56.806,41.005\C,0,5.964,53.299,41.091\C,0,9.846,56.049,40.08
 \C,0,6.944,59.959,40.282\C,0,3.283,57.321,42.186\N,0,7.675,54.934,40.3
 66\C,0,7.233,53.596,40.511\C,0,8.319,52.599,40.158\C,0,9.55,53.496,40.
 249\C,0,9.01,54.944,40.285\C,0,10.615,53.119,41.248\C,0,8.051,51.926,3
 8.774\C,0,8.239,50.466,38.8\C,0,8.828,49.846,37.521\O,0,9.914,49.315,3

 Normal termination of Gaussian 16 at Wed May  4 22:26:03 2022.
