 Gaussian 16, Revision A.03,
 Gaussian 16:  ES64L-G16RevA.03 25-Dec-2016

 ------------------------------
 #p blyp/Def2SVP td=(nstates=5)
 ------------------------------

 ---------------------------------------------------
 step_1601_chromophore_21 TDDFT with blyp functional
 ---------------------------------------------------
 Symbolic Z-matrix:
 Charge =  0 Multiplicity = 1

                         Standard orientation:
 ---------------------------------------------------------------------
 Center     Atomic      Atomic             Coordinates (Angstroms)
 Number     Number       Type             X           Y           Z
 ---------------------------------------------------------------------
      1         12           0        5.085400    1.094403    0.006051
      2          6           0        4.870031   -2.313167    0.235953
      3          6           0        1.591292    1.264381   -0.504826
      4          6           0        5.387862    4.398184   -0.126079
      5          6           0        8.645566    0.766174    0.340866
      6          7           0        3.473240   -0.310427   -0.012216
      7          6           0        3.607948   -1.659342    0.285730
      8          6           0        2.231966   -2.364650    0.344869
      9          6           0        1.293916   -1.293637   -0.300465
     10          6           0        2.135322   -0.028154   -0.294890
     11          6           0        0.705472   -1.631475   -1.693610
     12          6           0        2.061295   -2.793348    1.764025
     13          6           0        0.947652   -3.804553    2.104236
     14          6           0       -0.010127   -4.343491    1.009916
     15          8           0        0.165386   -5.312637    0.284527
     16          8           0       -1.061408   -3.459098    0.833922
     17          7           0        3.620341    2.670159   -0.185791
     18          6           0        2.298955    2.530447   -0.397680
     19          6           0        1.719520    3.858542   -0.446485
     20          6           0        2.822441    4.749980   -0.425058
     21          6           0        4.006004    3.991900   -0.225141
     22          6           0        0.215098    4.087907   -0.553871
     23          6           0        2.786138    6.214228   -0.441586
     24          8           0        3.744129    6.913530   -0.270342
     25          6           0        1.464373    6.915999   -0.725470
     26          7           0        6.777221    2.355290    0.121474
     27          6           0        6.569116    3.689909   -0.014927
     28          6           0        7.934935    4.402112   -0.147566
     29          6           0        8.908838    3.256899    0.285114
     30          6           0        8.064244    2.012955    0.319837
     31          6           0        8.163311    5.005764   -1.550698
     32          6           0        9.538509    3.425971    1.672237
     33          6           0       11.105098    3.824606    1.722749
     34          7           0        6.489911   -0.423079    0.139649
     35          6           0        7.864524   -0.436937    0.300997
     36          6           0        8.386186   -1.765964    0.237662
     37          6           0        7.200869   -2.505068    0.286817
     38          6           0        6.111603   -1.628188    0.217943
     39          6           0        9.767991   -2.273677    0.209118
     40          6           0        6.678366   -3.930193    0.287840
     41          8           0        7.242715   -4.990516    0.161318
     42          6           0        5.159630   -3.863030    0.273832
     43          6           0        4.799293   -4.515106   -1.008086
     44          8           0        5.185001   -4.146235   -2.115690
     45          8           0        3.889150   -5.534029   -0.792251
     46          6           0        3.061320   -6.002023   -1.923193
     47          6           0       -1.959957   -3.800101   -0.247777
     48          6           0       -2.751277   -2.616549   -0.583944
     49          6           0       -3.842558   -2.428438   -1.340704
     50          6           0       -4.659847   -3.525035   -2.071166
     51          6           0       -4.542013   -1.067835   -1.450027
     52          6           0       -5.114854   -0.414402   -0.120283
     53          6           0       -5.936902   -1.305077    0.831406
     54          6           0       -7.211687   -0.593459    1.361099
     55          6           0       -7.392673   -0.768912    2.861069
     56          6           0       -8.406688   -1.078908    0.603216
     57          6           0       -9.546572   -0.027100    0.476077
     58          6           0      -10.952554   -0.663623    0.591940
     59          6           0      -11.987647    0.486744    0.730128
     60          6           0      -12.347804    0.726438    2.278348
     61          6           0      -13.255608    0.155703   -0.160571
     62          6           0      -14.074099    1.381952   -0.669631
     63          6           0      -15.424619    1.508157   -0.023397
     64          6           0      -16.391537    2.389252   -0.833168
     65          6           0      -16.911405    3.580340    0.056946
     66          6           0      -17.465304    1.558264   -1.513411
     67          1           0        0.526671    1.202670   -0.737028
     68          1           0        5.649116    5.439506   -0.326449
     69          1           0        9.731458    0.665163    0.297064
     70          1           0        2.251253   -3.237309   -0.307865
     71          1           0        0.539635   -1.111337    0.465682
     72          1           0       -0.349614   -1.425048   -1.510056
     73          1           0        0.819782   -2.684200   -1.950167
     74          1           0        1.148020   -1.060778   -2.510302
     75          1           0        1.902538   -1.937758    2.420036
     76          1           0        2.923717   -3.282925    2.216069
     77          1           0        0.453858   -3.417783    2.996154
     78          1           0        1.446628   -4.700801    2.473535
     79          1           0       -0.214750    4.790472    0.159805
     80          1           0       -0.380899    3.179361   -0.648025
     81          1           0        0.092198    4.526508   -1.544150
     82          1           0        0.702762    6.792687    0.044125
     83          1           0        1.195287    6.590434   -1.730072
     84          1           0        1.696632    7.958686   -0.509291
     85          1           0        7.956202    5.178383    0.617091
     86          1           0        9.592869    3.222948   -0.563322
     87          1           0        9.211471    4.975662   -1.849041
     88          1           0        7.921442    6.066679   -1.610185
     89          1           0        7.614672    4.498736   -2.343743
     90          1           0        9.437141    2.478146    2.202494
     91          1           0        8.868958    4.067029    2.245453
     92          1           0       11.496072    4.693572    1.192557
     93          1           0       11.737512    2.941420    1.627512
     94          1           0       11.211153    4.165663    2.752778
     95          1           0       10.079686   -2.670249    1.175191
     96          1           0       10.467774   -1.572114   -0.245317
     97          1           0        9.720533   -3.076224   -0.526667
     98          1           0        4.800854   -4.366366    1.172443
     99          1           0        2.048065   -5.710338   -1.646161
    100          1           0        3.035619   -7.080949   -2.074682
    101          1           0        3.226231   -5.452404   -2.850287
    102          1           0       -2.623079   -4.622448    0.020951
    103          1           0       -1.297188   -4.022750   -1.084687
    104          1           0       -2.543325   -1.724445    0.007434
    105          1           0       -5.034849   -3.226973   -3.049970
    106          1           0       -5.477096   -3.808442   -1.408527
    107          1           0       -3.971769   -4.369206   -2.118359
    108          1           0       -5.330661   -0.960874   -2.195186
    109          1           0       -3.923714   -0.343588   -1.981148
    110          1           0       -5.627669    0.497532   -0.426278
    111          1           0       -4.215950   -0.059371    0.383821
    112          1           0       -5.326106   -1.368506    1.732143
    113          1           0       -6.170178   -2.315760    0.499103
    114          1           0       -7.074051    0.487812    1.376063
    115          1           0       -7.035537   -1.725847    3.241882
    116          1           0       -8.459158   -0.868647    3.064868
    117          1           0       -6.724721   -0.114783    3.421126
    118          1           0       -8.678979   -2.110337    0.827550
    119          1           0       -8.050184   -1.217800   -0.416835
    120          1           0       -9.566672    0.540812   -0.453268
    121          1           0       -9.480768    0.720560    1.266421
    122          1           0      -10.892049   -1.172030    1.554218
    123          1           0      -11.173021   -1.351782   -0.223804
    124          1           0      -11.505418    1.422878    0.447620
    125          1           0      -13.383156    0.546405    2.568024
    126          1           0      -12.075196    1.772447    2.411299
    127          1           0      -11.744614    0.129091    2.961194
    128          1           0      -13.839678   -0.602242    0.361962
    129          1           0      -12.904743   -0.431537   -1.010100
    130          1           0      -14.078207    1.204872   -1.745314
    131          1           0      -13.397381    2.215874   -0.480496
    132          1           0      -15.357007    1.954823    0.969404
    133          1           0      -15.842612    0.504856    0.050825
    134          1           0      -15.754141    2.753526   -1.639188
    135          1           0      -17.067482    3.346113    1.110526
    136          1           0      -17.850389    4.038802   -0.254817
    137          1           0      -16.106718    4.316004    0.038880
    138          1           0      -17.170786    1.110539   -2.462511
    139          1           0      -18.379315    2.125629   -1.689758
    140          1           0      -17.810274    0.688903   -0.954107
 ---------------------------------------------------------------------

 SCF Done:  E(RB-LYP) =  -3007.36870166     A.U. after   21 cycles

 Excitation energies and oscillator strengths:

 Excited State   1:      Singlet-A      1.7510 eV  708.06 nm  f=0.0101  <S**2>=0.000
     244 -> 247        0.68995
     246 -> 247        0.12914
 This state for optimization and/or second-order correction.
 Total Energy, E(TD-HF/TD-DFT) =  -3007.30435227
 Copying the excited state density for this state as the 1-particle RhoCI density.

 Excited State   2:      Singlet-A      1.8487 eV  670.64 nm  f=0.3105  <S**2>=0.000
     244 -> 247       -0.12501
     245 -> 248        0.19358
     246 -> 247        0.67901
     246 <- 247       -0.15289

 Excited State   3:      Singlet-A      1.9172 eV  646.71 nm  f=0.0154  <S**2>=0.000
     243 -> 247        0.62122
     245 -> 247       -0.31618

 Excited State   4:      Singlet-A      2.0792 eV  596.32 nm  f=0.0841  <S**2>=0.000
     243 -> 247        0.32610
     245 -> 247        0.56902
     246 -> 248       -0.23938

 Excited State   5:      Singlet-A      2.5168 eV  492.62 nm  f=0.0051  <S**2>=0.000
     240 -> 247       -0.35273
     241 -> 247       -0.12143
     242 -> 247        0.58876

 The electronic state is 1-A.
 Alpha  occ. eigenvalues --  -46.26682 -18.83176 -18.81537 -18.78528 -18.76198
 Alpha  occ. eigenvalues --  -18.75617 -18.74765 -14.03494 -14.02681 -14.00710
 Alpha  occ. eigenvalues --  -14.00499 -10.05558 -10.03785  -9.99353  -9.98678
 Alpha  occ. eigenvalues --   -9.98461  -9.96903  -9.96898  -9.96652  -9.95802
 Alpha  occ. eigenvalues --   -9.95775  -9.95534  -9.95460  -9.95366  -9.94173
 Alpha  occ. eigenvalues --   -9.94133  -9.94125  -9.94105  -9.94025  -9.94001
 Alpha  occ. eigenvalues --   -9.93984  -9.93838  -9.93644  -9.93447  -9.93104
 Alpha  occ. eigenvalues --   -9.93072  -9.92961  -9.92956  -9.92854  -9.92745
 Alpha  occ. eigenvalues --   -9.92740  -9.92507  -9.92458  -9.92446  -9.92310
 Alpha  occ. eigenvalues --   -9.92305  -9.92191  -9.92165  -9.92156  -9.91969
 Alpha  occ. eigenvalues --   -9.91899  -9.91726  -9.91656  -9.91489  -9.91477
 Alpha  occ. eigenvalues --   -9.91231  -9.91118  -9.91111  -9.91028  -9.90999
 Alpha  occ. eigenvalues --   -9.90964  -9.90854  -9.90809  -9.90722  -9.90574
 Alpha  occ. eigenvalues --   -9.90561  -2.91306  -1.71763  -1.71184  -1.71000
 Alpha  occ. eigenvalues --   -0.99093  -0.96425  -0.92299  -0.92088  -0.91270
 Alpha  occ. eigenvalues --   -0.88860  -0.88270  -0.86097  -0.85521  -0.84684
 Alpha  occ. eigenvalues --   -0.74811  -0.74163  -0.73726  -0.73112  -0.72530
 Alpha  occ. eigenvalues --   -0.72093  -0.71328  -0.70995  -0.70923  -0.70593
 Alpha  occ. eigenvalues --   -0.69929  -0.69446  -0.68362  -0.67333  -0.67033
 Alpha  occ. eigenvalues --   -0.66440  -0.65584  -0.65118  -0.64862  -0.64069
 Alpha  occ. eigenvalues --   -0.63920  -0.62938  -0.62632  -0.61789  -0.60986
 Alpha  occ. eigenvalues --   -0.60889  -0.60456  -0.60167  -0.59817  -0.59373
 Alpha  occ. eigenvalues --   -0.59054  -0.58000  -0.56982  -0.55950  -0.54787
 Alpha  occ. eigenvalues --   -0.54229  -0.53577  -0.52787  -0.52487  -0.51650
 Alpha  occ. eigenvalues --   -0.51167  -0.50885  -0.50668  -0.50471  -0.50233
 Alpha  occ. eigenvalues --   -0.50224  -0.49621  -0.49059  -0.48451  -0.47072
 Alpha  occ. eigenvalues --   -0.46306  -0.45985  -0.45713  -0.45623  -0.44885
 Alpha  occ. eigenvalues --   -0.44213  -0.44075  -0.43336  -0.42745  -0.42390
 Alpha  occ. eigenvalues --   -0.42169  -0.41748  -0.41546  -0.41088  -0.41023
 Alpha  occ. eigenvalues --   -0.40935  -0.40613  -0.40489  -0.40365  -0.40218
 Alpha  occ. eigenvalues --   -0.39923  -0.39720  -0.39633  -0.39418  -0.39230
 Alpha  occ. eigenvalues --   -0.39127  -0.38837  -0.38716  -0.38474  -0.38315
 Alpha  occ. eigenvalues --   -0.38088  -0.37801  -0.37679  -0.37602  -0.37270
 Alpha  occ. eigenvalues --   -0.37156  -0.37015  -0.36803  -0.36752  -0.36519
 Alpha  occ. eigenvalues --   -0.36258  -0.36193  -0.36028  -0.35788  -0.35429
 Alpha  occ. eigenvalues --   -0.35327  -0.35259  -0.35087  -0.34980  -0.34739
 Alpha  occ. eigenvalues --   -0.34526  -0.34495  -0.34258  -0.34193  -0.34018
 Alpha  occ. eigenvalues --   -0.33965  -0.33821  -0.33559  -0.33431  -0.33245
 Alpha  occ. eigenvalues --   -0.33119  -0.33079  -0.32882  -0.32853  -0.32797
 Alpha  occ. eigenvalues --   -0.32645  -0.32320  -0.31992  -0.31942  -0.31716
 Alpha  occ. eigenvalues --   -0.31529  -0.31288  -0.31178  -0.30897  -0.30768
 Alpha  occ. eigenvalues --   -0.30614  -0.30351  -0.30184  -0.30130  -0.29652
 Alpha  occ. eigenvalues --   -0.29641  -0.29289  -0.29226  -0.29009  -0.28761
 Alpha  occ. eigenvalues --   -0.28745  -0.28363  -0.27992  -0.27703  -0.27668
 Alpha  occ. eigenvalues --   -0.27512  -0.27096  -0.27026  -0.26787  -0.26719
 Alpha  occ. eigenvalues --   -0.26282  -0.26208  -0.25854  -0.25811  -0.25681
 Alpha  occ. eigenvalues --   -0.25209  -0.25149  -0.24099  -0.23595  -0.23362
 Alpha  occ. eigenvalues --   -0.23263  -0.22797  -0.22177  -0.21621  -0.20870
 Alpha  occ. eigenvalues --   -0.20833  -0.20280  -0.18610  -0.17978  -0.17194
 Alpha  occ. eigenvalues --   -0.15883
 Alpha virt. eigenvalues --   -0.11586  -0.06380  -0.05472  -0.04601  -0.03931
 Alpha virt. eigenvalues --   -0.02766  -0.02543  -0.01329  -0.00682   0.00099
 Alpha virt. eigenvalues --    0.00796   0.01402   0.02210   0.02398   0.02730

 Mulliken charges:
               1
     1  Mg   0.685197
     2  C   -0.082892
     3  C   -0.050828
     4  C    0.014074
     5  C   -0.100178
     6  N   -0.254230
     7  C   -0.061295
     8  C    0.014949
     9  C    0.034369
    10  C   -0.023118
    11  C    0.134278
    12  C    0.119742
    13  C    0.154865
    14  C    0.087693
    15  O   -0.183944
    16  O   -0.283445
    17  N   -0.252928
    18  C    0.123818
    19  C   -0.150536
    20  C    0.082811
    21  C    0.090893
    22  C    0.196174
    23  C   -0.144554
    24  O   -0.141650
    25  C    0.133443
    26  N   -0.214907
    27  C   -0.037500
    28  C    0.019803
    29  C    0.041783
    30  C    0.038201
    31  C    0.127038
    32  C    0.100617
    33  C    0.062689
    34  N   -0.198861
    35  C    0.092586
    36  C   -0.196592
    37  C    0.041562
    38  C    0.129252
    39  C    0.184781
    40  C   -0.069379
    41  O   -0.115873
    42  C    0.151186
    43  C    0.113149
    44  O   -0.180235
    45  O   -0.278351
    46  C    0.201253
    47  C    0.342758
    48  C   -0.111568
    49  C   -0.157745
    50  C    0.136640
    51  C    0.111066
    52  C    0.053306
    53  C    0.162871
    54  C   -0.104575
    55  C    0.117572
    56  C    0.156816
    57  C    0.030257
    58  C    0.098152
    59  C   -0.089182
    60  C    0.087692
    61  C    0.074641
    62  C    0.095266
    63  C    0.121924
    64  C   -0.049596
    65  C    0.083183
    66  C    0.096058
    67  H   -0.068559
    68  H   -0.046274
    69  H   -0.051032
    70  H   -0.019584
    71  H   -0.029291
    72  H    0.007860
    73  H   -0.001995
    74  H    0.006764
    75  H   -0.031948
    76  H   -0.015915
    77  H   -0.013103
    78  H   -0.011187
    79  H    0.006257
    80  H   -0.020515
    81  H   -0.012831
    82  H   -0.008904
    83  H    0.016577
    84  H   -0.021563
    85  H   -0.029423
    86  H   -0.036265
    87  H   -0.016319
    88  H   -0.001182
    89  H   -0.003651
    90  H   -0.023146
    91  H   -0.028039
    92  H    0.000015
    93  H    0.002843
    94  H   -0.017791
    95  H    0.019556
    96  H   -0.017237
    97  H    0.010488
    98  H   -0.007857
    99  H    0.011879
   100  H    0.024538
   101  H    0.014814
   102  H    0.012343
   103  H    0.006181
   104  H   -0.022836
   105  H    0.005808
   106  H    0.005774
   107  H   -0.017147
   108  H   -0.050056
   109  H   -0.037648
   110  H   -0.028007
   111  H   -0.026974
   112  H   -0.054929
   113  H   -0.025153
   114  H   -0.037775
   115  H   -0.044472
   116  H   -0.017354
   117  H   -0.016930
   118  H   -0.032935
   119  H   -0.053838
   120  H   -0.025597
   121  H   -0.028351
   122  H   -0.035972
   123  H   -0.026225
   124  H   -0.030161
   125  H   -0.005836
   126  H   -0.016714
   127  H   -0.017502
   128  H   -0.038989
   129  H   -0.049880
   130  H   -0.032396
   131  H   -0.035211
   132  H   -0.033141
   133  H   -0.036938
   134  H   -0.033272
   135  H   -0.012757
   136  H   -0.016912
   137  H   -0.013419
   138  H   -0.021073
   139  H   -0.025552
   140  H   -0.026577
 Sum of Mulliken charges =  -0.00000

 Dipole moment (field-independent basis, Debye):
    X=             -4.5675    Y=              1.6256    Z=              1.0775  Tot=              4.9664
 Quadrupole moment (field-independent basis, Debye-Ang):
   XX=           -396.6531   YY=           -448.2707   ZZ=           -400.5159
   XY=             30.0189   XZ=             14.9286   YZ=             -4.3609

 Normal termination of Gaussian 16 at Thu Apr 28 15:25:01 2022.
