 Gaussian 16, Revision A.03,
 Gaussian 16:  ES64L-G16RevA.03 25-Dec-2016

 -----------------------------------
 #p cam-b3lyp/Def2SVP td=(nstates=5)
 -----------------------------------

 --------------------------------------------------------
 step_1601_chromophore_21 TDDFT with cam-b3lyp functional
 --------------------------------------------------------
 Symbolic Z-matrix:
 Charge =  0 Multiplicity = 1

                         Standard orientation:
 ---------------------------------------------------------------------
 Center     Atomic      Atomic             Coordinates (Angstroms)
 Number     Number       Type             X           Y           Z
 ---------------------------------------------------------------------
      1         12           0        5.085400    1.094403    0.006051
      2          6           0        4.870031   -2.313167    0.235953
      3          6           0        1.591292    1.264381   -0.504826
      4          6           0        5.387862    4.398184   -0.126079
      5          6           0        8.645566    0.766174    0.340866
      6          7           0        3.473240   -0.310427   -0.012216
      7          6           0        3.607948   -1.659342    0.285730
      8          6           0        2.231966   -2.364650    0.344869
      9          6           0        1.293916   -1.293637   -0.300465
     10          6           0        2.135322   -0.028154   -0.294890
     11          6           0        0.705472   -1.631475   -1.693610
     12          6           0        2.061295   -2.793348    1.764025
     13          6           0        0.947652   -3.804553    2.104236
     14          6           0       -0.010127   -4.343491    1.009916
     15          8           0        0.165386   -5.312637    0.284527
     16          8           0       -1.061408   -3.459098    0.833922
     17          7           0        3.620341    2.670159   -0.185791
     18          6           0        2.298955    2.530447   -0.397680
     19          6           0        1.719520    3.858542   -0.446485
     20          6           0        2.822441    4.749980   -0.425058
     21          6           0        4.006004    3.991900   -0.225141
     22          6           0        0.215098    4.087907   -0.553871
     23          6           0        2.786138    6.214228   -0.441586
     24          8           0        3.744129    6.913530   -0.270342
     25          6           0        1.464373    6.915999   -0.725470
     26          7           0        6.777221    2.355290    0.121474
     27          6           0        6.569116    3.689909   -0.014927
     28          6           0        7.934935    4.402112   -0.147566
     29          6           0        8.908838    3.256899    0.285114
     30          6           0        8.064244    2.012955    0.319837
     31          6           0        8.163311    5.005764   -1.550698
     32          6           0        9.538509    3.425971    1.672237
     33          6           0       11.105098    3.824606    1.722749
     34          7           0        6.489911   -0.423079    0.139649
     35          6           0        7.864524   -0.436937    0.300997
     36          6           0        8.386186   -1.765964    0.237662
     37          6           0        7.200869   -2.505068    0.286817
     38          6           0        6.111603   -1.628188    0.217943
     39          6           0        9.767991   -2.273677    0.209118
     40          6           0        6.678366   -3.930193    0.287840
     41          8           0        7.242715   -4.990516    0.161318
     42          6           0        5.159630   -3.863030    0.273832
     43          6           0        4.799293   -4.515106   -1.008086
     44          8           0        5.185001   -4.146235   -2.115690
     45          8           0        3.889150   -5.534029   -0.792251
     46          6           0        3.061320   -6.002023   -1.923193
     47          6           0       -1.959957   -3.800101   -0.247777
     48          6           0       -2.751277   -2.616549   -0.583944
     49          6           0       -3.842558   -2.428438   -1.340704
     50          6           0       -4.659847   -3.525035   -2.071166
     51          6           0       -4.542013   -1.067835   -1.450027
     52          6           0       -5.114854   -0.414402   -0.120283
     53          6           0       -5.936902   -1.305077    0.831406
     54          6           0       -7.211687   -0.593459    1.361099
     55          6           0       -7.392673   -0.768912    2.861069
     56          6           0       -8.406688   -1.078908    0.603216
     57          6           0       -9.546572   -0.027100    0.476077
     58          6           0      -10.952554   -0.663623    0.591940
     59          6           0      -11.987647    0.486744    0.730128
     60          6           0      -12.347804    0.726438    2.278348
     61          6           0      -13.255608    0.155703   -0.160571
     62          6           0      -14.074099    1.381952   -0.669631
     63          6           0      -15.424619    1.508157   -0.023397
     64          6           0      -16.391537    2.389252   -0.833168
     65          6           0      -16.911405    3.580340    0.056946
     66          6           0      -17.465304    1.558264   -1.513411
     67          1           0        0.526671    1.202670   -0.737028
     68          1           0        5.649116    5.439506   -0.326449
     69          1           0        9.731458    0.665163    0.297064
     70          1           0        2.251253   -3.237309   -0.307865
     71          1           0        0.539635   -1.111337    0.465682
     72          1           0       -0.349614   -1.425048   -1.510056
     73          1           0        0.819782   -2.684200   -1.950167
     74          1           0        1.148020   -1.060778   -2.510302
     75          1           0        1.902538   -1.937758    2.420036
     76          1           0        2.923717   -3.282925    2.216069
     77          1           0        0.453858   -3.417783    2.996154
     78          1           0        1.446628   -4.700801    2.473535
     79          1           0       -0.214750    4.790472    0.159805
     80          1           0       -0.380899    3.179361   -0.648025
     81          1           0        0.092198    4.526508   -1.544150
     82          1           0        0.702762    6.792687    0.044125
     83          1           0        1.195287    6.590434   -1.730072
     84          1           0        1.696632    7.958686   -0.509291
     85          1           0        7.956202    5.178383    0.617091
     86          1           0        9.592869    3.222948   -0.563322
     87          1           0        9.211471    4.975662   -1.849041
     88          1           0        7.921442    6.066679   -1.610185
     89          1           0        7.614672    4.498736   -2.343743
     90          1           0        9.437141    2.478146    2.202494
     91          1           0        8.868958    4.067029    2.245453
     92          1           0       11.496072    4.693572    1.192557
     93          1           0       11.737512    2.941420    1.627512
     94          1           0       11.211153    4.165663    2.752778
     95          1           0       10.079686   -2.670249    1.175191
     96          1           0       10.467774   -1.572114   -0.245317
     97          1           0        9.720533   -3.076224   -0.526667
     98          1           0        4.800854   -4.366366    1.172443
     99          1           0        2.048065   -5.710338   -1.646161
    100          1           0        3.035619   -7.080949   -2.074682
    101          1           0        3.226231   -5.452404   -2.850287
    102          1           0       -2.623079   -4.622448    0.020951
    103          1           0       -1.297188   -4.022750   -1.084687
    104          1           0       -2.543325   -1.724445    0.007434
    105          1           0       -5.034849   -3.226973   -3.049970
    106          1           0       -5.477096   -3.808442   -1.408527
    107          1           0       -3.971769   -4.369206   -2.118359
    108          1           0       -5.330661   -0.960874   -2.195186
    109          1           0       -3.923714   -0.343588   -1.981148
    110          1           0       -5.627669    0.497532   -0.426278
    111          1           0       -4.215950   -0.059371    0.383821
    112          1           0       -5.326106   -1.368506    1.732143
    113          1           0       -6.170178   -2.315760    0.499103
    114          1           0       -7.074051    0.487812    1.376063
    115          1           0       -7.035537   -1.725847    3.241882
    116          1           0       -8.459158   -0.868647    3.064868
    117          1           0       -6.724721   -0.114783    3.421126
    118          1           0       -8.678979   -2.110337    0.827550
    119          1           0       -8.050184   -1.217800   -0.416835
    120          1           0       -9.566672    0.540812   -0.453268
    121          1           0       -9.480768    0.720560    1.266421
    122          1           0      -10.892049   -1.172030    1.554218
    123          1           0      -11.173021   -1.351782   -0.223804
    124          1           0      -11.505418    1.422878    0.447620
    125          1           0      -13.383156    0.546405    2.568024
    126          1           0      -12.075196    1.772447    2.411299
    127          1           0      -11.744614    0.129091    2.961194
    128          1           0      -13.839678   -0.602242    0.361962
    129          1           0      -12.904743   -0.431537   -1.010100
    130          1           0      -14.078207    1.204872   -1.745314
    131          1           0      -13.397381    2.215874   -0.480496
    132          1           0      -15.357007    1.954823    0.969404
    133          1           0      -15.842612    0.504856    0.050825
    134          1           0      -15.754141    2.753526   -1.639188
    135          1           0      -17.067482    3.346113    1.110526
    136          1           0      -17.850389    4.038802   -0.254817
    137          1           0      -16.106718    4.316004    0.038880
    138          1           0      -17.170786    1.110539   -2.462511
    139          1           0      -18.379315    2.125629   -1.689758
    140          1           0      -17.810274    0.688903   -0.954107
 ---------------------------------------------------------------------

 SCF Done:  E(RCAM-B3LYP) =  -3007.17127494     A.U. after   19 cycles

 Excitation energies and oscillator strengths:

 Excited State   1:      Singlet-A      1.7052 eV  727.09 nm  f=0.3974  <S**2>=0.000
     245 -> 248       -0.17494
     246 -> 247        0.68841
     245 <- 248       -0.10884
 This state for optimization and/or second-order correction.
 Total Energy, E(TD-HF/TD-DFT) =  -3007.10860969
 Copying the excited state density for this state as the 1-particle RhoCI density.

 Excited State   2:      Singlet-A      2.2222 eV  557.94 nm  f=0.1574  <S**2>=0.000
     245 -> 247        0.65342
     246 -> 248        0.26215

 Excited State   3:      Singlet-A      3.3277 eV  372.58 nm  f=0.0006  <S**2>=0.000
     242 -> 247       -0.14392
     244 -> 247        0.66442
     246 -> 248       -0.11526

 Excited State   4:      Singlet-A      3.5065 eV  353.59 nm  f=0.0116  <S**2>=0.000
     239 -> 247       -0.11219
     240 -> 247        0.57476
     240 -> 249        0.23268
     240 -> 251       -0.13413
     242 -> 247       -0.14658
     246 -> 248        0.16659

 Excited State   5:      Singlet-A      3.5124 eV  352.99 nm  f=0.0025  <S**2>=0.000
     240 -> 247        0.10927
     240 -> 249        0.10894
     242 -> 247        0.65406
     244 -> 247        0.11358

 The electronic state is 1-A.
 Alpha  occ. eigenvalues --  -46.88207 -19.26049 -19.24463 -19.21588 -19.19310
 Alpha  occ. eigenvalues --  -19.19028 -19.17844 -14.42334 -14.41562 -14.39056
 Alpha  occ. eigenvalues --  -14.38986 -10.40969 -10.39284 -10.34789 -10.33428
 Alpha  occ. eigenvalues --  -10.32652 -10.31631 -10.31046 -10.30908 -10.30198
 Alpha  occ. eigenvalues --  -10.30074 -10.29823 -10.29622 -10.29615 -10.28445
 Alpha  occ. eigenvalues --  -10.28428 -10.28407 -10.28227 -10.28210 -10.28062
 Alpha  occ. eigenvalues --  -10.28021 -10.27971 -10.27966 -10.27567 -10.27475
 Alpha  occ. eigenvalues --  -10.26978 -10.26931 -10.26882 -10.26713 -10.26535
 Alpha  occ. eigenvalues --  -10.26414 -10.26364 -10.26238 -10.26210 -10.26178
 Alpha  occ. eigenvalues --  -10.26156 -10.26128 -10.25977 -10.25973 -10.25582
 Alpha  occ. eigenvalues --  -10.25561 -10.25528 -10.25382 -10.25320 -10.25180
 Alpha  occ. eigenvalues --  -10.24992 -10.24933 -10.24860 -10.24748 -10.24722
 Alpha  occ. eigenvalues --  -10.24683 -10.24663 -10.24538 -10.24385 -10.24339
 Alpha  occ. eigenvalues --  -10.24130  -3.16738  -1.91671  -1.91198  -1.91025
 Alpha  occ. eigenvalues --   -1.17568  -1.14971  -1.10710  -1.10655  -1.09167
 Alpha  occ. eigenvalues --   -1.06793  -1.06145  -1.03759  -1.03044  -1.02204
 Alpha  occ. eigenvalues --   -0.92019  -0.91037  -0.90553  -0.89894  -0.89261
 Alpha  occ. eigenvalues --   -0.88833  -0.87933  -0.87659  -0.87525  -0.87117
 Alpha  occ. eigenvalues --   -0.86471  -0.85773  -0.84569  -0.83536  -0.83164
 Alpha  occ. eigenvalues --   -0.82521  -0.81467  -0.81036  -0.80748  -0.79914
 Alpha  occ. eigenvalues --   -0.79774  -0.78673  -0.78290  -0.77302  -0.76452
 Alpha  occ. eigenvalues --   -0.76261  -0.75829  -0.75445  -0.75104  -0.74569
 Alpha  occ. eigenvalues --   -0.74183  -0.73053  -0.71869  -0.70740  -0.69371
 Alpha  occ. eigenvalues --   -0.68840  -0.68195  -0.67220  -0.66839  -0.65735
 Alpha  occ. eigenvalues --   -0.65224  -0.65067  -0.64697  -0.64393  -0.64257
 Alpha  occ. eigenvalues --   -0.64200  -0.63609  -0.62960  -0.62235  -0.60709
 Alpha  occ. eigenvalues --   -0.59814  -0.59664  -0.59243  -0.59012  -0.58547
 Alpha  occ. eigenvalues --   -0.57499  -0.57419  -0.56675  -0.55899  -0.55344
 Alpha  occ. eigenvalues --   -0.55147  -0.54909  -0.54744  -0.54136  -0.54064
 Alpha  occ. eigenvalues --   -0.53612  -0.53496  -0.53081  -0.53018  -0.52929
 Alpha  occ. eigenvalues --   -0.52539  -0.52399  -0.52384  -0.52055  -0.51978
 Alpha  occ. eigenvalues --   -0.51817  -0.51605  -0.51367  -0.50851  -0.50631
 Alpha  occ. eigenvalues --   -0.50393  -0.50212  -0.49929  -0.49790  -0.49715
 Alpha  occ. eigenvalues --   -0.49397  -0.49298  -0.49131  -0.48914  -0.48828
 Alpha  occ. eigenvalues --   -0.48625  -0.48549  -0.48269  -0.48205  -0.47893
 Alpha  occ. eigenvalues --   -0.47401  -0.47080  -0.47033  -0.46816  -0.46759
 Alpha  occ. eigenvalues --   -0.46449  -0.46292  -0.46171  -0.45945  -0.45912
 Alpha  occ. eigenvalues --   -0.45720  -0.45661  -0.45265  -0.45188  -0.45129
 Alpha  occ. eigenvalues --   -0.45054  -0.44939  -0.44659  -0.44501  -0.44379
 Alpha  occ. eigenvalues --   -0.44325  -0.43956  -0.43629  -0.43586  -0.43424
 Alpha  occ. eigenvalues --   -0.43052  -0.42829  -0.42582  -0.42515  -0.42267
 Alpha  occ. eigenvalues --   -0.42015  -0.41590  -0.41488  -0.41302  -0.41096
 Alpha  occ. eigenvalues --   -0.41029  -0.40769  -0.40508  -0.40300  -0.40239
 Alpha  occ. eigenvalues --   -0.39775  -0.39459  -0.38925  -0.38770  -0.38528
 Alpha  occ. eigenvalues --   -0.38369  -0.38247  -0.37868  -0.37768  -0.37493
 Alpha  occ. eigenvalues --   -0.37254  -0.36881  -0.36578  -0.36536  -0.36318
 Alpha  occ. eigenvalues --   -0.36302  -0.35767  -0.35591  -0.35463  -0.34156
 Alpha  occ. eigenvalues --   -0.33821  -0.33553  -0.32893  -0.31324  -0.30715
 Alpha  occ. eigenvalues --   -0.30500  -0.30362  -0.30135  -0.29404  -0.23941
 Alpha  occ. eigenvalues --   -0.21225
 Alpha virt. eigenvalues --   -0.08870  -0.01094   0.01225   0.03076   0.03222
 Alpha virt. eigenvalues --    0.03944   0.04598   0.04889   0.05491   0.06778
 Alpha virt. eigenvalues --    0.07591   0.07891   0.08707   0.08888   0.09115

 Mulliken charges:
               1
     1  Mg   0.821401
     2  C   -0.104981
     3  C   -0.061589
     4  C   -0.000790
     5  C   -0.095568
     6  N   -0.326698
     7  C   -0.017744
     8  C   -0.039070
     9  C   -0.023176
    10  C   -0.001734
    11  C    0.080593
    12  C    0.070181
    13  C    0.091638
    14  C    0.159569
    15  O   -0.224613
    16  O   -0.345459
    17  N   -0.339518
    18  C    0.130547
    19  C   -0.156952
    20  C    0.007269
    21  C    0.112857
    22  C    0.137953
    23  C   -0.062045
    24  O   -0.184571
    25  C    0.050240
    26  N   -0.289463
    27  C   -0.016897
    28  C   -0.034538
    29  C   -0.019919
    30  C    0.051485
    31  C    0.066973
    32  C    0.042561
    33  C    0.003328
    34  N   -0.292147
    35  C    0.094100
    36  C   -0.190424
    37  C   -0.037713
    38  C    0.165500
    39  C    0.131340
    40  C    0.035228
    41  O   -0.152515
    42  C    0.069484
    43  C    0.206322
    44  O   -0.218677
    45  O   -0.343586
    46  C    0.167360
    47  C    0.311109
    48  C   -0.134739
    49  C   -0.184892
    50  C    0.081481
    51  C    0.056584
    52  C    0.006655
    53  C    0.097745
    54  C   -0.158222
    55  C    0.058306
    56  C    0.094008
    57  C   -0.015306
    58  C    0.046734
    59  C   -0.142030
    60  C    0.033227
    61  C    0.022600
    62  C    0.038633
    63  C    0.066203
    64  C   -0.115163
    65  C    0.025867
    66  C    0.038267
    67  H   -0.033856
    68  H   -0.006585
    69  H   -0.014397
    70  H    0.011233
    71  H    0.007294
    72  H    0.028434
    73  H    0.018161
    74  H    0.034006
    75  H    0.001322
    76  H    0.014585
    77  H    0.021868
    78  H    0.021561
    79  H    0.030934
    80  H    0.007625
    81  H    0.012899
    82  H    0.020122
    83  H    0.042376
    84  H    0.014622
    85  H    0.006643
    86  H    0.000298
    87  H    0.007594
    88  H    0.023194
    89  H    0.022074
    90  H    0.008316
    91  H    0.001397
    92  H    0.022522
    93  H    0.023867
    94  H    0.006535
    95  H    0.046349
    96  H    0.009038
    97  H    0.038255
    98  H    0.036349
    99  H    0.030565
   100  H    0.046403
   101  H    0.041195
   102  H    0.038147
   103  H    0.034929
   104  H    0.007545
   105  H    0.029822
   106  H    0.027839
   107  H    0.005973
   108  H   -0.019133
   109  H   -0.005861
   110  H    0.000366
   111  H   -0.001575
   112  H   -0.021244
   113  H    0.000712
   114  H   -0.004720
   115  H   -0.018098
   116  H    0.005224
   117  H    0.008519
   118  H   -0.002456
   119  H   -0.023179
   120  H    0.001850
   121  H   -0.003407
   122  H   -0.009880
   123  H    0.001614
   124  H   -0.000269
   125  H    0.016575
   126  H    0.006006
   127  H    0.005326
   128  H   -0.010485
   129  H   -0.019006
   130  H   -0.003228
   131  H   -0.007429
   132  H   -0.004970
   133  H   -0.008069
   134  H   -0.000245
   135  H    0.010132
   136  H    0.007303
   137  H    0.010215
   138  H    0.003462
   139  H   -0.000873
   140  H   -0.002839
 Sum of Mulliken charges =  -0.00000

 Dipole moment (field-independent basis, Debye):
    X=             -4.6547    Y=              1.6398    Z=              1.2007  Tot=              5.0790
 Quadrupole moment (field-independent basis, Debye-Ang):
   XX=           -393.8904   YY=           -446.3709   ZZ=           -399.9416
   XY=             29.7326   XZ=             16.1769   YZ=             -5.1221

 Normal termination of Gaussian 16 at Thu Apr 28 14:24:51 2022.
