 Gaussian 16, Revision A.03,
 Gaussian 16:  ES64L-G16RevA.03 25-Dec-2016

 ---------------------------------
 #p PBE1PBE/Def2SVP td=(nstates=5)
 ---------------------------------

 ------------------------------------------------------
 step_1601_chromophore_21 TDDFT with PBE1PBE functional
 ------------------------------------------------------
 Symbolic Z-matrix:
 Charge =  0 Multiplicity = 1

                         Standard orientation:
 ---------------------------------------------------------------------
 Center     Atomic      Atomic             Coordinates (Angstroms)
 Number     Number       Type             X           Y           Z
 ---------------------------------------------------------------------
      1         12           0        5.085400    1.094403    0.006051
      2          6           0        4.870031   -2.313167    0.235953
      3          6           0        1.591292    1.264381   -0.504826
      4          6           0        5.387862    4.398184   -0.126079
      5          6           0        8.645566    0.766174    0.340866
      6          7           0        3.473240   -0.310427   -0.012216
      7          6           0        3.607948   -1.659342    0.285730
      8          6           0        2.231966   -2.364650    0.344869
      9          6           0        1.293916   -1.293637   -0.300465
     10          6           0        2.135322   -0.028154   -0.294890
     11          6           0        0.705472   -1.631475   -1.693610
     12          6           0        2.061295   -2.793348    1.764025
     13          6           0        0.947652   -3.804553    2.104236
     14          6           0       -0.010127   -4.343491    1.009916
     15          8           0        0.165386   -5.312637    0.284527
     16          8           0       -1.061408   -3.459098    0.833922
     17          7           0        3.620341    2.670159   -0.185791
     18          6           0        2.298955    2.530447   -0.397680
     19          6           0        1.719520    3.858542   -0.446485
     20          6           0        2.822441    4.749980   -0.425058
     21          6           0        4.006004    3.991900   -0.225141
     22          6           0        0.215098    4.087907   -0.553871
     23          6           0        2.786138    6.214228   -0.441586
     24          8           0        3.744129    6.913530   -0.270342
     25          6           0        1.464373    6.915999   -0.725470
     26          7           0        6.777221    2.355290    0.121474
     27          6           0        6.569116    3.689909   -0.014927
     28          6           0        7.934935    4.402112   -0.147566
     29          6           0        8.908838    3.256899    0.285114
     30          6           0        8.064244    2.012955    0.319837
     31          6           0        8.163311    5.005764   -1.550698
     32          6           0        9.538509    3.425971    1.672237
     33          6           0       11.105098    3.824606    1.722749
     34          7           0        6.489911   -0.423079    0.139649
     35          6           0        7.864524   -0.436937    0.300997
     36          6           0        8.386186   -1.765964    0.237662
     37          6           0        7.200869   -2.505068    0.286817
     38          6           0        6.111603   -1.628188    0.217943
     39          6           0        9.767991   -2.273677    0.209118
     40          6           0        6.678366   -3.930193    0.287840
     41          8           0        7.242715   -4.990516    0.161318
     42          6           0        5.159630   -3.863030    0.273832
     43          6           0        4.799293   -4.515106   -1.008086
     44          8           0        5.185001   -4.146235   -2.115690
     45          8           0        3.889150   -5.534029   -0.792251
     46          6           0        3.061320   -6.002023   -1.923193
     47          6           0       -1.959957   -3.800101   -0.247777
     48          6           0       -2.751277   -2.616549   -0.583944
     49          6           0       -3.842558   -2.428438   -1.340704
     50          6           0       -4.659847   -3.525035   -2.071166
     51          6           0       -4.542013   -1.067835   -1.450027
     52          6           0       -5.114854   -0.414402   -0.120283
     53          6           0       -5.936902   -1.305077    0.831406
     54          6           0       -7.211687   -0.593459    1.361099
     55          6           0       -7.392673   -0.768912    2.861069
     56          6           0       -8.406688   -1.078908    0.603216
     57          6           0       -9.546572   -0.027100    0.476077
     58          6           0      -10.952554   -0.663623    0.591940
     59          6           0      -11.987647    0.486744    0.730128
     60          6           0      -12.347804    0.726438    2.278348
     61          6           0      -13.255608    0.155703   -0.160571
     62          6           0      -14.074099    1.381952   -0.669631
     63          6           0      -15.424619    1.508157   -0.023397
     64          6           0      -16.391537    2.389252   -0.833168
     65          6           0      -16.911405    3.580340    0.056946
     66          6           0      -17.465304    1.558264   -1.513411
     67          1           0        0.526671    1.202670   -0.737028
     68          1           0        5.649116    5.439506   -0.326449
     69          1           0        9.731458    0.665163    0.297064
     70          1           0        2.251253   -3.237309   -0.307865
     71          1           0        0.539635   -1.111337    0.465682
     72          1           0       -0.349614   -1.425048   -1.510056
     73          1           0        0.819782   -2.684200   -1.950167
     74          1           0        1.148020   -1.060778   -2.510302
     75          1           0        1.902538   -1.937758    2.420036
     76          1           0        2.923717   -3.282925    2.216069
     77          1           0        0.453858   -3.417783    2.996154
     78          1           0        1.446628   -4.700801    2.473535
     79          1           0       -0.214750    4.790472    0.159805
     80          1           0       -0.380899    3.179361   -0.648025
     81          1           0        0.092198    4.526508   -1.544150
     82          1           0        0.702762    6.792687    0.044125
     83          1           0        1.195287    6.590434   -1.730072
     84          1           0        1.696632    7.958686   -0.509291
     85          1           0        7.956202    5.178383    0.617091
     86          1           0        9.592869    3.222948   -0.563322
     87          1           0        9.211471    4.975662   -1.849041
     88          1           0        7.921442    6.066679   -1.610185
     89          1           0        7.614672    4.498736   -2.343743
     90          1           0        9.437141    2.478146    2.202494
     91          1           0        8.868958    4.067029    2.245453
     92          1           0       11.496072    4.693572    1.192557
     93          1           0       11.737512    2.941420    1.627512
     94          1           0       11.211153    4.165663    2.752778
     95          1           0       10.079686   -2.670249    1.175191
     96          1           0       10.467774   -1.572114   -0.245317
     97          1           0        9.720533   -3.076224   -0.526667
     98          1           0        4.800854   -4.366366    1.172443
     99          1           0        2.048065   -5.710338   -1.646161
    100          1           0        3.035619   -7.080949   -2.074682
    101          1           0        3.226231   -5.452404   -2.850287
    102          1           0       -2.623079   -4.622448    0.020951
    103          1           0       -1.297188   -4.022750   -1.084687
    104          1           0       -2.543325   -1.724445    0.007434
    105          1           0       -5.034849   -3.226973   -3.049970
    106          1           0       -5.477096   -3.808442   -1.408527
    107          1           0       -3.971769   -4.369206   -2.118359
    108          1           0       -5.330661   -0.960874   -2.195186
    109          1           0       -3.923714   -0.343588   -1.981148
    110          1           0       -5.627669    0.497532   -0.426278
    111          1           0       -4.215950   -0.059371    0.383821
    112          1           0       -5.326106   -1.368506    1.732143
    113          1           0       -6.170178   -2.315760    0.499103
    114          1           0       -7.074051    0.487812    1.376063
    115          1           0       -7.035537   -1.725847    3.241882
    116          1           0       -8.459158   -0.868647    3.064868
    117          1           0       -6.724721   -0.114783    3.421126
    118          1           0       -8.678979   -2.110337    0.827550
    119          1           0       -8.050184   -1.217800   -0.416835
    120          1           0       -9.566672    0.540812   -0.453268
    121          1           0       -9.480768    0.720560    1.266421
    122          1           0      -10.892049   -1.172030    1.554218
    123          1           0      -11.173021   -1.351782   -0.223804
    124          1           0      -11.505418    1.422878    0.447620
    125          1           0      -13.383156    0.546405    2.568024
    126          1           0      -12.075196    1.772447    2.411299
    127          1           0      -11.744614    0.129091    2.961194
    128          1           0      -13.839678   -0.602242    0.361962
    129          1           0      -12.904743   -0.431537   -1.010100
    130          1           0      -14.078207    1.204872   -1.745314
    131          1           0      -13.397381    2.215874   -0.480496
    132          1           0      -15.357007    1.954823    0.969404
    133          1           0      -15.842612    0.504856    0.050825
    134          1           0      -15.754141    2.753526   -1.639188
    135          1           0      -17.067482    3.346113    1.110526
    136          1           0      -17.850389    4.038802   -0.254817
    137          1           0      -16.106718    4.316004    0.038880
    138          1           0      -17.170786    1.110539   -2.462511
    139          1           0      -18.379315    2.125629   -1.689758
    140          1           0      -17.810274    0.688903   -0.954107
 ---------------------------------------------------------------------

 SCF Done:  E(RPBE1PBE) =  -3005.35938962     A.U. after   15 cycles

 Excitation energies and oscillator strengths:

 Excited State   1:      Singlet-A      1.8752 eV  661.16 nm  f=0.3835  <S**2>=0.000
     245 -> 248        0.17196
     246 -> 247        0.69528
     246 <- 247       -0.11355
 This state for optimization and/or second-order correction.
 Total Energy, E(TD-HF/TD-DFT) =  -3005.29047571
 Copying the excited state density for this state as the 1-particle RhoCI density.

 Excited State   2:      Singlet-A      2.2448 eV  552.32 nm  f=0.1444  <S**2>=0.000
     245 -> 247        0.65971
     246 -> 248       -0.24626

 Excited State   3:      Singlet-A      2.8997 eV  427.58 nm  f=0.0014  <S**2>=0.000
     244 -> 247        0.68981

 Excited State   4:      Singlet-A      2.9769 eV  416.48 nm  f=0.0006  <S**2>=0.000
     240 -> 247       -0.12658
     242 -> 247        0.59188
     242 -> 249        0.13018
     243 -> 247        0.31994

 Excited State   5:      Singlet-A      3.0358 eV  408.40 nm  f=0.0023  <S**2>=0.000
     242 -> 247       -0.32521
     243 -> 247        0.60687

 The electronic state is 1-A.
 Alpha  occ. eigenvalues --  -46.91575 -19.26735 -19.25114 -19.21852 -19.19520
 Alpha  occ. eigenvalues --  -19.19140 -19.18115 -14.41931 -14.41010 -14.38770
 Alpha  occ. eigenvalues --  -14.38524 -10.38018 -10.36283 -10.31879 -10.30602
 Alpha  occ. eigenvalues --  -10.30040 -10.29308 -10.28856 -10.28146 -10.27869
 Alpha  occ. eigenvalues --  -10.27839 -10.27455 -10.27447 -10.27420 -10.26304
 Alpha  occ. eigenvalues --  -10.26013 -10.25982 -10.25905 -10.25864 -10.25825
 Alpha  occ. eigenvalues --  -10.25708 -10.25698 -10.25539 -10.25227 -10.25081
 Alpha  occ. eigenvalues --  -10.24767 -10.24502 -10.24409 -10.24349 -10.24162
 Alpha  occ. eigenvalues --  -10.23937 -10.23900 -10.23894 -10.23815 -10.23769
 Alpha  occ. eigenvalues --  -10.23731 -10.23706 -10.23448 -10.23414 -10.23327
 Alpha  occ. eigenvalues --  -10.23244 -10.23081 -10.23068 -10.22900 -10.22730
 Alpha  occ. eigenvalues --  -10.22553 -10.22421 -10.22335 -10.22276 -10.22268
 Alpha  occ. eigenvalues --  -10.22121 -10.22116 -10.22087 -10.21865 -10.21788
 Alpha  occ. eigenvalues --  -10.21501  -3.13689  -1.86565  -1.86069  -1.85897
 Alpha  occ. eigenvalues --   -1.12373  -1.09696  -1.05465  -1.05375  -1.04030
 Alpha  occ. eigenvalues --   -1.01586  -1.00782  -0.98365  -0.97749  -0.96850
 Alpha  occ. eigenvalues --   -0.86291  -0.85180  -0.84732  -0.84055  -0.83364
 Alpha  occ. eigenvalues --   -0.83134  -0.82217  -0.81938  -0.81644  -0.81439
 Alpha  occ. eigenvalues --   -0.80818  -0.80050  -0.78812  -0.77792  -0.77370
 Alpha  occ. eigenvalues --   -0.76771  -0.75687  -0.75276  -0.75047  -0.74158
 Alpha  occ. eigenvalues --   -0.73956  -0.72904  -0.72627  -0.71586  -0.70749
 Alpha  occ. eigenvalues --   -0.70421  -0.69905  -0.69783  -0.69249  -0.68777
 Alpha  occ. eigenvalues --   -0.68451  -0.67517  -0.66241  -0.65132  -0.63701
 Alpha  occ. eigenvalues --   -0.63080  -0.62599  -0.61718  -0.61129  -0.60225
 Alpha  occ. eigenvalues --   -0.59667  -0.59274  -0.59251  -0.58827  -0.58745
 Alpha  occ. eigenvalues --   -0.58451  -0.57761  -0.57176  -0.56773  -0.55123
 Alpha  occ. eigenvalues --   -0.54387  -0.54203  -0.53825  -0.53590  -0.52926
 Alpha  occ. eigenvalues --   -0.52059  -0.51847  -0.51274  -0.50514  -0.49843
 Alpha  occ. eigenvalues --   -0.49671  -0.49335  -0.49227  -0.48695  -0.48570
 Alpha  occ. eigenvalues --   -0.48090  -0.48022  -0.47540  -0.47463  -0.47361
 Alpha  occ. eigenvalues --   -0.47109  -0.47004  -0.46862  -0.46608  -0.46446
 Alpha  occ. eigenvalues --   -0.46349  -0.46164  -0.45962  -0.45381  -0.45166
 Alpha  occ. eigenvalues --   -0.44965  -0.44828  -0.44522  -0.44364  -0.44249
 Alpha  occ. eigenvalues --   -0.44007  -0.43931  -0.43750  -0.43565  -0.43446
 Alpha  occ. eigenvalues --   -0.43230  -0.43131  -0.42888  -0.42871  -0.42503
 Alpha  occ. eigenvalues --   -0.42123  -0.41734  -0.41703  -0.41525  -0.41440
 Alpha  occ. eigenvalues --   -0.41192  -0.40901  -0.40881  -0.40683  -0.40584
 Alpha  occ. eigenvalues --   -0.40418  -0.40301  -0.39954  -0.39884  -0.39831
 Alpha  occ. eigenvalues --   -0.39781  -0.39659  -0.39348  -0.39176  -0.39090
 Alpha  occ. eigenvalues --   -0.39018  -0.38720  -0.38543  -0.38310  -0.38223
 Alpha  occ. eigenvalues --   -0.37838  -0.37622  -0.37314  -0.37294  -0.37056
 Alpha  occ. eigenvalues --   -0.36926  -0.36448  -0.36259  -0.36147  -0.35913
 Alpha  occ. eigenvalues --   -0.35781  -0.35523  -0.35358  -0.35142  -0.35037
 Alpha  occ. eigenvalues --   -0.34581  -0.34370  -0.33750  -0.33639  -0.33322
 Alpha  occ. eigenvalues --   -0.33234  -0.33105  -0.32878  -0.32597  -0.32270
 Alpha  occ. eigenvalues --   -0.32260  -0.31750  -0.31633  -0.31377  -0.31359
 Alpha  occ. eigenvalues --   -0.31179  -0.30645  -0.30494  -0.30325  -0.29044
 Alpha  occ. eigenvalues --   -0.28854  -0.28582  -0.28498  -0.26956  -0.25921
 Alpha  occ. eigenvalues --   -0.25804  -0.25494  -0.25262  -0.24804  -0.20884
 Alpha  occ. eigenvalues --   -0.18841
 Alpha virt. eigenvalues --   -0.11249  -0.04666  -0.03067  -0.01458  -0.01254
 Alpha virt. eigenvalues --    0.00150   0.00513   0.01372   0.01570   0.02856
 Alpha virt. eigenvalues --    0.03692   0.04225   0.05226   0.05366   0.05739

 Mulliken charges:
               1
     1  Mg   0.971985
     2  C   -0.085804
     3  C   -0.053488
     4  C    0.005707
     5  C   -0.069758
     6  N   -0.428475
     7  C    0.045365
     8  C   -0.122598
     9  C   -0.102384
    10  C    0.037460
    11  C    0.019724
    12  C    0.025573
    13  C    0.023975
    14  C    0.216232
    15  O   -0.258267
    16  O   -0.375597
    17  N   -0.457060
    18  C    0.163051
    19  C   -0.183241
    20  C   -0.058414
    21  C    0.156726
    22  C    0.076768
    23  C   -0.001699
    24  O   -0.222366
    25  C   -0.026051
    26  N   -0.402564
    27  C    0.018700
    28  C   -0.109085
    29  C   -0.100572
    30  C    0.083477
    31  C    0.009486
    32  C   -0.014019
    33  C   -0.070160
    34  N   -0.429829
    35  C    0.101729
    36  C   -0.200681
    37  C   -0.088153
    38  C    0.212396
    39  C    0.075662
    40  C    0.136688
    41  O   -0.198078
    42  C   -0.052611
    43  C    0.299352
    44  O   -0.251899
    45  O   -0.376108
    46  C    0.111697
    47  C    0.274909
    48  C   -0.154374
    49  C   -0.229787
    50  C    0.017525
    51  C    0.003152
    52  C   -0.056004
    53  C    0.035119
    54  C   -0.241958
    55  C   -0.001097
    56  C    0.035357
    57  C   -0.076719
    58  C   -0.010180
    59  C   -0.225257
    60  C   -0.021636
    61  C   -0.027201
    62  C   -0.029050
    63  C    0.012134
    64  C   -0.211207
    65  C   -0.037132
    66  C   -0.019613
    67  H   -0.000635
    68  H    0.025089
    69  H    0.015400
    70  H    0.057887
    71  H    0.045947
    72  H    0.059572
    73  H    0.045100
    74  H    0.060997
    75  H    0.033462
    76  H    0.048844
    77  H    0.053036
    78  H    0.053674
    79  H    0.058613
    80  H    0.035791
    81  H    0.042798
    82  H    0.047106
    83  H    0.069250
    84  H    0.042643
    85  H    0.043640
    86  H    0.037832
    87  H    0.035597
    88  H    0.050069
    89  H    0.050022
    90  H    0.042871
    91  H    0.032923
    92  H    0.049490
    93  H    0.051511
    94  H    0.035314
    95  H    0.072819
    96  H    0.035442
    97  H    0.065778
    98  H    0.071604
    99  H    0.054799
   100  H    0.068007
   101  H    0.062020
   102  H    0.064089
   103  H    0.062022
   104  H    0.037520
   105  H    0.056217
   106  H    0.056028
   107  H    0.034975
   108  H    0.012316
   109  H    0.026771
   110  H    0.031874
   111  H    0.030461
   112  H    0.014222
   113  H    0.033891
   114  H    0.031884
   115  H    0.010690
   116  H    0.034183
   117  H    0.036001
   118  H    0.027961
   119  H    0.014176
   120  H    0.034776
   121  H    0.030259
   122  H    0.025072
   123  H    0.032742
   124  H    0.035848
   125  H    0.042887
   126  H    0.032802
   127  H    0.031583
   128  H    0.021386
   129  H    0.014061
   130  H    0.029496
   131  H    0.026424
   132  H    0.028122
   133  H    0.024534
   134  H    0.038561
   135  H    0.036962
   136  H    0.034426
   137  H    0.038761
   138  H    0.031060
   139  H    0.026812
   140  H    0.024065
 Sum of Mulliken charges =  -0.00000

 Dipole moment (field-independent basis, Debye):
    X=             -4.7689    Y=              1.8218    Z=              1.1476  Tot=              5.2325
 Quadrupole moment (field-independent basis, Debye-Ang):
   XX=           -390.2167   YY=           -443.0284   ZZ=           -397.4474
   XY=             31.5020   XZ=             16.0708   YZ=             -5.0314

 Normal termination of Gaussian 16 at Thu Apr 28 14:41:35 2022.
