 Gaussian 16, Revision A.03,
 Gaussian 16:  ES64L-G16RevA.03 25-Dec-2016

 --------------------------------
 #p wB97XD/Def2SVP td=(nstates=5)
 --------------------------------

 -----------------------------------------------------
 step_1601_chromophore_21 TDDFT with wB97XD functional
 -----------------------------------------------------
 Symbolic Z-matrix:
 Charge =  0 Multiplicity = 1

                         Standard orientation:
 ---------------------------------------------------------------------
 Center     Atomic      Atomic             Coordinates (Angstroms)
 Number     Number       Type             X           Y           Z
 ---------------------------------------------------------------------
      1         12           0        5.085400    1.094403    0.006051
      2          6           0        4.870031   -2.313167    0.235953
      3          6           0        1.591292    1.264381   -0.504826
      4          6           0        5.387862    4.398184   -0.126079
      5          6           0        8.645566    0.766174    0.340866
      6          7           0        3.473240   -0.310427   -0.012216
      7          6           0        3.607948   -1.659342    0.285730
      8          6           0        2.231966   -2.364650    0.344869
      9          6           0        1.293916   -1.293637   -0.300465
     10          6           0        2.135322   -0.028154   -0.294890
     11          6           0        0.705472   -1.631475   -1.693610
     12          6           0        2.061295   -2.793348    1.764025
     13          6           0        0.947652   -3.804553    2.104236
     14          6           0       -0.010127   -4.343491    1.009916
     15          8           0        0.165386   -5.312637    0.284527
     16          8           0       -1.061408   -3.459098    0.833922
     17          7           0        3.620341    2.670159   -0.185791
     18          6           0        2.298955    2.530447   -0.397680
     19          6           0        1.719520    3.858542   -0.446485
     20          6           0        2.822441    4.749980   -0.425058
     21          6           0        4.006004    3.991900   -0.225141
     22          6           0        0.215098    4.087907   -0.553871
     23          6           0        2.786138    6.214228   -0.441586
     24          8           0        3.744129    6.913530   -0.270342
     25          6           0        1.464373    6.915999   -0.725470
     26          7           0        6.777221    2.355290    0.121474
     27          6           0        6.569116    3.689909   -0.014927
     28          6           0        7.934935    4.402112   -0.147566
     29          6           0        8.908838    3.256899    0.285114
     30          6           0        8.064244    2.012955    0.319837
     31          6           0        8.163311    5.005764   -1.550698
     32          6           0        9.538509    3.425971    1.672237
     33          6           0       11.105098    3.824606    1.722749
     34          7           0        6.489911   -0.423079    0.139649
     35          6           0        7.864524   -0.436937    0.300997
     36          6           0        8.386186   -1.765964    0.237662
     37          6           0        7.200869   -2.505068    0.286817
     38          6           0        6.111603   -1.628188    0.217943
     39          6           0        9.767991   -2.273677    0.209118
     40          6           0        6.678366   -3.930193    0.287840
     41          8           0        7.242715   -4.990516    0.161318
     42          6           0        5.159630   -3.863030    0.273832
     43          6           0        4.799293   -4.515106   -1.008086
     44          8           0        5.185001   -4.146235   -2.115690
     45          8           0        3.889150   -5.534029   -0.792251
     46          6           0        3.061320   -6.002023   -1.923193
     47          6           0       -1.959957   -3.800101   -0.247777
     48          6           0       -2.751277   -2.616549   -0.583944
     49          6           0       -3.842558   -2.428438   -1.340704
     50          6           0       -4.659847   -3.525035   -2.071166
     51          6           0       -4.542013   -1.067835   -1.450027
     52          6           0       -5.114854   -0.414402   -0.120283
     53          6           0       -5.936902   -1.305077    0.831406
     54          6           0       -7.211687   -0.593459    1.361099
     55          6           0       -7.392673   -0.768912    2.861069
     56          6           0       -8.406688   -1.078908    0.603216
     57          6           0       -9.546572   -0.027100    0.476077
     58          6           0      -10.952554   -0.663623    0.591940
     59          6           0      -11.987647    0.486744    0.730128
     60          6           0      -12.347804    0.726438    2.278348
     61          6           0      -13.255608    0.155703   -0.160571
     62          6           0      -14.074099    1.381952   -0.669631
     63          6           0      -15.424619    1.508157   -0.023397
     64          6           0      -16.391537    2.389252   -0.833168
     65          6           0      -16.911405    3.580340    0.056946
     66          6           0      -17.465304    1.558264   -1.513411
     67          1           0        0.526671    1.202670   -0.737028
     68          1           0        5.649116    5.439506   -0.326449
     69          1           0        9.731458    0.665163    0.297064
     70          1           0        2.251253   -3.237309   -0.307865
     71          1           0        0.539635   -1.111337    0.465682
     72          1           0       -0.349614   -1.425048   -1.510056
     73          1           0        0.819782   -2.684200   -1.950167
     74          1           0        1.148020   -1.060778   -2.510302
     75          1           0        1.902538   -1.937758    2.420036
     76          1           0        2.923717   -3.282925    2.216069
     77          1           0        0.453858   -3.417783    2.996154
     78          1           0        1.446628   -4.700801    2.473535
     79          1           0       -0.214750    4.790472    0.159805
     80          1           0       -0.380899    3.179361   -0.648025
     81          1           0        0.092198    4.526508   -1.544150
     82          1           0        0.702762    6.792687    0.044125
     83          1           0        1.195287    6.590434   -1.730072
     84          1           0        1.696632    7.958686   -0.509291
     85          1           0        7.956202    5.178383    0.617091
     86          1           0        9.592869    3.222948   -0.563322
     87          1           0        9.211471    4.975662   -1.849041
     88          1           0        7.921442    6.066679   -1.610185
     89          1           0        7.614672    4.498736   -2.343743
     90          1           0        9.437141    2.478146    2.202494
     91          1           0        8.868958    4.067029    2.245453
     92          1           0       11.496072    4.693572    1.192557
     93          1           0       11.737512    2.941420    1.627512
     94          1           0       11.211153    4.165663    2.752778
     95          1           0       10.079686   -2.670249    1.175191
     96          1           0       10.467774   -1.572114   -0.245317
     97          1           0        9.720533   -3.076224   -0.526667
     98          1           0        4.800854   -4.366366    1.172443
     99          1           0        2.048065   -5.710338   -1.646161
    100          1           0        3.035619   -7.080949   -2.074682
    101          1           0        3.226231   -5.452404   -2.850287
    102          1           0       -2.623079   -4.622448    0.020951
    103          1           0       -1.297188   -4.022750   -1.084687
    104          1           0       -2.543325   -1.724445    0.007434
    105          1           0       -5.034849   -3.226973   -3.049970
    106          1           0       -5.477096   -3.808442   -1.408527
    107          1           0       -3.971769   -4.369206   -2.118359
    108          1           0       -5.330661   -0.960874   -2.195186
    109          1           0       -3.923714   -0.343588   -1.981148
    110          1           0       -5.627669    0.497532   -0.426278
    111          1           0       -4.215950   -0.059371    0.383821
    112          1           0       -5.326106   -1.368506    1.732143
    113          1           0       -6.170178   -2.315760    0.499103
    114          1           0       -7.074051    0.487812    1.376063
    115          1           0       -7.035537   -1.725847    3.241882
    116          1           0       -8.459158   -0.868647    3.064868
    117          1           0       -6.724721   -0.114783    3.421126
    118          1           0       -8.678979   -2.110337    0.827550
    119          1           0       -8.050184   -1.217800   -0.416835
    120          1           0       -9.566672    0.540812   -0.453268
    121          1           0       -9.480768    0.720560    1.266421
    122          1           0      -10.892049   -1.172030    1.554218
    123          1           0      -11.173021   -1.351782   -0.223804
    124          1           0      -11.505418    1.422878    0.447620
    125          1           0      -13.383156    0.546405    2.568024
    126          1           0      -12.075196    1.772447    2.411299
    127          1           0      -11.744614    0.129091    2.961194
    128          1           0      -13.839678   -0.602242    0.361962
    129          1           0      -12.904743   -0.431537   -1.010100
    130          1           0      -14.078207    1.204872   -1.745314
    131          1           0      -13.397381    2.215874   -0.480496
    132          1           0      -15.357007    1.954823    0.969404
    133          1           0      -15.842612    0.504856    0.050825
    134          1           0      -15.754141    2.753526   -1.639188
    135          1           0      -17.067482    3.346113    1.110526
    136          1           0      -17.850389    4.038802   -0.254817
    137          1           0      -16.106718    4.316004    0.038880
    138          1           0      -17.170786    1.110539   -2.462511
    139          1           0      -18.379315    2.125629   -1.689758
    140          1           0      -17.810274    0.688903   -0.954107
 ---------------------------------------------------------------------

 SCF Done:  E(RwB97XD) =  -3007.87023840     A.U. after   19 cycles

 Excitation energies and oscillator strengths:

 Excited State   1:      Singlet-A      1.6468 eV  752.89 nm  f=0.3960  <S**2>=0.000
     245 -> 248        0.18026
     246 -> 247        0.68615
     245 <- 248        0.11774
 This state for optimization and/or second-order correction.
 Total Energy, E(TD-HF/TD-DFT) =  -3007.80972080
 Copying the excited state density for this state as the 1-particle RhoCI density.

 Excited State   2:      Singlet-A      2.1665 eV  572.29 nm  f=0.1534  <S**2>=0.000
     245 -> 247        0.65138
     246 -> 248       -0.26547
     246 <- 248       -0.10014

 Excited State   3:      Singlet-A      3.3642 eV  368.54 nm  f=0.0007  <S**2>=0.000
     240 -> 247        0.11589
     241 -> 247       -0.15492
     243 -> 247       -0.16423
     244 -> 247        0.63043
     246 -> 248        0.12014

 Excited State   4:      Singlet-A      3.5274 eV  351.48 nm  f=0.0185  <S**2>=0.000
     240 -> 247        0.56012
     240 -> 249       -0.20034
     241 -> 247       -0.17739
     244 -> 247       -0.11866
     246 -> 248       -0.21757

 Excited State   5:      Singlet-A      3.5415 eV  350.09 nm  f=0.0024  <S**2>=0.000
     240 -> 247        0.14051
     240 -> 249       -0.16546
     240 -> 250        0.10662
     241 -> 247        0.59518
     241 -> 249       -0.13548
     242 -> 247        0.17047
     244 -> 247        0.10441

 The electronic state is 1-A.
 Alpha  occ. eigenvalues --  -46.94551 -19.31279 -19.29727 -19.26511 -19.24293
 Alpha  occ. eigenvalues --  -19.24114 -19.22809 -14.46953 -14.46160 -14.43635
 Alpha  occ. eigenvalues --  -14.43595 -10.44794 -10.43172 -10.38847 -10.37321
 Alpha  occ. eigenvalues --  -10.36527 -10.35715 -10.35064 -10.34674 -10.34212
 Alpha  occ. eigenvalues --  -10.34074 -10.33904 -10.33623 -10.33614 -10.32603
 Alpha  occ. eigenvalues --  -10.32512 -10.32422 -10.32293 -10.32120 -10.32100
 Alpha  occ. eigenvalues --  -10.32076 -10.32041 -10.31936 -10.31720 -10.31528
 Alpha  occ. eigenvalues --  -10.31037 -10.30967 -10.30797 -10.30677 -10.30404
 Alpha  occ. eigenvalues --  -10.30373 -10.30303 -10.30281 -10.30161 -10.30124
 Alpha  occ. eigenvalues --  -10.30096 -10.30023 -10.29983 -10.29818 -10.29556
 Alpha  occ. eigenvalues --  -10.29529 -10.29417 -10.29352 -10.29259 -10.29106
 Alpha  occ. eigenvalues --  -10.29041 -10.28834 -10.28787 -10.28651 -10.28620
 Alpha  occ. eigenvalues --  -10.28546 -10.28496 -10.28467 -10.28239 -10.28210
 Alpha  occ. eigenvalues --  -10.27935  -3.20507  -1.94134  -1.93639  -1.93466
 Alpha  occ. eigenvalues --   -1.19732  -1.17166  -1.12989  -1.12818  -1.11359
 Alpha  occ. eigenvalues --   -1.09022  -1.08232  -1.05761  -1.05045  -1.04216
 Alpha  occ. eigenvalues --   -0.94016  -0.92839  -0.92378  -0.91707  -0.91022
 Alpha  occ. eigenvalues --   -0.90771  -0.89829  -0.89584  -0.89302  -0.89035
 Alpha  occ. eigenvalues --   -0.88381  -0.87662  -0.86439  -0.85451  -0.85022
 Alpha  occ. eigenvalues --   -0.84397  -0.83335  -0.82936  -0.82691  -0.81799
 Alpha  occ. eigenvalues --   -0.81617  -0.80607  -0.80214  -0.79218  -0.78409
 Alpha  occ. eigenvalues --   -0.78092  -0.77606  -0.77368  -0.76918  -0.76417
 Alpha  occ. eigenvalues --   -0.76068  -0.75051  -0.73805  -0.72695  -0.71279
 Alpha  occ. eigenvalues --   -0.70708  -0.70182  -0.69216  -0.68725  -0.67696
 Alpha  occ. eigenvalues --   -0.67164  -0.66906  -0.66715  -0.66314  -0.66209
 Alpha  occ. eigenvalues --   -0.66092  -0.65417  -0.64796  -0.64260  -0.62630
 Alpha  occ. eigenvalues --   -0.61764  -0.61673  -0.61261  -0.60992  -0.60519
 Alpha  occ. eigenvalues --   -0.59444  -0.59318  -0.58647  -0.57881  -0.57276
 Alpha  occ. eigenvalues --   -0.57083  -0.56784  -0.56691  -0.56087  -0.56007
 Alpha  occ. eigenvalues --   -0.55487  -0.55430  -0.54954  -0.54893  -0.54827
 Alpha  occ. eigenvalues --   -0.54476  -0.54327  -0.54256  -0.53960  -0.53951
 Alpha  occ. eigenvalues --   -0.53726  -0.53503  -0.53269  -0.52725  -0.52504
 Alpha  occ. eigenvalues --   -0.52289  -0.52155  -0.51846  -0.51677  -0.51652
 Alpha  occ. eigenvalues --   -0.51341  -0.51200  -0.51058  -0.50828  -0.50732
 Alpha  occ. eigenvalues --   -0.50549  -0.50421  -0.50174  -0.50099  -0.49870
 Alpha  occ. eigenvalues --   -0.49337  -0.48982  -0.48906  -0.48720  -0.48661
 Alpha  occ. eigenvalues --   -0.48358  -0.48134  -0.48106  -0.47853  -0.47798
 Alpha  occ. eigenvalues --   -0.47650  -0.47515  -0.47213  -0.47067  -0.47022
 Alpha  occ. eigenvalues --   -0.46972  -0.46843  -0.46575  -0.46345  -0.46314
 Alpha  occ. eigenvalues --   -0.46211  -0.45887  -0.45538  -0.45532  -0.45324
 Alpha  occ. eigenvalues --   -0.44963  -0.44734  -0.44526  -0.44444  -0.44150
 Alpha  occ. eigenvalues --   -0.43959  -0.43493  -0.43359  -0.43208  -0.43048
 Alpha  occ. eigenvalues --   -0.43018  -0.42613  -0.42395  -0.42176  -0.42083
 Alpha  occ. eigenvalues --   -0.41632  -0.41358  -0.40791  -0.40674  -0.40366
 Alpha  occ. eigenvalues --   -0.40267  -0.40156  -0.39756  -0.39612  -0.39318
 Alpha  occ. eigenvalues --   -0.39251  -0.38730  -0.38681  -0.38388  -0.38214
 Alpha  occ. eigenvalues --   -0.38160  -0.37618  -0.37596  -0.37402  -0.36105
 Alpha  occ. eigenvalues --   -0.35827  -0.35375  -0.35162  -0.33544  -0.32755
 Alpha  occ. eigenvalues --   -0.32564  -0.32527  -0.32052  -0.31528  -0.25858
 Alpha  occ. eigenvalues --   -0.23034
 Alpha virt. eigenvalues --   -0.07229   0.00806   0.03275   0.05256   0.05442
 Alpha virt. eigenvalues --    0.06760   0.07135   0.07245   0.08045   0.09322
 Alpha virt. eigenvalues --    0.10409   0.10940   0.11909   0.12158   0.12540

 Mulliken charges:
               1
     1  Mg   0.962025
     2  C   -0.105101
     3  C   -0.072215
     4  C   -0.009109
     5  C   -0.098177
     6  N   -0.398556
     7  C    0.022649
     8  C   -0.081418
     9  C   -0.076371
    10  C    0.023560
    11  C    0.037008
    12  C    0.030929
    13  C    0.037464
    14  C    0.205363
    15  O   -0.254701
    16  O   -0.372480
    17  N   -0.421671
    18  C    0.151159
    19  C   -0.175738
    20  C   -0.045014
    21  C    0.140630
    22  C    0.090782
    23  C   -0.009161
    24  O   -0.217916
    25  C   -0.011920
    26  N   -0.365131
    27  C    0.003413
    28  C   -0.083119
    29  C   -0.074495
    30  C    0.076713
    31  C    0.018194
    32  C   -0.002592
    33  C   -0.052548
    34  N   -0.387295
    35  C    0.101074
    36  C   -0.197897
    37  C   -0.085977
    38  C    0.199216
    39  C    0.086966
    40  C    0.117858
    41  O   -0.188318
    42  C   -0.010470
    43  C    0.276364
    44  O   -0.247843
    45  O   -0.374585
    46  C    0.130132
    47  C    0.285101
    48  C   -0.157216
    49  C   -0.215616
    50  C    0.032770
    51  C    0.015424
    52  C   -0.037763
    53  C    0.051889
    54  C   -0.211899
    55  C    0.009221
    56  C    0.050475
    57  C   -0.057053
    58  C    0.008361
    59  C   -0.195636
    60  C   -0.012113
    61  C   -0.013454
    62  C   -0.010487
    63  C    0.027040
    64  C   -0.182101
    65  C   -0.022545
    66  C   -0.008070
    67  H   -0.007497
    68  H    0.020219
    69  H    0.012145
    70  H    0.032110
    71  H    0.033510
    72  H    0.046492
    73  H    0.038301
    74  H    0.057041
    75  H    0.027311
    76  H    0.038513
    77  H    0.049029
    78  H    0.048302
    79  H    0.052809
    80  H    0.031270
    81  H    0.034819
    82  H    0.041431
    83  H    0.063318
    84  H    0.040381
    85  H    0.033505
    86  H    0.026329
    87  H    0.029111
    88  H    0.045279
    89  H    0.044023
    90  H    0.032841
    91  H    0.025746
    92  H    0.044047
    93  H    0.045222
    94  H    0.028662
    95  H    0.069737
    96  H    0.030962
    97  H    0.061497
    98  H    0.067280
    99  H    0.048522
   100  H    0.064788
   101  H    0.058366
   102  H    0.059850
   103  H    0.055116
   104  H    0.030871
   105  H    0.051833
   106  H    0.049470
   107  H    0.028504
   108  H    0.004565
   109  H    0.019968
   110  H    0.024376
   111  H    0.021827
   112  H    0.004886
   113  H    0.021914
   114  H    0.019921
   115  H    0.003509
   116  H    0.026568
   117  H    0.031395
   118  H    0.020784
   119  H    0.002079
   120  H    0.026452
   121  H    0.017214
   122  H    0.010977
   123  H    0.024914
   124  H    0.021134
   125  H    0.037245
   126  H    0.027262
   127  H    0.025223
   128  H    0.011799
   129  H    0.004847
   130  H    0.021461
   131  H    0.016861
   132  H    0.018410
   133  H    0.013659
   134  H    0.026564
   135  H    0.030330
   136  H    0.029154
   137  H    0.032110
   138  H    0.025511
   139  H    0.020774
   140  H    0.017230
 Sum of Mulliken charges =  -0.00000

 Dipole moment (field-independent basis, Debye):
    X=             -4.6521    Y=              1.6135    Z=              1.1896  Tot=              5.0656
 Quadrupole moment (field-independent basis, Debye-Ang):
   XX=           -388.0785   YY=           -442.4478   ZZ=           -397.0145
   XY=             29.7101   XZ=             16.3406   YZ=             -5.1386

 Normal termination of Gaussian 16 at Thu Apr 28 15:10:54 2022.
