 Gaussian 16, Revision A.03,
 Gaussian 16:  ES64L-G16RevA.03 25-Dec-2016

 --------------------
 #p ZINDO=(nstates=5)
 --------------------

 ------------------------------
 step_1601_chromophore_21 ZINDO
 ------------------------------
 Symbolic Z-matrix:
 Charge =  0 Multiplicity = 1

                         Standard orientation:
 ---------------------------------------------------------------------
 Center     Atomic      Atomic             Coordinates (Angstroms)
 Number     Number       Type             X           Y           Z
 ---------------------------------------------------------------------
      1         12           0        5.085400    1.094403    0.006051
      2          6           0        4.870031   -2.313167    0.235953
      3          6           0        1.591292    1.264381   -0.504826
      4          6           0        5.387862    4.398184   -0.126079
      5          6           0        8.645566    0.766174    0.340866
      6          7           0        3.473240   -0.310427   -0.012216
      7          6           0        3.607948   -1.659342    0.285730
      8          6           0        2.231966   -2.364650    0.344869
      9          6           0        1.293916   -1.293637   -0.300465
     10          6           0        2.135322   -0.028154   -0.294890
     11          6           0        0.705472   -1.631475   -1.693610
     12          6           0        2.061295   -2.793348    1.764025
     13          6           0        0.947652   -3.804553    2.104236
     14          6           0       -0.010127   -4.343491    1.009916
     15          8           0        0.165386   -5.312637    0.284527
     16          8           0       -1.061408   -3.459098    0.833922
     17          7           0        3.620341    2.670159   -0.185791
     18          6           0        2.298955    2.530447   -0.397680
     19          6           0        1.719520    3.858542   -0.446485
     20          6           0        2.822441    4.749980   -0.425058
     21          6           0        4.006004    3.991900   -0.225141
     22          6           0        0.215098    4.087907   -0.553871
     23          6           0        2.786138    6.214228   -0.441586
     24          8           0        3.744129    6.913530   -0.270342
     25          6           0        1.464373    6.915999   -0.725470
     26          7           0        6.777221    2.355290    0.121474
     27          6           0        6.569116    3.689909   -0.014927
     28          6           0        7.934935    4.402112   -0.147566
     29          6           0        8.908838    3.256899    0.285114
     30          6           0        8.064244    2.012955    0.319837
     31          6           0        8.163311    5.005764   -1.550698
     32          6           0        9.538509    3.425971    1.672237
     33          6           0       11.105098    3.824606    1.722749
     34          7           0        6.489911   -0.423079    0.139649
     35          6           0        7.864524   -0.436937    0.300997
     36          6           0        8.386186   -1.765964    0.237662
     37          6           0        7.200869   -2.505068    0.286817
     38          6           0        6.111603   -1.628188    0.217943
     39          6           0        9.767991   -2.273677    0.209118
     40          6           0        6.678366   -3.930193    0.287840
     41          8           0        7.242715   -4.990516    0.161318
     42          6           0        5.159630   -3.863030    0.273832
     43          6           0        4.799293   -4.515106   -1.008086
     44          8           0        5.185001   -4.146235   -2.115690
     45          8           0        3.889150   -5.534029   -0.792251
     46          6           0        3.061320   -6.002023   -1.923193
     47          6           0       -1.959957   -3.800101   -0.247777
     48          6           0       -2.751277   -2.616549   -0.583944
     49          6           0       -3.842558   -2.428438   -1.340704
     50          6           0       -4.659847   -3.525035   -2.071166
     51          6           0       -4.542013   -1.067835   -1.450027
     52          6           0       -5.114854   -0.414402   -0.120283
     53          6           0       -5.936902   -1.305077    0.831406
     54          6           0       -7.211687   -0.593459    1.361099
     55          6           0       -7.392673   -0.768912    2.861069
     56          6           0       -8.406688   -1.078908    0.603216
     57          6           0       -9.546572   -0.027100    0.476077
     58          6           0      -10.952554   -0.663623    0.591940
     59          6           0      -11.987647    0.486744    0.730128
     60          6           0      -12.347804    0.726438    2.278348
     61          6           0      -13.255608    0.155703   -0.160571
     62          6           0      -14.074099    1.381952   -0.669631
     63          6           0      -15.424619    1.508157   -0.023397
     64          6           0      -16.391537    2.389252   -0.833168
     65          6           0      -16.911405    3.580340    0.056946
     66          6           0      -17.465304    1.558264   -1.513411
     67          1           0        0.526671    1.202670   -0.737028
     68          1           0        5.649116    5.439506   -0.326449
     69          1           0        9.731458    0.665163    0.297064
     70          1           0        2.251253   -3.237309   -0.307865
     71          1           0        0.539635   -1.111337    0.465682
     72          1           0       -0.349614   -1.425048   -1.510056
     73          1           0        0.819782   -2.684200   -1.950167
     74          1           0        1.148020   -1.060778   -2.510302
     75          1           0        1.902538   -1.937758    2.420036
     76          1           0        2.923717   -3.282925    2.216069
     77          1           0        0.453858   -3.417783    2.996154
     78          1           0        1.446628   -4.700801    2.473535
     79          1           0       -0.214750    4.790472    0.159805
     80          1           0       -0.380899    3.179361   -0.648025
     81          1           0        0.092198    4.526508   -1.544150
     82          1           0        0.702762    6.792687    0.044125
     83          1           0        1.195287    6.590434   -1.730072
     84          1           0        1.696632    7.958686   -0.509291
     85          1           0        7.956202    5.178383    0.617091
     86          1           0        9.592869    3.222948   -0.563322
     87          1           0        9.211471    4.975662   -1.849041
     88          1           0        7.921442    6.066679   -1.610185
     89          1           0        7.614672    4.498736   -2.343743
     90          1           0        9.437141    2.478146    2.202494
     91          1           0        8.868958    4.067029    2.245453
     92          1           0       11.496072    4.693572    1.192557
     93          1           0       11.737512    2.941420    1.627512
     94          1           0       11.211153    4.165663    2.752778
     95          1           0       10.079686   -2.670249    1.175191
     96          1           0       10.467774   -1.572114   -0.245317
     97          1           0        9.720533   -3.076224   -0.526667
     98          1           0        4.800854   -4.366366    1.172443
     99          1           0        2.048065   -5.710338   -1.646161
    100          1           0        3.035619   -7.080949   -2.074682
    101          1           0        3.226231   -5.452404   -2.850287
    102          1           0       -2.623079   -4.622448    0.020951
    103          1           0       -1.297188   -4.022750   -1.084687
    104          1           0       -2.543325   -1.724445    0.007434
    105          1           0       -5.034849   -3.226973   -3.049970
    106          1           0       -5.477096   -3.808442   -1.408527
    107          1           0       -3.971769   -4.369206   -2.118359
    108          1           0       -5.330661   -0.960874   -2.195186
    109          1           0       -3.923714   -0.343588   -1.981148
    110          1           0       -5.627669    0.497532   -0.426278
    111          1           0       -4.215950   -0.059371    0.383821
    112          1           0       -5.326106   -1.368506    1.732143
    113          1           0       -6.170178   -2.315760    0.499103
    114          1           0       -7.074051    0.487812    1.376063
    115          1           0       -7.035537   -1.725847    3.241882
    116          1           0       -8.459158   -0.868647    3.064868
    117          1           0       -6.724721   -0.114783    3.421126
    118          1           0       -8.678979   -2.110337    0.827550
    119          1           0       -8.050184   -1.217800   -0.416835
    120          1           0       -9.566672    0.540812   -0.453268
    121          1           0       -9.480768    0.720560    1.266421
    122          1           0      -10.892049   -1.172030    1.554218
    123          1           0      -11.173021   -1.351782   -0.223804
    124          1           0      -11.505418    1.422878    0.447620
    125          1           0      -13.383156    0.546405    2.568024
    126          1           0      -12.075196    1.772447    2.411299
    127          1           0      -11.744614    0.129091    2.961194
    128          1           0      -13.839678   -0.602242    0.361962
    129          1           0      -12.904743   -0.431537   -1.010100
    130          1           0      -14.078207    1.204872   -1.745314
    131          1           0      -13.397381    2.215874   -0.480496
    132          1           0      -15.357007    1.954823    0.969404
    133          1           0      -15.842612    0.504856    0.050825
    134          1           0      -15.754141    2.753526   -1.639188
    135          1           0      -17.067482    3.346113    1.110526
    136          1           0      -17.850389    4.038802   -0.254817
    137          1           0      -16.106718    4.316004    0.038880
    138          1           0      -17.170786    1.110539   -2.462511
    139          1           0      -18.379315    2.125629   -1.689758
    140          1           0      -17.810274    0.688903   -0.954107
 ---------------------------------------------------------------------

 SCF Done:  E(RZINDO/S) =  -474.499437585     A.U. after   20 cycles

 Excitation energies and oscillator strengths:

 Excited State   1:      Singlet-A      1.2462 eV  994.91 nm  f=0.6344  <S**2>=0.000
     175 ->178        -0.18271
     176 ->177         0.66511
 This state for optimization and/or second-order correction.
 Total Energy, E(CIS/TDA) =  -474.453641138
 Copying the excited state density for this state as the 1-particle RhoCI density.

 Excited State   2:      Singlet-A      1.9304 eV  642.27 nm  f=0.0931  <S**2>=0.000
     175 ->177         0.57581
     176 ->178         0.37828

 Excited State   3:      Singlet-A      2.9519 eV  420.01 nm  f=0.0120  <S**2>=0.000
     167 ->179         0.10489
     168 ->177         0.34378
     168 ->178        -0.13369
     168 ->179        -0.36601
     168 ->181         0.20249
     168 ->182        -0.14863
     168 ->186        -0.22333

 Excited State   4:      Singlet-A      2.9938 eV  414.14 nm  f=0.0012  <S**2>=0.000
     170 ->177         0.28303
     170 ->179         0.29157
     170 ->181         0.36943
     170 ->182        -0.12010
     170 ->186         0.19124
     170 ->188        -0.19259
     170 ->200        -0.10032

 Excited State   5:      Singlet-A      3.0763 eV  403.03 nm  f=0.9893  <S**2>=0.000
     171 ->177        -0.15173
     175 ->177        -0.33214
     176 ->178         0.55327
     176 ->179         0.15689

 The electronic state is 1-A.
 Alpha  occ. eigenvalues --   -1.88118  -1.81969  -1.80325  -1.75083  -1.71728
 Alpha  occ. eigenvalues --   -1.71423  -1.65563  -1.61259  -1.60734  -1.59492
 Alpha  occ. eigenvalues --   -1.55282  -1.51868  -1.48295  -1.47583  -1.45309
 Alpha  occ. eigenvalues --   -1.44048  -1.43208  -1.40523  -1.38419  -1.37811
 Alpha  occ. eigenvalues --   -1.36350  -1.35231  -1.32447  -1.31342  -1.28001
 Alpha  occ. eigenvalues --   -1.26355  -1.25028  -1.21785  -1.20204  -1.18647
 Alpha  occ. eigenvalues --   -1.17715  -1.17194  -1.15635  -1.15033  -1.14255
 Alpha  occ. eigenvalues --   -1.13770  -1.11183  -1.10977  -1.05827  -1.04492
 Alpha  occ. eigenvalues --   -1.03911  -1.01982  -0.99606  -0.98661  -0.97191
 Alpha  occ. eigenvalues --   -0.96062  -0.94699  -0.93546  -0.93399  -0.92897
 Alpha  occ. eigenvalues --   -0.90742  -0.90596  -0.88306  -0.88152  -0.86910
 Alpha  occ. eigenvalues --   -0.85735  -0.85349  -0.83319  -0.81810  -0.80938
 Alpha  occ. eigenvalues --   -0.79148  -0.78636  -0.77791  -0.76978  -0.76299
 Alpha  occ. eigenvalues --   -0.75573  -0.75163  -0.74019  -0.73595  -0.73154
 Alpha  occ. eigenvalues --   -0.72505  -0.71923  -0.71682  -0.71329  -0.70888
 Alpha  occ. eigenvalues --   -0.70523  -0.69296  -0.69085  -0.68070  -0.67829
 Alpha  occ. eigenvalues --   -0.67777  -0.67211  -0.66581  -0.66382  -0.66223
 Alpha  occ. eigenvalues --   -0.65720  -0.64941  -0.64781  -0.64304  -0.63623
 Alpha  occ. eigenvalues --   -0.63433  -0.62821  -0.62436  -0.62068  -0.61418
 Alpha  occ. eigenvalues --   -0.61069  -0.60602  -0.60461  -0.60157  -0.59898
 Alpha  occ. eigenvalues --   -0.59794  -0.59460  -0.59300  -0.58584  -0.58268
 Alpha  occ. eigenvalues --   -0.57794  -0.57316  -0.57101  -0.56695  -0.56241
 Alpha  occ. eigenvalues --   -0.55948  -0.55806  -0.55713  -0.55326  -0.55124
 Alpha  occ. eigenvalues --   -0.55069  -0.54667  -0.53480  -0.53142  -0.53078
 Alpha  occ. eigenvalues --   -0.52795  -0.52316  -0.52171  -0.52089  -0.51626
 Alpha  occ. eigenvalues --   -0.51274  -0.51001  -0.50674  -0.50538  -0.50378
 Alpha  occ. eigenvalues --   -0.50292  -0.49874  -0.49673  -0.49256  -0.49049
 Alpha  occ. eigenvalues --   -0.48978  -0.48837  -0.48355  -0.48060  -0.47672
 Alpha  occ. eigenvalues --   -0.47530  -0.47156  -0.46555  -0.46383  -0.45957
 Alpha  occ. eigenvalues --   -0.45593  -0.45530  -0.45368  -0.45225  -0.44839
 Alpha  occ. eigenvalues --   -0.44714  -0.44682  -0.44531  -0.44358  -0.43667
 Alpha  occ. eigenvalues --   -0.43501  -0.43470  -0.43349  -0.43247  -0.41862
 Alpha  occ. eigenvalues --   -0.41169  -0.40912  -0.40790  -0.39893  -0.38493
 Alpha  occ. eigenvalues --   -0.38210  -0.36371  -0.34858  -0.34646  -0.33863
 Alpha  occ. eigenvalues --   -0.33242  -0.32580  -0.32379  -0.32032  -0.26532
 Alpha  occ. eigenvalues --   -0.21797
 Alpha virt. eigenvalues --   -0.08716  -0.01585   0.00084   0.00834   0.01952
 Alpha virt. eigenvalues --    0.02931   0.03234   0.03595   0.04292   0.04862
 Alpha virt. eigenvalues --    0.06447   0.06720   0.07572   0.07972   0.08518

 Mulliken charges:
               1
     1  Mg   0.420918
     2  C   -0.069275
     3  C   -0.089121
     4  C   -0.052543
     5  C   -0.069851
     6  N   -0.298473
     7  C    0.128460
     8  C    0.011164
     9  C    0.010070
    10  C    0.112947
    11  C   -0.047150
    12  C   -0.004996
    13  C   -0.002781
    14  C    0.467062
    15  O   -0.506641
    16  O   -0.276080
    17  N   -0.317870
    18  C    0.100685
    19  C   -0.011792
    20  C   -0.040715
    21  C    0.117991
    22  C   -0.046099
    23  C    0.323558
    24  O   -0.527017
    25  C   -0.048035
    26  N   -0.264792
    27  C    0.115941
    28  C   -0.001526
    29  C   -0.000804
    30  C    0.148191
    31  C   -0.046392
    32  C   -0.027426
    33  C   -0.067009
    34  N   -0.304503
    35  C    0.095716
    36  C    0.044500
    37  C   -0.063911
    38  C    0.159030
    39  C   -0.033765
    40  C    0.334002
    41  O   -0.506544
    42  C    0.056502
    43  C    0.505400
    44  O   -0.524467
    45  O   -0.275642
    46  C    0.072170
    47  C    0.118308
    48  C   -0.078299
    49  C   -0.014841
    50  C   -0.048078
    51  C   -0.035984
    52  C   -0.030066
    53  C   -0.030946
    54  C   -0.009803
    55  C   -0.067056
    56  C   -0.030077
    57  C   -0.038555
    58  C   -0.042406
    59  C   -0.021550
    60  C   -0.066651
    61  C   -0.046664
    62  C   -0.032154
    63  C   -0.025766
    64  C   -0.008769
    65  C   -0.057000
    66  C   -0.053821
    67  H    0.029739
    68  H    0.043278
    69  H    0.037593
    70  H    0.036733
    71  H    0.026931
    72  H    0.024126
    73  H    0.025372
    74  H    0.034384
    75  H    0.022035
    76  H    0.024719
    77  H    0.035838
    78  H    0.028129
    79  H    0.034698
    80  H    0.024632
    81  H    0.020520
    82  H    0.034147
    83  H    0.047727
    84  H    0.034630
    85  H    0.029014
    86  H    0.031465
    87  H    0.011959
    88  H    0.023325
    89  H    0.025937
    90  H    0.018461
    91  H    0.028449
    92  H    0.034183
    93  H    0.026982
    94  H    0.007505
    95  H    0.044226
    96  H    0.024727
    97  H    0.036005
    98  H    0.056868
    99  H    0.030079
   100  H    0.048716
   101  H    0.049925
   102  H    0.055467
   103  H    0.056243
   104  H    0.026092
   105  H    0.033714
   106  H    0.032051
   107  H    0.017047
   108  H    0.014065
   109  H    0.016019
   110  H    0.018489
   111  H    0.014517
   112  H    0.010513
   113  H    0.032480
   114  H    0.023993
   115  H    0.002079
   116  H    0.026090
   117  H    0.024579
   118  H    0.030685
   119  H   -0.001201
   120  H    0.020422
   121  H    0.017932
   122  H    0.017598
   123  H    0.027390
   124  H    0.025131
   125  H    0.023670
   126  H    0.014861
   127  H    0.020001
   128  H    0.017858
   129  H    0.008521
   130  H    0.021144
   131  H    0.021159
   132  H    0.022077
   133  H    0.020723
   134  H    0.020684
   135  H    0.020129
   136  H    0.019276
   137  H    0.014700
   138  H    0.016033
   139  H    0.011881
   140  H    0.013923
 Sum of Mulliken charges =  -0.00000

 Dipole moment (field-independent basis, Debye):
    X=             -5.0582    Y=              1.4088    Z=              3.1845  Tot=              6.1409
 N-N= 4.332203296052D+03 E-N= 0.000000000000D+00  KE=-9.338869305031D+03
 Leave Link  601 at Thu Apr 28 15:25:07 2022, MaxMem=  6710886400 cpu:               1.0 elap:               0.1
 (Enter /sw/apps/gaussian-16.0/g16/l9999.exe)
 1\1\GINC-BP1-COMPUTE156\SP\RZINDO CIS\STO-3G\C55H74Mg1N4O6\OF15641\28-
 Apr-2022\0\\#p ZINDO=(nstates=5)\\step_1601_chromophore_21 ZINDO\\0,1\
 Mg,0,16.25,50.897,25.274\C,0,18.032,49.629,27.906\C,0,13.627,51.754,27
 .484\C,0,14.633,52.169,22.668\C,0,18.901,49.801,23.114\N,0,15.941,50.8
 05,27.388\C,0,16.903,50.398,28.302\C,0,16.421,50.603,29.758\C,0,14.895
 ,50.875,29.556\C,0,14.774,51.159,28.068\C,0,13.92,49.777,30.051\C,0,17
 .325,51.639,30.338\C,0,17.329,51.848,31.866\C,0,16.388,51.033,32.791\O

 Normal termination of Gaussian 16 at Thu Apr 28 15:25:07 2022.
