 Gaussian 16, Revision A.03,
 Gaussian 16:  ES64L-G16RevA.03 25-Dec-2016

 ------------------------------
 #p blyp/Def2SVP td=(nstates=5)
 ------------------------------

 --------------------------------------------------
 step_151_chromophore_14 TDDFT with blyp functional
 --------------------------------------------------
 Symbolic Z-matrix:
 Charge =  0 Multiplicity = 1

                         Standard orientation:
 ---------------------------------------------------------------------
 Center     Atomic      Atomic             Coordinates (Angstroms)
 Number     Number       Type             X           Y           Z
 ---------------------------------------------------------------------
      1         12           0        5.703706    0.823764   -0.108064
      2          6           0        4.761687   -2.486981    0.486923
      3          6           0        4.108736    0.586518   -3.163129
      4          6           0        5.802917    4.283179   -0.412224
      5          6           0        6.543728    1.085810    3.243302
      6          7           0        4.416758   -0.731457   -1.113538
      7          6           0        4.252971   -2.005701   -0.693815
      8          6           0        3.413599   -2.760039   -1.710111
      9          6           0        3.602940   -1.884056   -2.940125
     10          6           0        4.104270   -0.564067   -2.430367
     11          6           0        4.456920   -2.564299   -4.030963
     12          6           0        1.914536   -2.771024   -1.153797
     13          6           0        1.073666   -3.982804   -1.614242
     14          6           0       -0.372281   -3.730859   -2.195300
     15          8           0       -0.726307   -3.726902   -3.352086
     16          8           0       -1.276910   -3.583316   -1.131365
     17          7           0        5.177675    2.226393   -1.675495
     18          6           0        4.577942    1.863728   -2.805486
     19          6           0        4.473779    3.027542   -3.672924
     20          6           0        4.988313    4.139050   -2.934362
     21          6           0        5.387225    3.578222   -1.575171
     22          6           0        3.944788    2.972509   -5.099447
     23          6           0        5.033486    5.592903   -3.391998
     24          8           0        4.688938    5.956608   -4.508751
     25          6           0        5.339281    6.744935   -2.441215
     26          7           0        6.047734    2.434232    1.216305
     27          6           0        6.162356    3.754831    0.856072
     28          6           0        6.847480    4.556453    2.043031
     29          6           0        7.043422    3.463324    3.157833
     30          6           0        6.507385    2.238326    2.492405
     31          6           0        8.183297    5.152555    1.659915
     32          6           0        6.361586    3.803283    4.577239
     33          6           0        7.190577    3.606450    5.838719
     34          7           0        5.687438   -0.371947    1.556818
     35          6           0        6.176644   -0.175057    2.832123
     36          6           0        6.251857   -1.428995    3.588306
     37          6           0        5.628017   -2.396947    2.655700
     38          6           0        5.374240   -1.678389    1.480890
     39          6           0        6.861388   -1.547857    4.986231
     40          6           0        5.226825   -3.793042    2.517286
     41          8           0        5.179811   -4.736817    3.287253
     42          6           0        4.607691   -3.899433    1.043864
     43          6           0        5.368341   -4.949488    0.317030
     44          8           0        4.869946   -5.883145   -0.273320
     45          8           0        6.753639   -4.704443    0.259336
     46          6           0        7.621737   -5.811064   -0.178510
     47          6           0       -2.705630   -3.251716   -1.445276
     48          6           0       -3.275071   -1.975438   -0.787431
     49          6           0       -4.160783   -1.119129   -1.383118
     50          6           0       -4.121460   -0.829335   -2.878089
     51          6           0       -4.949655   -0.136652   -0.531218
     52          6           0       -6.434806   -0.247653   -0.564295
     53          6           0       -7.118722   -0.043414    0.786833
     54          6           0       -8.710349    0.184380    0.646041
     55          6           0       -9.212169    0.882217    1.889326
     56          6           0       -9.467122   -1.177044    0.317274
     57          6           0      -10.754749   -1.025896   -0.523691
     58          6           0      -12.005468   -1.634309    0.065400
     59          6           0      -12.734297   -0.641498    0.973141
     60          6           0      -12.491408   -1.034400    2.477599
     61          6           0      -14.258445   -0.494673    0.718310
     62          6           0      -14.702180    0.953157    1.124681
     63          6           0      -15.442955    1.770475    0.072648
     64          6           0      -16.610935    2.526492    0.812043
     65          6           0      -18.062930    2.591956    0.146049
     66          6           0      -16.114670    3.878715    1.341482
     67          1           0        3.722278    0.439581   -4.173901
     68          1           0        5.985693    5.354840   -0.512639
     69          1           0        6.978855    1.127995    4.244067
     70          1           0        3.932147   -3.714337   -1.797265
     71          1           0        2.566295   -1.793715   -3.262866
     72          1           0        5.173241   -3.254923   -3.584889
     73          1           0        5.117306   -1.894907   -4.581089
     74          1           0        3.810989   -3.090394   -4.732919
     75          1           0        1.337814   -1.884607   -1.417064
     76          1           0        1.936447   -2.760773   -0.064683
     77          1           0        0.906148   -4.656647   -0.774522
     78          1           0        1.664209   -4.550602   -2.332563
     79          1           0        2.859317    3.034760   -5.180822
     80          1           0        4.185478    2.043199   -5.616289
     81          1           0        4.193227    3.934208   -5.547357
     82          1           0        6.406137    6.754003   -2.216507
     83          1           0        4.701256    6.616889   -1.566531
     84          1           0        5.016655    7.665748   -2.928353
     85          1           0        6.114832    5.257564    2.444552
     86          1           0        8.101016    3.220533    3.264735
     87          1           0        8.249392    5.373942    0.594839
     88          1           0        8.982701    4.452868    1.905330
     89          1           0        8.285022    6.085249    2.214305
     90          1           0        5.456689    3.203121    4.673834
     91          1           0        6.152751    4.872621    4.566746
     92          1           0        8.018454    4.315690    5.816002
     93          1           0        7.501966    2.574976    6.008295
     94          1           0        6.572339    3.851589    6.703495
     95          1           0        6.515198   -2.473489    5.447475
     96          1           0        6.586724   -0.641362    5.525703
     97          1           0        7.950413   -1.588388    5.000938
     98          1           0        3.551912   -4.165710    1.102530
     99          1           0        7.119353   -6.772334   -0.068993
    100          1           0        8.638525   -5.758068    0.210851
    101          1           0        7.711166   -5.582288   -1.239726
    102          1           0       -3.216617   -4.005728   -0.845649
    103          1           0       -3.038144   -3.448315   -2.464281
    104          1           0       -3.398275   -2.013317    0.294904
    105          1           0       -3.804125    0.183643   -3.124381
    106          1           0       -5.127933   -0.967750   -3.272243
    107          1           0       -3.409345   -1.487258   -3.378292
    108          1           0       -4.735493    0.873321   -0.878606
    109          1           0       -4.602399   -0.166577    0.501731
    110          1           0       -6.531277   -1.299239   -0.833279
    111          1           0       -6.844272    0.416221   -1.325999
    112          1           0       -6.550644    0.812266    1.152415
    113          1           0       -6.925566   -0.961928    1.339532
    114          1           0       -8.788313    0.918491   -0.156171
    115          1           0       -9.801178    0.232377    2.536055
    116          1           0       -9.929638    1.552381    1.416307
    117          1           0       -8.451717    1.383230    2.487954
    118          1           0       -9.690586   -1.624890    1.285339
    119          1           0       -8.824010   -1.813266   -0.291509
    120          1           0      -10.460592   -1.527419   -1.445524
    121          1           0      -11.066867   -0.003958   -0.737691
    122          1           0      -11.778110   -2.482035    0.711561
    123          1           0      -12.721947   -1.963231   -0.687515
    124          1           0      -12.185731    0.294163    0.867147
    125          1           0      -11.614399   -1.666102    2.618321
    126          1           0      -13.265413   -1.696148    2.867070
    127          1           0      -12.524587   -0.143202    3.103348
    128          1           0      -14.726467   -1.189656    1.415130
    129          1           0      -14.610027   -0.862320   -0.245566
    130          1           0      -13.865828    1.556632    1.477465
    131          1           0      -15.341694    0.892640    2.004230
    132          1           0      -15.785578    1.043850   -0.664984
    133          1           0      -14.759819    2.520278   -0.325184
    134          1           0      -16.945559    2.005370    1.709738
    135          1           0      -18.845039    2.116108    0.738699
    136          1           0      -17.991328    2.105816   -0.827453
    137          1           0      -18.343800    3.634139   -0.005977
    138          1           0      -16.728990    4.648852    0.873739
    139          1           0      -15.046235    4.028279    1.186490
    140          1           0      -16.314303    3.971315    2.409645
 ---------------------------------------------------------------------

 SCF Done:  E(RB-LYP) =  -3007.38019611     A.U. after   21 cycles

 Excitation energies and oscillator strengths:

 Excited State   1:      Singlet-A      1.7671 eV  701.61 nm  f=0.0191  <S**2>=0.000
     244 -> 247        0.68659
     246 -> 247        0.16326
 This state for optimization and/or second-order correction.
 Total Energy, E(TD-HF/TD-DFT) =  -3007.31525480
 Copying the excited state density for this state as the 1-particle RhoCI density.

 Excited State   2:      Singlet-A      1.8172 eV  682.28 nm  f=0.2614  <S**2>=0.000
     243 -> 247        0.17325
     244 -> 247       -0.15660
     245 -> 247        0.12660
     245 -> 248        0.16492
     246 -> 247        0.64236
     246 <- 247       -0.14321

 Excited State   3:      Singlet-A      1.8962 eV  653.85 nm  f=0.0632  <S**2>=0.000
     243 -> 247        0.52423
     245 -> 247        0.41189
     246 -> 247       -0.20077

 Excited State   4:      Singlet-A      2.1078 eV  588.20 nm  f=0.0598  <S**2>=0.000
     243 -> 247       -0.42929
     245 -> 247        0.49045
     246 -> 248       -0.22491

 Excited State   5:      Singlet-A      2.3948 eV  517.73 nm  f=0.0006  <S**2>=0.000
     240 -> 247        0.63288
     241 -> 247       -0.30052

 The electronic state is 1-A.
 Alpha  occ. eigenvalues --  -46.27951 -18.81245 -18.81005 -18.76897 -18.76809
 Alpha  occ. eigenvalues --  -18.76071 -18.75461 -14.03767 -14.02996 -14.01578
 Alpha  occ. eigenvalues --  -14.01154 -10.04103 -10.03933 -10.00012  -9.99842
 Alpha  occ. eigenvalues --   -9.97889  -9.97662  -9.97442  -9.97005  -9.96313
 Alpha  occ. eigenvalues --   -9.96216  -9.96066  -9.95627  -9.95345  -9.94978
 Alpha  occ. eigenvalues --   -9.94738  -9.94570  -9.94150  -9.93906  -9.93810
 Alpha  occ. eigenvalues --   -9.93806  -9.93786  -9.93722  -9.93619  -9.93582
 Alpha  occ. eigenvalues --   -9.93443  -9.93401  -9.93313  -9.93247  -9.93216
 Alpha  occ. eigenvalues --   -9.92897  -9.92832  -9.92635  -9.92421  -9.92400
 Alpha  occ. eigenvalues --   -9.92303  -9.92286  -9.92060  -9.91965  -9.91895
 Alpha  occ. eigenvalues --   -9.91738  -9.91643  -9.91626  -9.91472  -9.91463
 Alpha  occ. eigenvalues --   -9.91336  -9.91205  -9.91200  -9.91045  -9.90862
 Alpha  occ. eigenvalues --   -9.90861  -9.90724  -9.90700  -9.90655  -9.90487
 Alpha  occ. eigenvalues --   -9.90371  -2.92545  -1.72931  -1.72420  -1.72282
 Alpha  occ. eigenvalues --   -0.96887  -0.96177  -0.91627  -0.91521  -0.89431
 Alpha  occ. eigenvalues --   -0.88939  -0.87103  -0.86283  -0.86043  -0.85260
 Alpha  occ. eigenvalues --   -0.75862  -0.73783  -0.73091  -0.72969  -0.72533
 Alpha  occ. eigenvalues --   -0.72028  -0.71638  -0.71509  -0.70653  -0.69916
 Alpha  occ. eigenvalues --   -0.69088  -0.68958  -0.68394  -0.68150  -0.67558
 Alpha  occ. eigenvalues --   -0.66692  -0.66055  -0.65103  -0.64913  -0.64598
 Alpha  occ. eigenvalues --   -0.64218  -0.62766  -0.62284  -0.61655  -0.61026
 Alpha  occ. eigenvalues --   -0.60340  -0.60011  -0.59865  -0.59530  -0.59079
 Alpha  occ. eigenvalues --   -0.58209  -0.57815  -0.57279  -0.55561  -0.54582
 Alpha  occ. eigenvalues --   -0.54233  -0.53212  -0.53030  -0.51933  -0.51447
 Alpha  occ. eigenvalues --   -0.51419  -0.51215  -0.51039  -0.50788  -0.49717
 Alpha  occ. eigenvalues --   -0.49058  -0.48970  -0.48924  -0.48446  -0.46488
 Alpha  occ. eigenvalues --   -0.46302  -0.45919  -0.45732  -0.45559  -0.44682
 Alpha  occ. eigenvalues --   -0.43732  -0.43207  -0.43019  -0.42433  -0.42339
 Alpha  occ. eigenvalues --   -0.42000  -0.41929  -0.41676  -0.41454  -0.41034
 Alpha  occ. eigenvalues --   -0.40879  -0.40585  -0.40384  -0.40338  -0.40100
 Alpha  occ. eigenvalues --   -0.39787  -0.39483  -0.39420  -0.39170  -0.38958
 Alpha  occ. eigenvalues --   -0.38902  -0.38618  -0.38534  -0.38407  -0.38297
 Alpha  occ. eigenvalues --   -0.38289  -0.37758  -0.37499  -0.37457  -0.37335
 Alpha  occ. eigenvalues --   -0.37146  -0.36952  -0.36908  -0.36821  -0.36558
 Alpha  occ. eigenvalues --   -0.36416  -0.36274  -0.35913  -0.35667  -0.35401
 Alpha  occ. eigenvalues --   -0.35373  -0.35249  -0.35174  -0.34983  -0.34932
 Alpha  occ. eigenvalues --   -0.34833  -0.34762  -0.34583  -0.34264  -0.33982
 Alpha  occ. eigenvalues --   -0.33743  -0.33717  -0.33564  -0.33372  -0.33217
 Alpha  occ. eigenvalues --   -0.33050  -0.32933  -0.32767  -0.32720  -0.32579
 Alpha  occ. eigenvalues --   -0.32421  -0.32331  -0.32133  -0.32023  -0.31737
 Alpha  occ. eigenvalues --   -0.31386  -0.31227  -0.31175  -0.30736  -0.30662
 Alpha  occ. eigenvalues --   -0.30555  -0.30300  -0.30131  -0.30093  -0.29846
 Alpha  occ. eigenvalues --   -0.29657  -0.29579  -0.29448  -0.29309  -0.28818
 Alpha  occ. eigenvalues --   -0.28681  -0.28167  -0.28135  -0.28037  -0.27926
 Alpha  occ. eigenvalues --   -0.27869  -0.27449  -0.27191  -0.27077  -0.26835
 Alpha  occ. eigenvalues --   -0.26075  -0.25931  -0.25721  -0.25589  -0.24920
 Alpha  occ. eigenvalues --   -0.24858  -0.24483  -0.24193  -0.23955  -0.23327
 Alpha  occ. eigenvalues --   -0.23142  -0.22672  -0.21936  -0.21748  -0.20728
 Alpha  occ. eigenvalues --   -0.20696  -0.20513  -0.18980  -0.18360  -0.17756
 Alpha  occ. eigenvalues --   -0.16168
 Alpha virt. eigenvalues --   -0.11924  -0.07238  -0.06091  -0.04798  -0.04342
 Alpha virt. eigenvalues --   -0.03218  -0.02900  -0.02431  -0.01613   0.00265
 Alpha virt. eigenvalues --    0.01414   0.01696   0.02295   0.02692   0.02879

 Mulliken charges:
               1
     1  Mg   0.694458
     2  C   -0.008421
     3  C   -0.082763
     4  C   -0.035863
     5  C   -0.102719
     6  N   -0.197594
     7  C   -0.143604
     8  C    0.010776
     9  C    0.043939
    10  C    0.032466
    11  C    0.135136
    12  C    0.119115
    13  C    0.140608
    14  C    0.070742
    15  O   -0.171419
    16  O   -0.308656
    17  N   -0.237189
    18  C    0.145623
    19  C   -0.144543
    20  C    0.021501
    21  C    0.106109
    22  C    0.185824
    23  C   -0.096228
    24  O   -0.160403
    25  C    0.134528
    26  N   -0.233193
    27  C   -0.011356
    28  C    0.042073
    29  C    0.006026
    30  C    0.044501
    31  C    0.146586
    32  C    0.094343
    33  C    0.052559
    34  N   -0.262752
    35  C    0.131893
    36  C   -0.161582
    37  C    0.041425
    38  C    0.119440
    39  C    0.159532
    40  C   -0.052756
    41  O   -0.119442
    42  C    0.087561
    43  C    0.108714
    44  O   -0.163641
    45  O   -0.314188
    46  C    0.225415
    47  C    0.287816
    48  C   -0.050959
    49  C   -0.163604
    50  C    0.132810
    51  C    0.149330
    52  C    0.040920
    53  C    0.067036
    54  C   -0.077950
    55  C    0.126201
    56  C    0.108462
    57  C    0.083491
    58  C    0.135500
    59  C   -0.129065
    60  C    0.088604
    61  C    0.144228
    62  C    0.040829
    63  C    0.145985
    64  C   -0.130545
    65  C    0.088849
    66  C    0.103692
    67  H   -0.061604
    68  H   -0.074718
    69  H   -0.081366
    70  H   -0.015204
    71  H   -0.027210
    72  H   -0.012348
    73  H   -0.019770
    74  H    0.006881
    75  H   -0.008135
    76  H   -0.012274
    77  H    0.002506
    78  H   -0.003719
    79  H   -0.014108
    80  H   -0.000396
    81  H    0.000673
    82  H    0.017286
    83  H    0.012061
    84  H   -0.008109
    85  H   -0.022988
    86  H   -0.021150
    87  H   -0.009543
    88  H   -0.012760
    89  H   -0.005416
    90  H   -0.008533
    91  H   -0.019706
    92  H   -0.004211
    93  H   -0.001533
    94  H   -0.009241
    95  H    0.013119
    96  H    0.001582
    97  H    0.004246
    98  H   -0.007414
    99  H    0.029038
   100  H    0.021042
   101  H   -0.002059
   102  H   -0.012201
   103  H    0.011534
   104  H   -0.030917
   105  H    0.001094
   106  H   -0.007467
   107  H   -0.000530
   108  H   -0.034282
   109  H   -0.039605
   110  H   -0.030693
   111  H   -0.027023
   112  H   -0.027744
   113  H   -0.027533
   114  H   -0.040303
   115  H   -0.021233
   116  H   -0.014548
   117  H   -0.012274
   118  H   -0.024732
   119  H   -0.027945
   120  H   -0.037755
   121  H   -0.025174
   122  H   -0.047484
   123  H   -0.049386
   124  H   -0.027776
   125  H   -0.013902
   126  H   -0.031174
   127  H   -0.007580
   128  H   -0.040054
   129  H   -0.028949
   130  H   -0.030943
   131  H   -0.035720
   132  H   -0.034240
   133  H   -0.023103
   134  H   -0.027806
   135  H   -0.006343
   136  H   -0.018922
   137  H   -0.024109
   138  H   -0.020146
   139  H   -0.011965
   140  H   -0.020197
 Sum of Mulliken charges =  -0.00000

 Dipole moment (field-independent basis, Debye):
    X=              2.0102    Y=              3.5005    Z=              2.9141  Tot=              4.9786
 Quadrupole moment (field-independent basis, Debye-Ang):
   XX=           -338.2814   YY=           -434.6987   ZZ=           -420.4161
   XY=             15.8974   XZ=             10.7615   YZ=             34.9597

 Normal termination of Gaussian 16 at Wed May  4 09:14:42 2022.
