 Gaussian 16, Revision A.03,
 Gaussian 16:  ES64L-G16RevA.03 25-Dec-2016

 -----------------------------------
 #p cam-b3lyp/Def2SVP td=(nstates=5)
 -----------------------------------

 -------------------------------------------------------
 step_151_chromophore_14 TDDFT with cam-b3lyp functional
 -------------------------------------------------------
 Symbolic Z-matrix:
 Charge =  0 Multiplicity = 1

                         Standard orientation:
 ---------------------------------------------------------------------
 Center     Atomic      Atomic             Coordinates (Angstroms)
 Number     Number       Type             X           Y           Z
 ---------------------------------------------------------------------
      1         12           0        5.703706    0.823764   -0.108064
      2          6           0        4.761687   -2.486981    0.486923
      3          6           0        4.108736    0.586518   -3.163129
      4          6           0        5.802917    4.283179   -0.412224
      5          6           0        6.543728    1.085810    3.243302
      6          7           0        4.416758   -0.731457   -1.113538
      7          6           0        4.252971   -2.005701   -0.693815
      8          6           0        3.413599   -2.760039   -1.710111
      9          6           0        3.602940   -1.884056   -2.940125
     10          6           0        4.104270   -0.564067   -2.430367
     11          6           0        4.456920   -2.564299   -4.030963
     12          6           0        1.914536   -2.771024   -1.153797
     13          6           0        1.073666   -3.982804   -1.614242
     14          6           0       -0.372281   -3.730859   -2.195300
     15          8           0       -0.726307   -3.726902   -3.352086
     16          8           0       -1.276910   -3.583316   -1.131365
     17          7           0        5.177675    2.226393   -1.675495
     18          6           0        4.577942    1.863728   -2.805486
     19          6           0        4.473779    3.027542   -3.672924
     20          6           0        4.988313    4.139050   -2.934362
     21          6           0        5.387225    3.578222   -1.575171
     22          6           0        3.944788    2.972509   -5.099447
     23          6           0        5.033486    5.592903   -3.391998
     24          8           0        4.688938    5.956608   -4.508751
     25          6           0        5.339281    6.744935   -2.441215
     26          7           0        6.047734    2.434232    1.216305
     27          6           0        6.162356    3.754831    0.856072
     28          6           0        6.847480    4.556453    2.043031
     29          6           0        7.043422    3.463324    3.157833
     30          6           0        6.507385    2.238326    2.492405
     31          6           0        8.183297    5.152555    1.659915
     32          6           0        6.361586    3.803283    4.577239
     33          6           0        7.190577    3.606450    5.838719
     34          7           0        5.687438   -0.371947    1.556818
     35          6           0        6.176644   -0.175057    2.832123
     36          6           0        6.251857   -1.428995    3.588306
     37          6           0        5.628017   -2.396947    2.655700
     38          6           0        5.374240   -1.678389    1.480890
     39          6           0        6.861388   -1.547857    4.986231
     40          6           0        5.226825   -3.793042    2.517286
     41          8           0        5.179811   -4.736817    3.287253
     42          6           0        4.607691   -3.899433    1.043864
     43          6           0        5.368341   -4.949488    0.317030
     44          8           0        4.869946   -5.883145   -0.273320
     45          8           0        6.753639   -4.704443    0.259336
     46          6           0        7.621737   -5.811064   -0.178510
     47          6           0       -2.705630   -3.251716   -1.445276
     48          6           0       -3.275071   -1.975438   -0.787431
     49          6           0       -4.160783   -1.119129   -1.383118
     50          6           0       -4.121460   -0.829335   -2.878089
     51          6           0       -4.949655   -0.136652   -0.531218
     52          6           0       -6.434806   -0.247653   -0.564295
     53          6           0       -7.118722   -0.043414    0.786833
     54          6           0       -8.710349    0.184380    0.646041
     55          6           0       -9.212169    0.882217    1.889326
     56          6           0       -9.467122   -1.177044    0.317274
     57          6           0      -10.754749   -1.025896   -0.523691
     58          6           0      -12.005468   -1.634309    0.065400
     59          6           0      -12.734297   -0.641498    0.973141
     60          6           0      -12.491408   -1.034400    2.477599
     61          6           0      -14.258445   -0.494673    0.718310
     62          6           0      -14.702180    0.953157    1.124681
     63          6           0      -15.442955    1.770475    0.072648
     64          6           0      -16.610935    2.526492    0.812043
     65          6           0      -18.062930    2.591956    0.146049
     66          6           0      -16.114670    3.878715    1.341482
     67          1           0        3.722278    0.439581   -4.173901
     68          1           0        5.985693    5.354840   -0.512639
     69          1           0        6.978855    1.127995    4.244067
     70          1           0        3.932147   -3.714337   -1.797265
     71          1           0        2.566295   -1.793715   -3.262866
     72          1           0        5.173241   -3.254923   -3.584889
     73          1           0        5.117306   -1.894907   -4.581089
     74          1           0        3.810989   -3.090394   -4.732919
     75          1           0        1.337814   -1.884607   -1.417064
     76          1           0        1.936447   -2.760773   -0.064683
     77          1           0        0.906148   -4.656647   -0.774522
     78          1           0        1.664209   -4.550602   -2.332563
     79          1           0        2.859317    3.034760   -5.180822
     80          1           0        4.185478    2.043199   -5.616289
     81          1           0        4.193227    3.934208   -5.547357
     82          1           0        6.406137    6.754003   -2.216507
     83          1           0        4.701256    6.616889   -1.566531
     84          1           0        5.016655    7.665748   -2.928353
     85          1           0        6.114832    5.257564    2.444552
     86          1           0        8.101016    3.220533    3.264735
     87          1           0        8.249392    5.373942    0.594839
     88          1           0        8.982701    4.452868    1.905330
     89          1           0        8.285022    6.085249    2.214305
     90          1           0        5.456689    3.203121    4.673834
     91          1           0        6.152751    4.872621    4.566746
     92          1           0        8.018454    4.315690    5.816002
     93          1           0        7.501966    2.574976    6.008295
     94          1           0        6.572339    3.851589    6.703495
     95          1           0        6.515198   -2.473489    5.447475
     96          1           0        6.586724   -0.641362    5.525703
     97          1           0        7.950413   -1.588388    5.000938
     98          1           0        3.551912   -4.165710    1.102530
     99          1           0        7.119353   -6.772334   -0.068993
    100          1           0        8.638525   -5.758068    0.210851
    101          1           0        7.711166   -5.582288   -1.239726
    102          1           0       -3.216617   -4.005728   -0.845649
    103          1           0       -3.038144   -3.448315   -2.464281
    104          1           0       -3.398275   -2.013317    0.294904
    105          1           0       -3.804125    0.183643   -3.124381
    106          1           0       -5.127933   -0.967750   -3.272243
    107          1           0       -3.409345   -1.487258   -3.378292
    108          1           0       -4.735493    0.873321   -0.878606
    109          1           0       -4.602399   -0.166577    0.501731
    110          1           0       -6.531277   -1.299239   -0.833279
    111          1           0       -6.844272    0.416221   -1.325999
    112          1           0       -6.550644    0.812266    1.152415
    113          1           0       -6.925566   -0.961928    1.339532
    114          1           0       -8.788313    0.918491   -0.156171
    115          1           0       -9.801178    0.232377    2.536055
    116          1           0       -9.929638    1.552381    1.416307
    117          1           0       -8.451717    1.383230    2.487954
    118          1           0       -9.690586   -1.624890    1.285339
    119          1           0       -8.824010   -1.813266   -0.291509
    120          1           0      -10.460592   -1.527419   -1.445524
    121          1           0      -11.066867   -0.003958   -0.737691
    122          1           0      -11.778110   -2.482035    0.711561
    123          1           0      -12.721947   -1.963231   -0.687515
    124          1           0      -12.185731    0.294163    0.867147
    125          1           0      -11.614399   -1.666102    2.618321
    126          1           0      -13.265413   -1.696148    2.867070
    127          1           0      -12.524587   -0.143202    3.103348
    128          1           0      -14.726467   -1.189656    1.415130
    129          1           0      -14.610027   -0.862320   -0.245566
    130          1           0      -13.865828    1.556632    1.477465
    131          1           0      -15.341694    0.892640    2.004230
    132          1           0      -15.785578    1.043850   -0.664984
    133          1           0      -14.759819    2.520278   -0.325184
    134          1           0      -16.945559    2.005370    1.709738
    135          1           0      -18.845039    2.116108    0.738699
    136          1           0      -17.991328    2.105816   -0.827453
    137          1           0      -18.343800    3.634139   -0.005977
    138          1           0      -16.728990    4.648852    0.873739
    139          1           0      -15.046235    4.028279    1.186490
    140          1           0      -16.314303    3.971315    2.409645
 ---------------------------------------------------------------------

 SCF Done:  E(RCAM-B3LYP) =  -3007.17018732     A.U. after   18 cycles

 Excitation energies and oscillator strengths:

 Excited State   1:      Singlet-A      1.7142 eV  723.28 nm  f=0.3959  <S**2>=0.000
     245 -> 248       -0.16705
     246 -> 247        0.68814
     245 <- 248       -0.10376
 This state for optimization and/or second-order correction.
 Total Energy, E(TD-HF/TD-DFT) =  -3007.10719208
 Copying the excited state density for this state as the 1-particle RhoCI density.

 Excited State   2:      Singlet-A      2.2811 eV  543.54 nm  f=0.1084  <S**2>=0.000
     245 -> 247        0.63484
     246 -> 248        0.29347

 Excited State   3:      Singlet-A      3.3376 eV  371.47 nm  f=0.0036  <S**2>=0.000
     243 -> 247        0.56433
     244 -> 247       -0.36309
     246 -> 248       -0.11094

 Excited State   4:      Singlet-A      3.4244 eV  362.06 nm  f=0.0015  <S**2>=0.000
     241 -> 247        0.10516
     243 -> 247        0.32014
     244 -> 247        0.56807
     246 -> 248       -0.16900

 Excited State   5:      Singlet-A      3.5181 eV  352.42 nm  f=0.1644  <S**2>=0.000
     240 -> 247        0.25333
     240 -> 251       -0.11438
     241 -> 247        0.41708
     241 -> 249        0.19795
     241 -> 250       -0.11935
     241 -> 251       -0.12920
     245 -> 247        0.15466
     246 -> 248       -0.31504

 The electronic state is 1-A.
 Alpha  occ. eigenvalues --  -46.89623 -19.24055 -19.23810 -19.20032 -19.19831
 Alpha  occ. eigenvalues --  -19.19113 -19.18869 -14.42735 -14.41792 -14.40239
 Alpha  occ. eigenvalues --  -14.39418 -10.39538 -10.39291 -10.35256 -10.35222
 Alpha  occ. eigenvalues --  -10.32226 -10.32004 -10.31850 -10.31541 -10.30832
 Alpha  occ. eigenvalues --  -10.30469 -10.30369 -10.30281 -10.29273 -10.29121
 Alpha  occ. eigenvalues --  -10.29052 -10.28748 -10.28629 -10.28458 -10.28116
 Alpha  occ. eigenvalues --  -10.27928 -10.27797 -10.27720 -10.27719 -10.27708
 Alpha  occ. eigenvalues --  -10.27567 -10.27400 -10.27311 -10.27251 -10.26962
 Alpha  occ. eigenvalues --  -10.26837 -10.26647 -10.26422 -10.26234 -10.26233
 Alpha  occ. eigenvalues --  -10.26125 -10.26120 -10.26058 -10.25980 -10.25640
 Alpha  occ. eigenvalues --  -10.25600 -10.25473 -10.25341 -10.25180 -10.25110
 Alpha  occ. eigenvalues --  -10.25011 -10.24869 -10.24834 -10.24640 -10.24486
 Alpha  occ. eigenvalues --  -10.24451 -10.24365 -10.24322 -10.24224 -10.24037
 Alpha  occ. eigenvalues --  -10.23962  -3.18110  -1.92972  -1.92549  -1.92428
 Alpha  occ. eigenvalues --   -1.15406  -1.14630  -1.10122  -1.09905  -1.07264
 Alpha  occ. eigenvalues --   -1.06726  -1.04869  -1.03955  -1.03750  -1.02768
 Alpha  occ. eigenvalues --   -0.92903  -0.90642  -0.89888  -0.89677  -0.89265
 Alpha  occ. eigenvalues --   -0.88765  -0.88295  -0.88116  -0.87202  -0.86372
 Alpha  occ. eigenvalues --   -0.85857  -0.85332  -0.84661  -0.84328  -0.83784
 Alpha  occ. eigenvalues --   -0.82772  -0.82192  -0.81151  -0.80806  -0.80416
 Alpha  occ. eigenvalues --   -0.79943  -0.78277  -0.77840  -0.77336  -0.76461
 Alpha  occ. eigenvalues --   -0.75682  -0.75390  -0.75196  -0.74799  -0.74308
 Alpha  occ. eigenvalues --   -0.73217  -0.72781  -0.72216  -0.70374  -0.69103
 Alpha  occ. eigenvalues --   -0.68835  -0.67756  -0.67697  -0.65987  -0.65679
 Alpha  occ. eigenvalues --   -0.65639  -0.65286  -0.65075  -0.64958  -0.63725
 Alpha  occ. eigenvalues --   -0.62979  -0.62917  -0.62511  -0.62087  -0.60082
 Alpha  occ. eigenvalues --   -0.59901  -0.59353  -0.59140  -0.59068  -0.58204
 Alpha  occ. eigenvalues --   -0.57168  -0.56491  -0.56207  -0.55508  -0.55338
 Alpha  occ. eigenvalues --   -0.55219  -0.54701  -0.54672  -0.54323  -0.53895
 Alpha  occ. eigenvalues --   -0.53869  -0.53278  -0.53198  -0.53063  -0.52837
 Alpha  occ. eigenvalues --   -0.52637  -0.52604  -0.52340  -0.51849  -0.51706
 Alpha  occ. eigenvalues --   -0.51387  -0.51322  -0.50999  -0.50871  -0.50758
 Alpha  occ. eigenvalues --   -0.50586  -0.50000  -0.49918  -0.49687  -0.49651
 Alpha  occ. eigenvalues --   -0.49398  -0.49286  -0.49089  -0.49058  -0.48965
 Alpha  occ. eigenvalues --   -0.48916  -0.48592  -0.48475  -0.47855  -0.47669
 Alpha  occ. eigenvalues --   -0.47399  -0.47214  -0.47187  -0.47002  -0.46966
 Alpha  occ. eigenvalues --   -0.46760  -0.46727  -0.46402  -0.46141  -0.45708
 Alpha  occ. eigenvalues --   -0.45539  -0.45436  -0.45330  -0.45124  -0.44908
 Alpha  occ. eigenvalues --   -0.44814  -0.44649  -0.44556  -0.44432  -0.44076
 Alpha  occ. eigenvalues --   -0.44060  -0.43833  -0.43806  -0.43539  -0.43293
 Alpha  occ. eigenvalues --   -0.43076  -0.42825  -0.42715  -0.42442  -0.42031
 Alpha  occ. eigenvalues --   -0.41915  -0.41763  -0.41662  -0.41290  -0.41242
 Alpha  occ. eigenvalues --   -0.41004  -0.40824  -0.40557  -0.40435  -0.40201
 Alpha  occ. eigenvalues --   -0.39930  -0.39113  -0.39068  -0.38978  -0.38932
 Alpha  occ. eigenvalues --   -0.38790  -0.38283  -0.38033  -0.37754  -0.37571
 Alpha  occ. eigenvalues --   -0.37336  -0.36898  -0.36572  -0.36271  -0.35815
 Alpha  occ. eigenvalues --   -0.35707  -0.35408  -0.34974  -0.34708  -0.34298
 Alpha  occ. eigenvalues --   -0.33682  -0.33639  -0.33541  -0.31745  -0.30918
 Alpha  occ. eigenvalues --   -0.30661  -0.30280  -0.30062  -0.29720  -0.24665
 Alpha  occ. eigenvalues --   -0.21454
 Alpha virt. eigenvalues --   -0.09089  -0.02032   0.00306   0.00673   0.02158
 Alpha virt. eigenvalues --    0.04208   0.04991   0.05295   0.05629   0.07051
 Alpha virt. eigenvalues --    0.08138   0.08417   0.08861   0.08955   0.09246

 Mulliken charges:
               1
     1  Mg   0.824999
     2  C   -0.040720
     3  C   -0.094808
     4  C   -0.061601
     5  C   -0.102937
     6  N   -0.268258
     7  C   -0.094506
     8  C   -0.040465
     9  C   -0.019602
    10  C    0.051006
    11  C    0.078495
    12  C    0.066466
    13  C    0.074110
    14  C    0.152334
    15  O   -0.213378
    16  O   -0.374369
    17  N   -0.326893
    18  C    0.158479
    19  C   -0.144846
    20  C   -0.052509
    21  C    0.140809
    22  C    0.126062
    23  C   -0.014023
    24  O   -0.201502
    25  C    0.048886
    26  N   -0.304663
    27  C    0.015463
    28  C   -0.013702
    29  C   -0.050917
    30  C    0.063390
    31  C    0.086035
    32  C    0.034768
    33  C   -0.002828
    34  N   -0.352909
    35  C    0.126604
    36  C   -0.151131
    37  C   -0.043042
    38  C    0.157853
    39  C    0.111941
    40  C    0.049312
    41  O   -0.160054
    42  C    0.008539
    43  C    0.200882
    44  O   -0.202797
    45  O   -0.376903
    46  C    0.185227
    47  C    0.252132
    48  C   -0.072042
    49  C   -0.181988
    50  C    0.073109
    51  C    0.085447
    52  C   -0.009237
    53  C    0.014944
    54  C   -0.131519
    55  C    0.068781
    56  C    0.056758
    57  C    0.026887
    58  C    0.079694
    59  C   -0.179845
    60  C    0.032747
    61  C    0.086381
    62  C   -0.006867
    63  C    0.085939
    64  C   -0.193693
    65  C    0.036198
    66  C    0.046742
    67  H   -0.024659
    68  H   -0.037142
    69  H   -0.046856
    70  H    0.018933
    71  H    0.009850
    72  H    0.011940
    73  H    0.006501
    74  H    0.031666
    75  H    0.022679
    76  H    0.019558
    77  H    0.035327
    78  H    0.028355
    79  H    0.016679
    80  H    0.024869
    81  H    0.034867
    82  H    0.043420
    83  H    0.038936
    84  H    0.029135
    85  H    0.012090
    86  H    0.013496
    87  H    0.014333
    88  H    0.013056
    89  H    0.019892
    90  H    0.021373
    91  H    0.006901
    92  H    0.017233
    93  H    0.017623
    94  H    0.015802
    95  H    0.039259
    96  H    0.022087
    97  H    0.029824
    98  H    0.033780
    99  H    0.053125
   100  H    0.043596
   101  H    0.020391
   102  H    0.017077
   103  H    0.043246
   104  H    0.000095
   105  H    0.025930
   106  H    0.015884
   107  H    0.023206
   108  H   -0.003842
   109  H   -0.006817
   110  H   -0.004412
   111  H   -0.000241
   112  H   -0.000217
   113  H   -0.000148
   114  H   -0.009231
   115  H    0.000684
   116  H    0.007127
   117  H    0.014107
   118  H    0.000043
   119  H    0.001567
   120  H   -0.006779
   121  H    0.002154
   122  H   -0.017440
   123  H   -0.017625
   124  H   -0.001663
   125  H    0.007382
   126  H   -0.005790
   127  H    0.015537
   128  H   -0.010148
   129  H   -0.000531
   130  H   -0.005113
   131  H   -0.006598
   132  H   -0.005632
   133  H    0.005273
   134  H    0.004258
   135  H    0.016422
   136  H    0.004404
   137  H   -0.001076
   138  H    0.003273
   139  H    0.010556
   140  H    0.004294
 Sum of Mulliken charges =  -0.00000

 Dipole moment (field-independent basis, Debye):
    X=              2.2237    Y=              4.1685    Z=              2.4811  Tot=              5.3364
 Quadrupole moment (field-independent basis, Debye-Ang):
   XX=           -336.7143   YY=           -430.7534   ZZ=           -419.2231
   XY=             19.5855   XZ=              8.6292   YZ=             35.0060

 Normal termination of Gaussian 16 at Wed May  4 08:15:57 2022.
