 Gaussian 16, Revision A.03,
 Gaussian 16:  ES64L-G16RevA.03 25-Dec-2016

 ---------------------------------
 #p PBE1PBE/Def2SVP td=(nstates=5)
 ---------------------------------

 -----------------------------------------------------
 step_151_chromophore_14 TDDFT with PBE1PBE functional
 -----------------------------------------------------
 Symbolic Z-matrix:
 Charge =  0 Multiplicity = 1

                         Standard orientation:
 ---------------------------------------------------------------------
 Center     Atomic      Atomic             Coordinates (Angstroms)
 Number     Number       Type             X           Y           Z
 ---------------------------------------------------------------------
      1         12           0        5.703706    0.823764   -0.108064
      2          6           0        4.761687   -2.486981    0.486923
      3          6           0        4.108736    0.586518   -3.163129
      4          6           0        5.802917    4.283179   -0.412224
      5          6           0        6.543728    1.085810    3.243302
      6          7           0        4.416758   -0.731457   -1.113538
      7          6           0        4.252971   -2.005701   -0.693815
      8          6           0        3.413599   -2.760039   -1.710111
      9          6           0        3.602940   -1.884056   -2.940125
     10          6           0        4.104270   -0.564067   -2.430367
     11          6           0        4.456920   -2.564299   -4.030963
     12          6           0        1.914536   -2.771024   -1.153797
     13          6           0        1.073666   -3.982804   -1.614242
     14          6           0       -0.372281   -3.730859   -2.195300
     15          8           0       -0.726307   -3.726902   -3.352086
     16          8           0       -1.276910   -3.583316   -1.131365
     17          7           0        5.177675    2.226393   -1.675495
     18          6           0        4.577942    1.863728   -2.805486
     19          6           0        4.473779    3.027542   -3.672924
     20          6           0        4.988313    4.139050   -2.934362
     21          6           0        5.387225    3.578222   -1.575171
     22          6           0        3.944788    2.972509   -5.099447
     23          6           0        5.033486    5.592903   -3.391998
     24          8           0        4.688938    5.956608   -4.508751
     25          6           0        5.339281    6.744935   -2.441215
     26          7           0        6.047734    2.434232    1.216305
     27          6           0        6.162356    3.754831    0.856072
     28          6           0        6.847480    4.556453    2.043031
     29          6           0        7.043422    3.463324    3.157833
     30          6           0        6.507385    2.238326    2.492405
     31          6           0        8.183297    5.152555    1.659915
     32          6           0        6.361586    3.803283    4.577239
     33          6           0        7.190577    3.606450    5.838719
     34          7           0        5.687438   -0.371947    1.556818
     35          6           0        6.176644   -0.175057    2.832123
     36          6           0        6.251857   -1.428995    3.588306
     37          6           0        5.628017   -2.396947    2.655700
     38          6           0        5.374240   -1.678389    1.480890
     39          6           0        6.861388   -1.547857    4.986231
     40          6           0        5.226825   -3.793042    2.517286
     41          8           0        5.179811   -4.736817    3.287253
     42          6           0        4.607691   -3.899433    1.043864
     43          6           0        5.368341   -4.949488    0.317030
     44          8           0        4.869946   -5.883145   -0.273320
     45          8           0        6.753639   -4.704443    0.259336
     46          6           0        7.621737   -5.811064   -0.178510
     47          6           0       -2.705630   -3.251716   -1.445276
     48          6           0       -3.275071   -1.975438   -0.787431
     49          6           0       -4.160783   -1.119129   -1.383118
     50          6           0       -4.121460   -0.829335   -2.878089
     51          6           0       -4.949655   -0.136652   -0.531218
     52          6           0       -6.434806   -0.247653   -0.564295
     53          6           0       -7.118722   -0.043414    0.786833
     54          6           0       -8.710349    0.184380    0.646041
     55          6           0       -9.212169    0.882217    1.889326
     56          6           0       -9.467122   -1.177044    0.317274
     57          6           0      -10.754749   -1.025896   -0.523691
     58          6           0      -12.005468   -1.634309    0.065400
     59          6           0      -12.734297   -0.641498    0.973141
     60          6           0      -12.491408   -1.034400    2.477599
     61          6           0      -14.258445   -0.494673    0.718310
     62          6           0      -14.702180    0.953157    1.124681
     63          6           0      -15.442955    1.770475    0.072648
     64          6           0      -16.610935    2.526492    0.812043
     65          6           0      -18.062930    2.591956    0.146049
     66          6           0      -16.114670    3.878715    1.341482
     67          1           0        3.722278    0.439581   -4.173901
     68          1           0        5.985693    5.354840   -0.512639
     69          1           0        6.978855    1.127995    4.244067
     70          1           0        3.932147   -3.714337   -1.797265
     71          1           0        2.566295   -1.793715   -3.262866
     72          1           0        5.173241   -3.254923   -3.584889
     73          1           0        5.117306   -1.894907   -4.581089
     74          1           0        3.810989   -3.090394   -4.732919
     75          1           0        1.337814   -1.884607   -1.417064
     76          1           0        1.936447   -2.760773   -0.064683
     77          1           0        0.906148   -4.656647   -0.774522
     78          1           0        1.664209   -4.550602   -2.332563
     79          1           0        2.859317    3.034760   -5.180822
     80          1           0        4.185478    2.043199   -5.616289
     81          1           0        4.193227    3.934208   -5.547357
     82          1           0        6.406137    6.754003   -2.216507
     83          1           0        4.701256    6.616889   -1.566531
     84          1           0        5.016655    7.665748   -2.928353
     85          1           0        6.114832    5.257564    2.444552
     86          1           0        8.101016    3.220533    3.264735
     87          1           0        8.249392    5.373942    0.594839
     88          1           0        8.982701    4.452868    1.905330
     89          1           0        8.285022    6.085249    2.214305
     90          1           0        5.456689    3.203121    4.673834
     91          1           0        6.152751    4.872621    4.566746
     92          1           0        8.018454    4.315690    5.816002
     93          1           0        7.501966    2.574976    6.008295
     94          1           0        6.572339    3.851589    6.703495
     95          1           0        6.515198   -2.473489    5.447475
     96          1           0        6.586724   -0.641362    5.525703
     97          1           0        7.950413   -1.588388    5.000938
     98          1           0        3.551912   -4.165710    1.102530
     99          1           0        7.119353   -6.772334   -0.068993
    100          1           0        8.638525   -5.758068    0.210851
    101          1           0        7.711166   -5.582288   -1.239726
    102          1           0       -3.216617   -4.005728   -0.845649
    103          1           0       -3.038144   -3.448315   -2.464281
    104          1           0       -3.398275   -2.013317    0.294904
    105          1           0       -3.804125    0.183643   -3.124381
    106          1           0       -5.127933   -0.967750   -3.272243
    107          1           0       -3.409345   -1.487258   -3.378292
    108          1           0       -4.735493    0.873321   -0.878606
    109          1           0       -4.602399   -0.166577    0.501731
    110          1           0       -6.531277   -1.299239   -0.833279
    111          1           0       -6.844272    0.416221   -1.325999
    112          1           0       -6.550644    0.812266    1.152415
    113          1           0       -6.925566   -0.961928    1.339532
    114          1           0       -8.788313    0.918491   -0.156171
    115          1           0       -9.801178    0.232377    2.536055
    116          1           0       -9.929638    1.552381    1.416307
    117          1           0       -8.451717    1.383230    2.487954
    118          1           0       -9.690586   -1.624890    1.285339
    119          1           0       -8.824010   -1.813266   -0.291509
    120          1           0      -10.460592   -1.527419   -1.445524
    121          1           0      -11.066867   -0.003958   -0.737691
    122          1           0      -11.778110   -2.482035    0.711561
    123          1           0      -12.721947   -1.963231   -0.687515
    124          1           0      -12.185731    0.294163    0.867147
    125          1           0      -11.614399   -1.666102    2.618321
    126          1           0      -13.265413   -1.696148    2.867070
    127          1           0      -12.524587   -0.143202    3.103348
    128          1           0      -14.726467   -1.189656    1.415130
    129          1           0      -14.610027   -0.862320   -0.245566
    130          1           0      -13.865828    1.556632    1.477465
    131          1           0      -15.341694    0.892640    2.004230
    132          1           0      -15.785578    1.043850   -0.664984
    133          1           0      -14.759819    2.520278   -0.325184
    134          1           0      -16.945559    2.005370    1.709738
    135          1           0      -18.845039    2.116108    0.738699
    136          1           0      -17.991328    2.105816   -0.827453
    137          1           0      -18.343800    3.634139   -0.005977
    138          1           0      -16.728990    4.648852    0.873739
    139          1           0      -15.046235    4.028279    1.186490
    140          1           0      -16.314303    3.971315    2.409645
 ---------------------------------------------------------------------

 SCF Done:  E(RPBE1PBE) =  -3005.35880104     A.U. after   15 cycles

 Excitation energies and oscillator strengths:

 Excited State   1:      Singlet-A      1.8659 eV  664.48 nm  f=0.3830  <S**2>=0.000
     245 -> 248        0.16202
     246 -> 247        0.69506
     246 <- 247       -0.11263
 This state for optimization and/or second-order correction.
 Total Energy, E(TD-HF/TD-DFT) =  -3005.29023149
 Copying the excited state density for this state as the 1-particle RhoCI density.

 Excited State   2:      Singlet-A      2.2842 eV  542.80 nm  f=0.1056  <S**2>=0.000
     245 -> 247        0.64722
     246 -> 248       -0.26228

 Excited State   3:      Singlet-A      2.8981 eV  427.82 nm  f=0.0014  <S**2>=0.000
     244 -> 247        0.68008

 Excited State   4:      Singlet-A      2.9774 eV  416.42 nm  f=0.0005  <S**2>=0.000
     241 -> 247        0.59775
     241 -> 249       -0.14007
     243 -> 247        0.30779

 Excited State   5:      Singlet-A      3.0532 eV  406.08 nm  f=0.0023  <S**2>=0.000
     240 -> 247       -0.37407
     241 -> 247       -0.23233
     243 -> 247        0.52190

 The electronic state is 1-A.
 Alpha  occ. eigenvalues --  -46.92986 -19.24743 -19.24566 -19.20299 -19.20116
 Alpha  occ. eigenvalues --  -19.19488 -19.18938 -14.42213 -14.41321 -14.39739
 Alpha  occ. eigenvalues --  -14.39185 -10.36612 -10.36372 -10.32544 -10.32231
 Alpha  occ. eigenvalues --  -10.29849 -10.29448 -10.29342 -10.28784 -10.28357
 Alpha  occ. eigenvalues --  -10.28343 -10.28181 -10.27690 -10.27211 -10.26992
 Alpha  occ. eigenvalues --  -10.26944 -10.26404 -10.26199 -10.26171 -10.25700
 Alpha  occ. eigenvalues --  -10.25672 -10.25628 -10.25560 -10.25480 -10.25367
 Alpha  occ. eigenvalues --  -10.25256 -10.25003 -10.24981 -10.24914 -10.24531
 Alpha  occ. eigenvalues --  -10.24408 -10.24081 -10.24074 -10.23939 -10.23831
 Alpha  occ. eigenvalues --  -10.23781 -10.23705 -10.23553 -10.23320 -10.23195
 Alpha  occ. eigenvalues --  -10.22974 -10.22962 -10.22910 -10.22905 -10.22657
 Alpha  occ. eigenvalues --  -10.22601 -10.22459 -10.22395 -10.22177 -10.21980
 Alpha  occ. eigenvalues --  -10.21917 -10.21901 -10.21758 -10.21613 -10.21512
 Alpha  occ. eigenvalues --  -10.21417  -3.15053  -1.87853  -1.87410  -1.87293
 Alpha  occ. eigenvalues --   -1.10188  -1.09454  -1.04792  -1.04713  -1.02141
 Alpha  occ. eigenvalues --   -1.01643  -0.99468  -0.98555  -0.98371  -0.97454
 Alpha  occ. eigenvalues --   -0.87342  -0.84766  -0.83992  -0.83988  -0.83513
 Alpha  occ. eigenvalues --   -0.83040  -0.82451  -0.82396  -0.81331  -0.80730
 Alpha  occ. eigenvalues --   -0.80011  -0.79572  -0.78860  -0.78611  -0.78062
 Alpha  occ. eigenvalues --   -0.76938  -0.76448  -0.75319  -0.75150  -0.74614
 Alpha  occ. eigenvalues --   -0.74150  -0.72659  -0.72131  -0.71533  -0.70764
 Alpha  occ. eigenvalues --   -0.69853  -0.69686  -0.69296  -0.68940  -0.68483
 Alpha  occ. eigenvalues --   -0.67669  -0.67146  -0.66644  -0.64664  -0.63504
 Alpha  occ. eigenvalues --   -0.63301  -0.62070  -0.61945  -0.60454  -0.60068
 Alpha  occ. eigenvalues --   -0.59934  -0.59845  -0.59668  -0.59170  -0.57835
 Alpha  occ. eigenvalues --   -0.57145  -0.57101  -0.57091  -0.56637  -0.54680
 Alpha  occ. eigenvalues --   -0.54450  -0.53832  -0.53662  -0.53618  -0.52830
 Alpha  occ. eigenvalues --   -0.51636  -0.50952  -0.50741  -0.50086  -0.49866
 Alpha  occ. eigenvalues --   -0.49616  -0.49175  -0.49087  -0.48855  -0.48554
 Alpha  occ. eigenvalues --   -0.48441  -0.47936  -0.47719  -0.47595  -0.47329
 Alpha  occ. eigenvalues --   -0.47179  -0.47071  -0.46655  -0.46369  -0.46192
 Alpha  occ. eigenvalues --   -0.46000  -0.45866  -0.45622  -0.45487  -0.45357
 Alpha  occ. eigenvalues --   -0.45096  -0.44530  -0.44381  -0.44311  -0.44243
 Alpha  occ. eigenvalues --   -0.43984  -0.43894  -0.43729  -0.43669  -0.43527
 Alpha  occ. eigenvalues --   -0.43497  -0.43206  -0.43111  -0.42493  -0.42247
 Alpha  occ. eigenvalues --   -0.42060  -0.41851  -0.41803  -0.41690  -0.41677
 Alpha  occ. eigenvalues --   -0.41497  -0.41421  -0.41057  -0.40897  -0.40451
 Alpha  occ. eigenvalues --   -0.40292  -0.40232  -0.39987  -0.39871  -0.39596
 Alpha  occ. eigenvalues --   -0.39418  -0.39318  -0.39287  -0.39152  -0.38955
 Alpha  occ. eigenvalues --   -0.38756  -0.38616  -0.38571  -0.38365  -0.38055
 Alpha  occ. eigenvalues --   -0.37837  -0.37630  -0.37559  -0.37132  -0.36753
 Alpha  occ. eigenvalues --   -0.36724  -0.36586  -0.36515  -0.36184  -0.36063
 Alpha  occ. eigenvalues --   -0.35753  -0.35707  -0.35405  -0.35368  -0.35037
 Alpha  occ. eigenvalues --   -0.34857  -0.34104  -0.33889  -0.33869  -0.33738
 Alpha  occ. eigenvalues --   -0.33538  -0.33049  -0.32814  -0.32808  -0.32353
 Alpha  occ. eigenvalues --   -0.32342  -0.31919  -0.31420  -0.31112  -0.30743
 Alpha  occ. eigenvalues --   -0.30672  -0.30303  -0.29957  -0.29782  -0.29338
 Alpha  occ. eigenvalues --   -0.29169  -0.28557  -0.28479  -0.27361  -0.25811
 Alpha  occ. eigenvalues --   -0.25720  -0.25647  -0.25528  -0.25199  -0.21562
 Alpha  occ. eigenvalues --   -0.19100
 Alpha virt. eigenvalues --   -0.11544  -0.05556  -0.03831  -0.02269  -0.02074
 Alpha virt. eigenvalues --   -0.00207   0.00237   0.00727   0.01290   0.03254
 Alpha virt. eigenvalues --    0.04474   0.04555   0.05069   0.05647   0.05693

 Mulliken charges:
               1
     1  Mg   0.961520
     2  C   -0.052753
     3  C   -0.073019
     4  C   -0.064308
     5  C   -0.094440
     6  N   -0.370670
     7  C   -0.009472
     8  C   -0.115740
     9  C   -0.103357
    10  C    0.085871
    11  C    0.024002
    12  C    0.017818
    13  C    0.001905
    14  C    0.216967
    15  O   -0.247496
    16  O   -0.402045
    17  N   -0.446242
    18  C    0.178892
    19  C   -0.166586
    20  C   -0.105159
    21  C    0.174122
    22  C    0.067582
    23  C    0.040377
    24  O   -0.238465
    25  C   -0.033009
    26  N   -0.410730
    27  C    0.059745
    28  C   -0.098718
    29  C   -0.117131
    30  C    0.102134
    31  C    0.028221
    32  C   -0.032482
    33  C   -0.074802
    34  N   -0.479470
    35  C    0.141594
    36  C   -0.150394
    37  C   -0.091527
    38  C    0.206347
    39  C    0.056914
    40  C    0.143966
    41  O   -0.205539
    42  C   -0.106854
    43  C    0.292936
    44  O   -0.240237
    45  O   -0.406059
    46  C    0.130782
    47  C    0.208290
    48  C   -0.088528
    49  C   -0.220947
    50  C    0.011964
    51  C    0.025840
    52  C   -0.070923
    53  C   -0.044676
    54  C   -0.217894
    55  C    0.010623
    56  C    0.002772
    57  C   -0.040935
    58  C    0.025604
    59  C   -0.266360
    60  C   -0.025169
    61  C    0.031150
    62  C   -0.061621
    63  C    0.021205
    64  C   -0.282374
    65  C   -0.023984
    66  C   -0.011167
    67  H    0.006570
    68  H   -0.003447
    69  H   -0.011669
    70  H    0.060040
    71  H    0.048306
    72  H    0.038539
    73  H    0.034278
    74  H    0.058471
    75  H    0.054965
    76  H    0.052833
    77  H    0.066766
    78  H    0.060112
    79  H    0.045014
    80  H    0.050209
    81  H    0.062868
    82  H    0.069461
    83  H    0.065312
    84  H    0.057119
    85  H    0.048567
    86  H    0.051311
    87  H    0.042845
    88  H    0.039661
    89  H    0.047806
    90  H    0.054422
    91  H    0.040558
    92  H    0.045636
    93  H    0.044225
    94  H    0.044813
    95  H    0.067699
    96  H    0.048817
    97  H    0.058339
    98  H    0.071981
    99  H    0.073476
   100  H    0.065418
   101  H    0.043369
   102  H    0.046341
   103  H    0.067577
   104  H    0.028988
   105  H    0.053113
   106  H    0.044156
   107  H    0.050065
   108  H    0.030621
   109  H    0.024396
   110  H    0.031008
   111  H    0.031035
   112  H    0.032673
   113  H    0.033436
   114  H    0.028580
   115  H    0.030747
   116  H    0.033862
   117  H    0.041097
   118  H    0.032212
   119  H    0.034913
   120  H    0.026685
   121  H    0.034172
   122  H    0.016829
   123  H    0.015754
   124  H    0.038999
   125  H    0.033335
   126  H    0.022056
   127  H    0.042520
   128  H    0.023583
   129  H    0.028574
   130  H    0.025754
   131  H    0.025453
   132  H    0.027597
   133  H    0.038686
   134  H    0.042522
   135  H    0.042873
   136  H    0.032254
   137  H    0.025721
   138  H    0.030480
   139  H    0.036923
   140  H    0.031864
 Sum of Mulliken charges =  -0.00000

 Dipole moment (field-independent basis, Debye):
    X=              2.2297    Y=              3.9336    Z=              2.8498  Tot=              5.3448
 Quadrupole moment (field-independent basis, Debye-Ang):
   XX=           -332.1384   YY=           -428.3544   ZZ=           -414.9788
   XY=             18.7555   XZ=             11.2414   YZ=             36.3216

 Normal termination of Gaussian 16 at Wed May  4 08:32:51 2022.
