 Gaussian 16, Revision A.03,
 Gaussian 16:  ES64L-G16RevA.03 25-Dec-2016

 --------------------------------
 #p wB97XD/Def2SVP td=(nstates=5)
 --------------------------------

 ----------------------------------------------------
 step_151_chromophore_14 TDDFT with wB97XD functional
 ----------------------------------------------------
 Symbolic Z-matrix:
 Charge =  0 Multiplicity = 1

                         Standard orientation:
 ---------------------------------------------------------------------
 Center     Atomic      Atomic             Coordinates (Angstroms)
 Number     Number       Type             X           Y           Z
 ---------------------------------------------------------------------
      1         12           0        5.703706    0.823764   -0.108064
      2          6           0        4.761687   -2.486981    0.486923
      3          6           0        4.108736    0.586518   -3.163129
      4          6           0        5.802917    4.283179   -0.412224
      5          6           0        6.543728    1.085810    3.243302
      6          7           0        4.416758   -0.731457   -1.113538
      7          6           0        4.252971   -2.005701   -0.693815
      8          6           0        3.413599   -2.760039   -1.710111
      9          6           0        3.602940   -1.884056   -2.940125
     10          6           0        4.104270   -0.564067   -2.430367
     11          6           0        4.456920   -2.564299   -4.030963
     12          6           0        1.914536   -2.771024   -1.153797
     13          6           0        1.073666   -3.982804   -1.614242
     14          6           0       -0.372281   -3.730859   -2.195300
     15          8           0       -0.726307   -3.726902   -3.352086
     16          8           0       -1.276910   -3.583316   -1.131365
     17          7           0        5.177675    2.226393   -1.675495
     18          6           0        4.577942    1.863728   -2.805486
     19          6           0        4.473779    3.027542   -3.672924
     20          6           0        4.988313    4.139050   -2.934362
     21          6           0        5.387225    3.578222   -1.575171
     22          6           0        3.944788    2.972509   -5.099447
     23          6           0        5.033486    5.592903   -3.391998
     24          8           0        4.688938    5.956608   -4.508751
     25          6           0        5.339281    6.744935   -2.441215
     26          7           0        6.047734    2.434232    1.216305
     27          6           0        6.162356    3.754831    0.856072
     28          6           0        6.847480    4.556453    2.043031
     29          6           0        7.043422    3.463324    3.157833
     30          6           0        6.507385    2.238326    2.492405
     31          6           0        8.183297    5.152555    1.659915
     32          6           0        6.361586    3.803283    4.577239
     33          6           0        7.190577    3.606450    5.838719
     34          7           0        5.687438   -0.371947    1.556818
     35          6           0        6.176644   -0.175057    2.832123
     36          6           0        6.251857   -1.428995    3.588306
     37          6           0        5.628017   -2.396947    2.655700
     38          6           0        5.374240   -1.678389    1.480890
     39          6           0        6.861388   -1.547857    4.986231
     40          6           0        5.226825   -3.793042    2.517286
     41          8           0        5.179811   -4.736817    3.287253
     42          6           0        4.607691   -3.899433    1.043864
     43          6           0        5.368341   -4.949488    0.317030
     44          8           0        4.869946   -5.883145   -0.273320
     45          8           0        6.753639   -4.704443    0.259336
     46          6           0        7.621737   -5.811064   -0.178510
     47          6           0       -2.705630   -3.251716   -1.445276
     48          6           0       -3.275071   -1.975438   -0.787431
     49          6           0       -4.160783   -1.119129   -1.383118
     50          6           0       -4.121460   -0.829335   -2.878089
     51          6           0       -4.949655   -0.136652   -0.531218
     52          6           0       -6.434806   -0.247653   -0.564295
     53          6           0       -7.118722   -0.043414    0.786833
     54          6           0       -8.710349    0.184380    0.646041
     55          6           0       -9.212169    0.882217    1.889326
     56          6           0       -9.467122   -1.177044    0.317274
     57          6           0      -10.754749   -1.025896   -0.523691
     58          6           0      -12.005468   -1.634309    0.065400
     59          6           0      -12.734297   -0.641498    0.973141
     60          6           0      -12.491408   -1.034400    2.477599
     61          6           0      -14.258445   -0.494673    0.718310
     62          6           0      -14.702180    0.953157    1.124681
     63          6           0      -15.442955    1.770475    0.072648
     64          6           0      -16.610935    2.526492    0.812043
     65          6           0      -18.062930    2.591956    0.146049
     66          6           0      -16.114670    3.878715    1.341482
     67          1           0        3.722278    0.439581   -4.173901
     68          1           0        5.985693    5.354840   -0.512639
     69          1           0        6.978855    1.127995    4.244067
     70          1           0        3.932147   -3.714337   -1.797265
     71          1           0        2.566295   -1.793715   -3.262866
     72          1           0        5.173241   -3.254923   -3.584889
     73          1           0        5.117306   -1.894907   -4.581089
     74          1           0        3.810989   -3.090394   -4.732919
     75          1           0        1.337814   -1.884607   -1.417064
     76          1           0        1.936447   -2.760773   -0.064683
     77          1           0        0.906148   -4.656647   -0.774522
     78          1           0        1.664209   -4.550602   -2.332563
     79          1           0        2.859317    3.034760   -5.180822
     80          1           0        4.185478    2.043199   -5.616289
     81          1           0        4.193227    3.934208   -5.547357
     82          1           0        6.406137    6.754003   -2.216507
     83          1           0        4.701256    6.616889   -1.566531
     84          1           0        5.016655    7.665748   -2.928353
     85          1           0        6.114832    5.257564    2.444552
     86          1           0        8.101016    3.220533    3.264735
     87          1           0        8.249392    5.373942    0.594839
     88          1           0        8.982701    4.452868    1.905330
     89          1           0        8.285022    6.085249    2.214305
     90          1           0        5.456689    3.203121    4.673834
     91          1           0        6.152751    4.872621    4.566746
     92          1           0        8.018454    4.315690    5.816002
     93          1           0        7.501966    2.574976    6.008295
     94          1           0        6.572339    3.851589    6.703495
     95          1           0        6.515198   -2.473489    5.447475
     96          1           0        6.586724   -0.641362    5.525703
     97          1           0        7.950413   -1.588388    5.000938
     98          1           0        3.551912   -4.165710    1.102530
     99          1           0        7.119353   -6.772334   -0.068993
    100          1           0        8.638525   -5.758068    0.210851
    101          1           0        7.711166   -5.582288   -1.239726
    102          1           0       -3.216617   -4.005728   -0.845649
    103          1           0       -3.038144   -3.448315   -2.464281
    104          1           0       -3.398275   -2.013317    0.294904
    105          1           0       -3.804125    0.183643   -3.124381
    106          1           0       -5.127933   -0.967750   -3.272243
    107          1           0       -3.409345   -1.487258   -3.378292
    108          1           0       -4.735493    0.873321   -0.878606
    109          1           0       -4.602399   -0.166577    0.501731
    110          1           0       -6.531277   -1.299239   -0.833279
    111          1           0       -6.844272    0.416221   -1.325999
    112          1           0       -6.550644    0.812266    1.152415
    113          1           0       -6.925566   -0.961928    1.339532
    114          1           0       -8.788313    0.918491   -0.156171
    115          1           0       -9.801178    0.232377    2.536055
    116          1           0       -9.929638    1.552381    1.416307
    117          1           0       -8.451717    1.383230    2.487954
    118          1           0       -9.690586   -1.624890    1.285339
    119          1           0       -8.824010   -1.813266   -0.291509
    120          1           0      -10.460592   -1.527419   -1.445524
    121          1           0      -11.066867   -0.003958   -0.737691
    122          1           0      -11.778110   -2.482035    0.711561
    123          1           0      -12.721947   -1.963231   -0.687515
    124          1           0      -12.185731    0.294163    0.867147
    125          1           0      -11.614399   -1.666102    2.618321
    126          1           0      -13.265413   -1.696148    2.867070
    127          1           0      -12.524587   -0.143202    3.103348
    128          1           0      -14.726467   -1.189656    1.415130
    129          1           0      -14.610027   -0.862320   -0.245566
    130          1           0      -13.865828    1.556632    1.477465
    131          1           0      -15.341694    0.892640    2.004230
    132          1           0      -15.785578    1.043850   -0.664984
    133          1           0      -14.759819    2.520278   -0.325184
    134          1           0      -16.945559    2.005370    1.709738
    135          1           0      -18.845039    2.116108    0.738699
    136          1           0      -17.991328    2.105816   -0.827453
    137          1           0      -18.343800    3.634139   -0.005977
    138          1           0      -16.728990    4.648852    0.873739
    139          1           0      -15.046235    4.028279    1.186490
    140          1           0      -16.314303    3.971315    2.409645
 ---------------------------------------------------------------------

 SCF Done:  E(RwB97XD) =  -3007.86633078     A.U. after   19 cycles

 Excitation energies and oscillator strengths:

 Excited State   1:      Singlet-A      1.6619 eV  746.05 nm  f=0.3952  <S**2>=0.000
     245 -> 248       -0.17187
     246 -> 247        0.68595
     245 <- 248       -0.11242
 This state for optimization and/or second-order correction.
 Total Energy, E(TD-HF/TD-DFT) =  -3007.80525759
 Copying the excited state density for this state as the 1-particle RhoCI density.

 Excited State   2:      Singlet-A      2.2270 eV  556.73 nm  f=0.1050  <S**2>=0.000
     245 -> 247        0.63242
     246 -> 248        0.29611

 Excited State   3:      Singlet-A      3.3617 eV  368.82 nm  f=0.0051  <S**2>=0.000
     243 -> 247        0.57435
     243 -> 249       -0.12287
     244 -> 247       -0.30844
     246 -> 248       -0.12298

 Excited State   4:      Singlet-A      3.4569 eV  358.66 nm  f=0.0099  <S**2>=0.000
     243 -> 247        0.25351
     244 -> 247        0.57978
     246 -> 248       -0.21142

 Excited State   5:      Singlet-A      3.5458 eV  349.66 nm  f=0.1432  <S**2>=0.000
     240 -> 247        0.45376
     240 -> 248       -0.14384
     240 -> 249       -0.21205
     240 -> 251       -0.18611
     241 -> 247        0.12237
     241 -> 249        0.10307
     243 -> 251        0.10885
     245 -> 247        0.13675
     246 -> 248       -0.31265

 The electronic state is 1-A.
 Alpha  occ. eigenvalues --  -46.95988 -19.29270 -19.29091 -19.24963 -19.24780
 Alpha  occ. eigenvalues --  -19.24142 -19.23919 -14.47335 -14.46374 -14.44843
 Alpha  occ. eigenvalues --  -14.43985 -10.43386 -10.43129 -10.39260 -10.39221
 Alpha  occ. eigenvalues --  -10.36310 -10.35986 -10.35934 -10.35250 -10.34879
 Alpha  occ. eigenvalues --  -10.34408 -10.34366 -10.34347 -10.33220 -10.33163
 Alpha  occ. eigenvalues --  -10.33068 -10.32967 -10.32665 -10.32489 -10.32212
 Alpha  occ. eigenvalues --  -10.32103 -10.31830 -10.31814 -10.31783 -10.31678
 Alpha  occ. eigenvalues --  -10.31570 -10.31308 -10.31282 -10.31241 -10.31014
 Alpha  occ. eigenvalues --  -10.30691 -10.30508 -10.30413 -10.30177 -10.30056
 Alpha  occ. eigenvalues --  -10.30049 -10.30018 -10.30006 -10.29990 -10.29622
 Alpha  occ. eigenvalues --  -10.29437 -10.29423 -10.29285 -10.29165 -10.29029
 Alpha  occ. eigenvalues --  -10.28950 -10.28809 -10.28744 -10.28541 -10.28352
 Alpha  occ. eigenvalues --  -10.28301 -10.28275 -10.28193 -10.28028 -10.27864
 Alpha  occ. eigenvalues --  -10.27860  -3.21924  -1.95470  -1.95030  -1.94908
 Alpha  occ. eigenvalues --   -1.17547  -1.16810  -1.12364  -1.12125  -1.09461
 Alpha  occ. eigenvalues --   -1.08962  -1.06863  -1.05962  -1.05790  -1.04787
 Alpha  occ. eigenvalues --   -0.94850  -0.92424  -0.91648  -0.91561  -0.91119
 Alpha  occ. eigenvalues --   -0.90698  -0.90061  -0.90039  -0.88984  -0.88309
 Alpha  occ. eigenvalues --   -0.87851  -0.87198  -0.86506  -0.86184  -0.85705
 Alpha  occ. eigenvalues --   -0.84590  -0.84125  -0.83087  -0.82762  -0.82258
 Alpha  occ. eigenvalues --   -0.81797  -0.80197  -0.79743  -0.79285  -0.78388
 Alpha  occ. eigenvalues --   -0.77521  -0.77343  -0.76988  -0.76619  -0.76141
 Alpha  occ. eigenvalues --   -0.75180  -0.74722  -0.74191  -0.72288  -0.71003
 Alpha  occ. eigenvalues --   -0.70819  -0.69752  -0.69587  -0.67929  -0.67598
 Alpha  occ. eigenvalues --   -0.67551  -0.67280  -0.67075  -0.66807  -0.65514
 Alpha  occ. eigenvalues --   -0.64805  -0.64735  -0.64492  -0.64085  -0.62102
 Alpha  occ. eigenvalues --   -0.61846  -0.61266  -0.61120  -0.61048  -0.60199
 Alpha  occ. eigenvalues --   -0.59086  -0.58421  -0.58173  -0.57482  -0.57294
 Alpha  occ. eigenvalues --   -0.57076  -0.56574  -0.56550  -0.56253  -0.55829
 Alpha  occ. eigenvalues --   -0.55821  -0.55218  -0.55086  -0.54978  -0.54719
 Alpha  occ. eigenvalues --   -0.54536  -0.54483  -0.54289  -0.53765  -0.53631
 Alpha  occ. eigenvalues --   -0.53298  -0.53216  -0.52897  -0.52782  -0.52653
 Alpha  occ. eigenvalues --   -0.52449  -0.51983  -0.51816  -0.51583  -0.51577
 Alpha  occ. eigenvalues --   -0.51298  -0.51214  -0.51004  -0.50975  -0.50859
 Alpha  occ. eigenvalues --   -0.50842  -0.50480  -0.50399  -0.49740  -0.49626
 Alpha  occ. eigenvalues --   -0.49317  -0.49081  -0.49066  -0.48910  -0.48903
 Alpha  occ. eigenvalues --   -0.48676  -0.48651  -0.48275  -0.48038  -0.47644
 Alpha  occ. eigenvalues --   -0.47457  -0.47346  -0.47195  -0.47070  -0.46852
 Alpha  occ. eigenvalues --   -0.46651  -0.46620  -0.46475  -0.46330  -0.45975
 Alpha  occ. eigenvalues --   -0.45931  -0.45759  -0.45697  -0.45434  -0.45189
 Alpha  occ. eigenvalues --   -0.45032  -0.44776  -0.44665  -0.44491  -0.43886
 Alpha  occ. eigenvalues --   -0.43817  -0.43679  -0.43582  -0.43144  -0.43110
 Alpha  occ. eigenvalues --   -0.42844  -0.42716  -0.42427  -0.42337  -0.42097
 Alpha  occ. eigenvalues --   -0.41842  -0.41017  -0.40924  -0.40854  -0.40777
 Alpha  occ. eigenvalues --   -0.40633  -0.40119  -0.39877  -0.39866  -0.39396
 Alpha  occ. eigenvalues --   -0.39298  -0.38800  -0.38415  -0.38125  -0.37800
 Alpha  occ. eigenvalues --   -0.37670  -0.37250  -0.36868  -0.36703  -0.36273
 Alpha  occ. eigenvalues --   -0.35903  -0.35593  -0.35370  -0.33954  -0.32926
 Alpha  occ. eigenvalues --   -0.32633  -0.32304  -0.32240  -0.31862  -0.26590
 Alpha  occ. eigenvalues --   -0.23261
 Alpha virt. eigenvalues --   -0.07437  -0.00116   0.02440   0.03818   0.04259
 Alpha virt. eigenvalues --    0.06470   0.07116   0.07559   0.08100   0.09816
 Alpha virt. eigenvalues --    0.11020   0.11406   0.11747   0.12326   0.12335

 Mulliken charges:
               1
     1  Mg   0.955777
     2  C   -0.056224
     3  C   -0.099333
     4  C   -0.076276
     5  C   -0.103012
     6  N   -0.336261
     7  C   -0.046376
     8  C   -0.084434
     9  C   -0.075182
    10  C    0.073886
    11  C    0.032252
    12  C    0.026578
    13  C    0.017067
    14  C    0.208038
    15  O   -0.245657
    16  O   -0.402396
    17  N   -0.410209
    18  C    0.175213
    19  C   -0.159766
    20  C   -0.097442
    21  C    0.168344
    22  C    0.079886
    23  C    0.035018
    24  O   -0.232977
    25  C   -0.017059
    26  N   -0.376810
    27  C    0.044719
    28  C   -0.070624
    29  C   -0.093530
    30  C    0.087149
    31  C    0.038840
    32  C   -0.014998
    33  C   -0.058274
    34  N   -0.441547
    35  C    0.134558
    36  C   -0.156320
    37  C   -0.089465
    38  C    0.189192
    39  C    0.069450
    40  C    0.126819
    41  O   -0.197777
    42  C   -0.064294
    43  C    0.269582
    44  O   -0.234808
    45  O   -0.406331
    46  C    0.145784
    47  C    0.222274
    48  C   -0.094002
    49  C   -0.209232
    50  C    0.024855
    51  C    0.040586
    52  C   -0.052133
    53  C   -0.026570
    54  C   -0.187565
    55  C    0.023717
    56  C    0.018424
    57  C   -0.021308
    58  C    0.040352
    59  C   -0.229373
    60  C   -0.012991
    61  C    0.045883
    62  C   -0.045663
    63  C    0.037973
    64  C   -0.253130
    65  C   -0.009425
    66  C   -0.000113
    67  H    0.001200
    68  H   -0.013737
    69  H   -0.027142
    70  H    0.043355
    71  H    0.037283
    72  H    0.032919
    73  H    0.028274
    74  H    0.054264
    75  H    0.047525
    76  H    0.044225
    77  H    0.061768
    78  H    0.054432
    79  H    0.041648
    80  H    0.046155
    81  H    0.058776
    82  H    0.064946
    83  H    0.059274
    84  H    0.056389
    85  H    0.039146
    86  H    0.037354
    87  H    0.035335
    88  H    0.034401
    89  H    0.042913
    90  H    0.046094
    91  H    0.031126
    92  H    0.038862
    93  H    0.037973
    94  H    0.039128
    95  H    0.063616
    96  H    0.041771
    97  H    0.052827
    98  H    0.064971
    99  H    0.069719
   100  H    0.062207
   101  H    0.038476
   102  H    0.041132
   103  H    0.063475
   104  H    0.025379
   105  H    0.048083
   106  H    0.038058
   107  H    0.043911
   108  H    0.022616
   109  H    0.016055
   110  H    0.016857
   111  H    0.023194
   112  H    0.022753
   113  H    0.024619
   114  H    0.015808
   115  H    0.020078
   116  H    0.027361
   117  H    0.037151
   118  H    0.018620
   119  H    0.026237
   120  H    0.020532
   121  H    0.024038
   122  H    0.006057
   123  H    0.008452
   124  H    0.014968
   125  H    0.024929
   126  H    0.015754
   127  H    0.037335
   128  H    0.013441
   129  H    0.021218
   130  H    0.016259
   131  H    0.015493
   132  H    0.018203
   133  H    0.030046
   134  H    0.028696
   135  H    0.037842
   136  H    0.025541
   137  H    0.018581
   138  H    0.023248
   139  H    0.030563
   140  H    0.026615
 Sum of Mulliken charges =  -0.00000

 Dipole moment (field-independent basis, Debye):
    X=              2.2703    Y=              4.2985    Z=              2.4060  Tot=              5.4240
 Quadrupole moment (field-independent basis, Debye-Ang):
   XX=           -331.8975   YY=           -426.7964   ZZ=           -414.9668
   XY=             20.2070   XZ=              8.6339   YZ=             35.1761

 Normal termination of Gaussian 16 at Wed May  4 09:01:49 2022.
