 Gaussian 16, Revision A.03,
 Gaussian 16:  ES64L-G16RevA.03 25-Dec-2016

 --------------------
 #p ZINDO=(nstates=5)
 --------------------

 -----------------------------
 step_151_chromophore_14 ZINDO
 -----------------------------
 Symbolic Z-matrix:
 Charge =  0 Multiplicity = 1

                         Standard orientation:
 ---------------------------------------------------------------------
 Center     Atomic      Atomic             Coordinates (Angstroms)
 Number     Number       Type             X           Y           Z
 ---------------------------------------------------------------------
      1         12           0        5.703706    0.823764   -0.108064
      2          6           0        4.761687   -2.486981    0.486923
      3          6           0        4.108736    0.586518   -3.163129
      4          6           0        5.802917    4.283179   -0.412224
      5          6           0        6.543728    1.085810    3.243302
      6          7           0        4.416758   -0.731457   -1.113538
      7          6           0        4.252971   -2.005701   -0.693815
      8          6           0        3.413599   -2.760039   -1.710111
      9          6           0        3.602940   -1.884056   -2.940125
     10          6           0        4.104270   -0.564067   -2.430367
     11          6           0        4.456920   -2.564299   -4.030963
     12          6           0        1.914536   -2.771024   -1.153797
     13          6           0        1.073666   -3.982804   -1.614242
     14          6           0       -0.372281   -3.730859   -2.195300
     15          8           0       -0.726307   -3.726902   -3.352086
     16          8           0       -1.276910   -3.583316   -1.131365
     17          7           0        5.177675    2.226393   -1.675495
     18          6           0        4.577942    1.863728   -2.805486
     19          6           0        4.473779    3.027542   -3.672924
     20          6           0        4.988313    4.139050   -2.934362
     21          6           0        5.387225    3.578222   -1.575171
     22          6           0        3.944788    2.972509   -5.099447
     23          6           0        5.033486    5.592903   -3.391998
     24          8           0        4.688938    5.956608   -4.508751
     25          6           0        5.339281    6.744935   -2.441215
     26          7           0        6.047734    2.434232    1.216305
     27          6           0        6.162356    3.754831    0.856072
     28          6           0        6.847480    4.556453    2.043031
     29          6           0        7.043422    3.463324    3.157833
     30          6           0        6.507385    2.238326    2.492405
     31          6           0        8.183297    5.152555    1.659915
     32          6           0        6.361586    3.803283    4.577239
     33          6           0        7.190577    3.606450    5.838719
     34          7           0        5.687438   -0.371947    1.556818
     35          6           0        6.176644   -0.175057    2.832123
     36          6           0        6.251857   -1.428995    3.588306
     37          6           0        5.628017   -2.396947    2.655700
     38          6           0        5.374240   -1.678389    1.480890
     39          6           0        6.861388   -1.547857    4.986231
     40          6           0        5.226825   -3.793042    2.517286
     41          8           0        5.179811   -4.736817    3.287253
     42          6           0        4.607691   -3.899433    1.043864
     43          6           0        5.368341   -4.949488    0.317030
     44          8           0        4.869946   -5.883145   -0.273320
     45          8           0        6.753639   -4.704443    0.259336
     46          6           0        7.621737   -5.811064   -0.178510
     47          6           0       -2.705630   -3.251716   -1.445276
     48          6           0       -3.275071   -1.975438   -0.787431
     49          6           0       -4.160783   -1.119129   -1.383118
     50          6           0       -4.121460   -0.829335   -2.878089
     51          6           0       -4.949655   -0.136652   -0.531218
     52          6           0       -6.434806   -0.247653   -0.564295
     53          6           0       -7.118722   -0.043414    0.786833
     54          6           0       -8.710349    0.184380    0.646041
     55          6           0       -9.212169    0.882217    1.889326
     56          6           0       -9.467122   -1.177044    0.317274
     57          6           0      -10.754749   -1.025896   -0.523691
     58          6           0      -12.005468   -1.634309    0.065400
     59          6           0      -12.734297   -0.641498    0.973141
     60          6           0      -12.491408   -1.034400    2.477599
     61          6           0      -14.258445   -0.494673    0.718310
     62          6           0      -14.702180    0.953157    1.124681
     63          6           0      -15.442955    1.770475    0.072648
     64          6           0      -16.610935    2.526492    0.812043
     65          6           0      -18.062930    2.591956    0.146049
     66          6           0      -16.114670    3.878715    1.341482
     67          1           0        3.722278    0.439581   -4.173901
     68          1           0        5.985693    5.354840   -0.512639
     69          1           0        6.978855    1.127995    4.244067
     70          1           0        3.932147   -3.714337   -1.797265
     71          1           0        2.566295   -1.793715   -3.262866
     72          1           0        5.173241   -3.254923   -3.584889
     73          1           0        5.117306   -1.894907   -4.581089
     74          1           0        3.810989   -3.090394   -4.732919
     75          1           0        1.337814   -1.884607   -1.417064
     76          1           0        1.936447   -2.760773   -0.064683
     77          1           0        0.906148   -4.656647   -0.774522
     78          1           0        1.664209   -4.550602   -2.332563
     79          1           0        2.859317    3.034760   -5.180822
     80          1           0        4.185478    2.043199   -5.616289
     81          1           0        4.193227    3.934208   -5.547357
     82          1           0        6.406137    6.754003   -2.216507
     83          1           0        4.701256    6.616889   -1.566531
     84          1           0        5.016655    7.665748   -2.928353
     85          1           0        6.114832    5.257564    2.444552
     86          1           0        8.101016    3.220533    3.264735
     87          1           0        8.249392    5.373942    0.594839
     88          1           0        8.982701    4.452868    1.905330
     89          1           0        8.285022    6.085249    2.214305
     90          1           0        5.456689    3.203121    4.673834
     91          1           0        6.152751    4.872621    4.566746
     92          1           0        8.018454    4.315690    5.816002
     93          1           0        7.501966    2.574976    6.008295
     94          1           0        6.572339    3.851589    6.703495
     95          1           0        6.515198   -2.473489    5.447475
     96          1           0        6.586724   -0.641362    5.525703
     97          1           0        7.950413   -1.588388    5.000938
     98          1           0        3.551912   -4.165710    1.102530
     99          1           0        7.119353   -6.772334   -0.068993
    100          1           0        8.638525   -5.758068    0.210851
    101          1           0        7.711166   -5.582288   -1.239726
    102          1           0       -3.216617   -4.005728   -0.845649
    103          1           0       -3.038144   -3.448315   -2.464281
    104          1           0       -3.398275   -2.013317    0.294904
    105          1           0       -3.804125    0.183643   -3.124381
    106          1           0       -5.127933   -0.967750   -3.272243
    107          1           0       -3.409345   -1.487258   -3.378292
    108          1           0       -4.735493    0.873321   -0.878606
    109          1           0       -4.602399   -0.166577    0.501731
    110          1           0       -6.531277   -1.299239   -0.833279
    111          1           0       -6.844272    0.416221   -1.325999
    112          1           0       -6.550644    0.812266    1.152415
    113          1           0       -6.925566   -0.961928    1.339532
    114          1           0       -8.788313    0.918491   -0.156171
    115          1           0       -9.801178    0.232377    2.536055
    116          1           0       -9.929638    1.552381    1.416307
    117          1           0       -8.451717    1.383230    2.487954
    118          1           0       -9.690586   -1.624890    1.285339
    119          1           0       -8.824010   -1.813266   -0.291509
    120          1           0      -10.460592   -1.527419   -1.445524
    121          1           0      -11.066867   -0.003958   -0.737691
    122          1           0      -11.778110   -2.482035    0.711561
    123          1           0      -12.721947   -1.963231   -0.687515
    124          1           0      -12.185731    0.294163    0.867147
    125          1           0      -11.614399   -1.666102    2.618321
    126          1           0      -13.265413   -1.696148    2.867070
    127          1           0      -12.524587   -0.143202    3.103348
    128          1           0      -14.726467   -1.189656    1.415130
    129          1           0      -14.610027   -0.862320   -0.245566
    130          1           0      -13.865828    1.556632    1.477465
    131          1           0      -15.341694    0.892640    2.004230
    132          1           0      -15.785578    1.043850   -0.664984
    133          1           0      -14.759819    2.520278   -0.325184
    134          1           0      -16.945559    2.005370    1.709738
    135          1           0      -18.845039    2.116108    0.738699
    136          1           0      -17.991328    2.105816   -0.827453
    137          1           0      -18.343800    3.634139   -0.005977
    138          1           0      -16.728990    4.648852    0.873739
    139          1           0      -15.046235    4.028279    1.186490
    140          1           0      -16.314303    3.971315    2.409645
 ---------------------------------------------------------------------

 SCF Done:  E(RZINDO/S) =  -474.186794697     A.U. after   19 cycles

 Excitation energies and oscillator strengths:

 Excited State   1:      Singlet-A      1.2722 eV  974.59 nm  f=0.6228  <S**2>=0.000
     175 ->178         0.16725
     176 ->177         0.66755
 This state for optimization and/or second-order correction.
 Total Energy, E(CIS/TDA) =  -474.140043466
 Copying the excited state density for this state as the 1-particle RhoCI density.

 Excited State   2:      Singlet-A      1.9582 eV  633.16 nm  f=0.0376  <S**2>=0.000
     175 ->177         0.53879
     176 ->178        -0.42232

 Excited State   3:      Singlet-A      2.8617 eV  433.26 nm  f=0.0001  <S**2>=0.000
     168 ->177         0.28625
     168 ->178        -0.22375
     168 ->179        -0.34528
     168 ->181        -0.31948
     168 ->186        -0.23506
     171 ->177        -0.11969

 Excited State   4:      Singlet-A      2.8866 eV  429.51 nm  f=0.0014  <S**2>=0.000
     176 ->180         0.69861

 Excited State   5:      Singlet-A      2.9951 eV  413.95 nm  f=0.9810  <S**2>=0.000
     171 ->177         0.14399
     175 ->177         0.37265
     176 ->178         0.52148
     176 ->179         0.16357

 The electronic state is 1-A.
 Alpha  occ. eigenvalues --   -1.85244  -1.81807  -1.80438  -1.72425  -1.70502
 Alpha  occ. eigenvalues --   -1.68290  -1.66159  -1.60746  -1.60042  -1.57361
 Alpha  occ. eigenvalues --   -1.56305  -1.49975  -1.47857  -1.47062  -1.46301
 Alpha  occ. eigenvalues --   -1.45492  -1.43958  -1.40146  -1.39196  -1.39008
 Alpha  occ. eigenvalues --   -1.36306  -1.33701  -1.32752  -1.32111  -1.29664
 Alpha  occ. eigenvalues --   -1.27937  -1.27267  -1.22495  -1.20361  -1.19040
 Alpha  occ. eigenvalues --   -1.16509  -1.15388  -1.14526  -1.13920  -1.12944
 Alpha  occ. eigenvalues --   -1.12267  -1.10655  -1.10099  -1.05491  -1.04697
 Alpha  occ. eigenvalues --   -1.02400  -1.01806  -0.98988  -0.98167  -0.96720
 Alpha  occ. eigenvalues --   -0.96269  -0.95198  -0.93285  -0.93132  -0.91243
 Alpha  occ. eigenvalues --   -0.90914  -0.90042  -0.89509  -0.88966  -0.87583
 Alpha  occ. eigenvalues --   -0.85686  -0.83944  -0.83342  -0.82085  -0.80955
 Alpha  occ. eigenvalues --   -0.79636  -0.79515  -0.78462  -0.77404  -0.76494
 Alpha  occ. eigenvalues --   -0.76227  -0.75017  -0.74079  -0.73620  -0.72739
 Alpha  occ. eigenvalues --   -0.72543  -0.72293  -0.71777  -0.71525  -0.70935
 Alpha  occ. eigenvalues --   -0.70248  -0.68952  -0.68449  -0.68373  -0.67701
 Alpha  occ. eigenvalues --   -0.67481  -0.67169  -0.66507  -0.65849  -0.65570
 Alpha  occ. eigenvalues --   -0.64937  -0.64676  -0.64203  -0.63929  -0.63349
 Alpha  occ. eigenvalues --   -0.63096  -0.62907  -0.62437  -0.61779  -0.61429
 Alpha  occ. eigenvalues --   -0.61382  -0.61076  -0.60898  -0.60495  -0.60359
 Alpha  occ. eigenvalues --   -0.59940  -0.59764  -0.58844  -0.58666  -0.57916
 Alpha  occ. eigenvalues --   -0.57536  -0.57105  -0.56838  -0.56657  -0.56544
 Alpha  occ. eigenvalues --   -0.56224  -0.56141  -0.55770  -0.55374  -0.55008
 Alpha  occ. eigenvalues --   -0.54916  -0.54517  -0.54099  -0.53485  -0.52940
 Alpha  occ. eigenvalues --   -0.52931  -0.52571  -0.52516  -0.51996  -0.51527
 Alpha  occ. eigenvalues --   -0.51505  -0.51206  -0.51023  -0.50625  -0.50504
 Alpha  occ. eigenvalues --   -0.50446  -0.50228  -0.49807  -0.49536  -0.49068
 Alpha  occ. eigenvalues --   -0.48773  -0.48612  -0.48246  -0.47943  -0.47748
 Alpha  occ. eigenvalues --   -0.47510  -0.47370  -0.47012  -0.46952  -0.46517
 Alpha  occ. eigenvalues --   -0.46425  -0.46010  -0.45846  -0.45667  -0.45563
 Alpha  occ. eigenvalues --   -0.45235  -0.45047  -0.44567  -0.44434  -0.44233
 Alpha  occ. eigenvalues --   -0.43728  -0.43198  -0.42822  -0.42187  -0.41824
 Alpha  occ. eigenvalues --   -0.41500  -0.41399  -0.40751  -0.39863  -0.38949
 Alpha  occ. eigenvalues --   -0.38483  -0.37160  -0.35723  -0.35483  -0.34623
 Alpha  occ. eigenvalues --   -0.33792  -0.33319  -0.32560  -0.32040  -0.27311
 Alpha  occ. eigenvalues --   -0.22136
 Alpha virt. eigenvalues --   -0.08927  -0.02504  -0.00582   0.00049   0.01128
 Alpha virt. eigenvalues --    0.02253   0.02651   0.02793   0.03844   0.04300
 Alpha virt. eigenvalues --    0.05882   0.06422   0.07474   0.07638   0.08007

 Mulliken charges:
               1
     1  Mg   0.432313
     2  C   -0.055067
     3  C   -0.083203
     4  C   -0.081744
     5  C   -0.054807
     6  N   -0.303865
     7  C    0.123951
     8  C   -0.001903
     9  C    0.010866
    10  C    0.163927
    11  C   -0.048145
    12  C   -0.014480
    13  C    0.004287
    14  C    0.462935
    15  O   -0.501285
    16  O   -0.283317
    17  N   -0.312532
    18  C    0.149591
    19  C    0.042714
    20  C   -0.051486
    21  C    0.126856
    22  C   -0.046614
    23  C    0.323127
    24  O   -0.517279
    25  C   -0.027577
    26  N   -0.264994
    27  C    0.135531
    28  C    0.005279
    29  C   -0.013734
    30  C    0.102918
    31  C   -0.044535
    32  C   -0.030199
    33  C   -0.053957
    34  N   -0.325889
    35  C    0.074503
    36  C   -0.001116
    37  C   -0.073518
    38  C    0.123813
    39  C   -0.033858
    40  C    0.328993
    41  O   -0.520062
    42  C    0.053870
    43  C    0.490238
    44  O   -0.519119
    45  O   -0.287543
    46  C    0.074401
    47  C    0.100144
    48  C   -0.098866
    49  C    0.007729
    50  C   -0.041771
    51  C   -0.017805
    52  C   -0.033768
    53  C   -0.046791
    54  C   -0.017528
    55  C   -0.060518
    56  C   -0.031399
    57  C   -0.033786
    58  C   -0.033194
    59  C   -0.016792
    60  C   -0.065044
    61  C   -0.035299
    62  C   -0.040050
    63  C   -0.027747
    64  C   -0.026329
    65  C   -0.063394
    66  C   -0.057170
    67  H    0.028750
    68  H    0.031891
    69  H    0.026388
    70  H    0.045920
    71  H    0.030201
    72  H    0.023214
    73  H    0.018461
    74  H    0.026748
    75  H    0.032041
    76  H    0.026027
    77  H    0.038912
    78  H    0.038120
    79  H    0.031483
    80  H    0.036173
    81  H    0.047922
    82  H    0.041488
    83  H    0.033464
    84  H    0.038736
    85  H    0.035233
    86  H    0.034265
    87  H    0.019345
    88  H    0.027805
    89  H    0.019603
    90  H    0.028277
    91  H    0.017170
    92  H    0.019990
    93  H    0.023700
    94  H    0.014812
    95  H    0.034690
    96  H    0.026912
    97  H    0.032246
    98  H    0.058016
    99  H    0.058140
   100  H    0.043501
   101  H    0.027238
   102  H    0.027914
   103  H    0.063980
   104  H    0.025944
   105  H    0.029063
   106  H    0.026556
   107  H    0.026654
   108  H    0.013298
   109  H    0.019000
   110  H    0.014348
   111  H    0.022565
   112  H    0.025113
   113  H    0.023616
   114  H    0.020162
   115  H    0.018982
   116  H    0.014742
   117  H    0.026463
   118  H    0.027024
   119  H    0.021472
   120  H    0.011233
   121  H    0.024579
   122  H    0.017697
   123  H    0.014933
   124  H    0.022068
   125  H    0.020791
   126  H    0.011894
   127  H    0.018017
   128  H    0.014006
   129  H    0.027221
   130  H    0.016957
   131  H    0.017371
   132  H    0.023709
   133  H    0.026720
   134  H    0.016284
   135  H    0.024027
   136  H    0.015971
   137  H    0.018666
   138  H    0.018765
   139  H    0.022624
   140  H    0.013786
 Sum of Mulliken charges =  -0.00000

 Dipole moment (field-independent basis, Debye):
    X=              2.7611    Y=              6.8180    Z=              1.7989  Tot=              7.5726
 N-N= 4.210810054130D+03 E-N= 0.000000000000D+00  KE=-9.095503128305D+03
 Leave Link  601 at Wed May  4 09:14:49 2022, MaxMem=  6710886400 cpu:               0.8 elap:               0.0
 (Enter /sw/apps/gaussian-16.0/g16/l9999.exe)
 1\1\GINC-BP1-COMPUTE035\SP\RZINDO CIS\STO-3G\C55H74Mg1N4O6\OF15641\04-
 May-2022\0\\#p ZINDO=(nstates=5)\\step_151_chromophore_14 ZINDO\\0,1\M
 g,0,46.592,45.328,43.915\C,0,43.207,44.945,43.142\C,0,47.079,42.105,42
 .771\C,0,50.017,45.9,43.805\C,0,46.027,48.728,44.271\N,0,45.297,43.791
 ,42.892\C,0,43.953,43.856,42.765\C,0,43.451,42.572,42.128\C,0,44.616,4
 1.637,42.419\C,0,45.781,42.524,42.75\C,0,44.265,40.553,43.46\C,0,43.24
 6,42.878,40.572\C,0,42.161,42.014,39.891\C,0,42.5,41.303,38.523\O,0,42

 Normal termination of Gaussian 16 at Wed May  4 09:14:49 2022.
