 Gaussian 16, Revision A.03,
 Gaussian 16:  ES64L-G16RevA.03 25-Dec-2016

 ------------------------------
 #p blyp/Def2SVP td=(nstates=5)
 ------------------------------

 ---------------------------------------------------
 step_1501_chromophore_10 TDDFT with blyp functional
 ---------------------------------------------------
 Symbolic Z-matrix:
 Charge =  0 Multiplicity = 1

                         Standard orientation:
 ---------------------------------------------------------------------
 Center     Atomic      Atomic             Coordinates (Angstroms)
 Number     Number       Type             X           Y           Z
 ---------------------------------------------------------------------
      1         12           0        5.778939    0.706498    0.227962
      2          6           0        3.881676   -2.443676    0.178786
      3          6           0        3.211817    2.162952   -1.379739
      4          6           0        7.802188    3.314900   -0.271238
      5          6           0        8.571331   -1.312794    1.235770
      6          7           0        3.880502   -0.132229   -0.575883
      7          6           0        3.217478   -1.298141   -0.355181
      8          6           0        1.749126   -1.185909   -0.684236
      9          6           0        1.635634    0.247395   -1.306716
     10          6           0        3.025204    0.820709   -1.127318
     11          6           0        1.036424    0.435890   -2.665769
     12          6           0        0.861102   -1.445678    0.565707
     13          6           0       -0.573470   -0.828378    0.435697
     14          6           0       -1.634649   -1.678737    1.102859
     15          8           0       -1.451029   -2.525328    1.939117
     16          8           0       -2.883031   -1.357810    0.489654
     17          7           0        5.439378    2.577712   -0.471436
     18          6           0        4.316978    2.991131   -1.149036
     19          6           0        4.455110    4.360569   -1.461732
     20          6           0        5.770829    4.776866   -1.070979
     21          6           0        6.404374    3.565446   -0.584305
     22          6           0        3.297910    5.149662   -2.013253
     23          6           0        6.476216    6.023473   -1.173991
     24          8           0        7.652459    6.156231   -0.879825
     25          6           0        5.760225    7.209022   -1.575481
     26          7           0        7.915429    0.906028    0.350847
     27          6           0        8.540122    2.116425    0.156028
     28          6           0       10.012063    2.124647    0.624721
     29          6           0       10.038901    0.774934    1.454838
     30          6           0        8.778620    0.045823    1.041696
     31          6           0       11.037565    2.220647   -0.582495
     32          6           0       10.067647    0.869276    3.011674
     33          6           0        8.956344    1.588097    3.692838
     34          7           0        6.173856   -1.423285    0.545253
     35          6           0        7.405880   -1.965933    0.984064
     36          6           0        7.117813   -3.402165    1.190290
     37          6           0        5.757506   -3.631332    0.838269
     38          6           0        5.239121   -2.386009    0.564866
     39          6           0        8.147263   -4.446522    1.546069
     40          6           0        4.619311   -4.627752    0.813810
     41          8           0        4.577412   -5.779525    1.209257
     42          6           0        3.391259   -3.856249    0.398012
     43          6           0        2.747819   -4.370621   -0.782506
     44          8           0        3.286105   -4.477652   -1.845957
     45          8           0        1.444575   -4.555511   -0.462494
     46          6           0        0.518994   -4.641250   -1.587732
     47          6           0       -3.749403   -2.507031    0.580773
     48          6           0       -4.645906   -2.513398   -0.575775
     49          6           0       -5.730179   -3.288798   -0.873561
     50          6           0       -6.047887   -4.611278   -0.142779
     51          6           0       -6.534532   -2.975081   -2.128012
     52          6           0       -7.996789   -2.514514   -1.789502
     53          6           0       -8.155825   -0.949905   -1.465719
     54          6           0       -9.206068   -0.209098   -2.292504
     55          6           0       -8.980078   -0.135076   -3.824176
     56          6           0       -9.417336    1.208440   -1.653503
     57          6           0      -10.385854    1.084879   -0.493606
     58          6           0      -11.771619    1.689082   -0.720462
     59          6           0      -12.915781    0.836569   -0.091434
     60          6           0      -13.250674   -0.451105   -0.971813
     61          6           0      -14.261184    1.636454    0.043398
     62          6           0      -14.673776    1.896910    1.574035
     63          6           0      -13.876999    3.095319    2.126232
     64          6           0      -13.059586    2.792175    3.447881
     65          6           0      -13.914178    3.070834    4.744898
     66          6           0      -11.745851    3.554290    3.493573
     67          1           0        2.413596    2.629481   -1.961746
     68          1           0        8.395856    4.224730   -0.380724
     69          1           0        9.363034   -1.937765    1.653434
     70          1           0        1.404319   -1.969548   -1.358880
     71          1           0        0.977978    0.887025   -0.717195
     72          1           0        0.852299   -0.555350   -3.080265
     73          1           0        1.786372    0.984370   -3.234691
     74          1           0        0.148022    1.063514   -2.732089
     75          1           0        1.391706   -0.842768    1.301564
     76          1           0        0.898829   -2.504712    0.819298
     77          1           0       -0.904065   -0.498820   -0.549280
     78          1           0       -0.446511    0.069678    1.040910
     79          1           0        3.153059    6.137282   -1.576796
     80          1           0        2.326785    4.660247   -2.086488
     81          1           0        3.524038    5.234545   -3.076293
     82          1           0        5.382168    7.056675   -2.586407
     83          1           0        6.361477    8.094161   -1.782291
     84          1           0        4.928306    7.327028   -0.882680
     85          1           0       10.247875    2.952512    1.293871
     86          1           0       10.860183    0.118816    1.165225
     87          1           0       11.465283    1.230013   -0.741600
     88          1           0       11.842575    2.955549   -0.585440
     89          1           0       10.444464    2.387239   -1.482018
     90          1           0       11.004700    1.339351    3.308864
     91          1           0       10.213504   -0.102124    3.484425
     92          1           0        8.592128    0.913658    4.467749
     93          1           0        8.151584    1.728958    2.970766
     94          1           0        9.239661    2.563045    4.088239
     95          1           0        8.555078   -5.065539    0.747391
     96          1           0        7.437437   -5.166685    1.954425
     97          1           0        8.984427   -4.213941    2.204408
     98          1           0        2.741287   -4.015490    1.258319
     99          1           0        0.137002   -5.655834   -1.699499
    100          1           0        0.916083   -4.239646   -2.519811
    101          1           0       -0.237000   -3.864898   -1.474968
    102          1           0       -4.217824   -2.461110    1.563296
    103          1           0       -3.318227   -3.508471    0.570081
    104          1           0       -4.591781   -1.570958   -1.120248
    105          1           0       -5.185990   -4.960560    0.426128
    106          1           0       -6.450503   -5.356719   -0.829594
    107          1           0       -6.829343   -4.424784    0.593472
    108          1           0       -6.706940   -3.958035   -2.565747
    109          1           0       -6.077863   -2.237186   -2.787211
    110          1           0       -8.284945   -3.018923   -0.867210
    111          1           0       -8.574387   -2.881419   -2.638451
    112          1           0       -7.183579   -0.492164   -1.646251
    113          1           0       -8.437118   -0.901310   -0.413972
    114          1           0      -10.105818   -0.821960   -2.240154
    115          1           0       -9.239726    0.792703   -4.335643
    116          1           0       -9.655564   -0.883942   -4.239752
    117          1           0       -7.986334   -0.498121   -4.085041
    118          1           0       -9.587448    2.042016   -2.334487
    119          1           0       -8.519343    1.347282   -1.051359
    120          1           0       -9.926709    1.527112    0.390337
    121          1           0      -10.596831    0.078229   -0.132956
    122          1           0      -12.008127    1.718130   -1.784122
    123          1           0      -11.784233    2.733529   -0.407965
    124          1           0      -12.615787    0.537312    0.912715
    125          1           0      -13.635939   -1.128355   -0.208947
    126          1           0      -12.336088   -0.958266   -1.280898
    127          1           0      -14.014266   -0.317054   -1.738167
    128          1           0      -15.082950    1.063311   -0.385044
    129          1           0      -14.067557    2.558524   -0.504311
    130          1           0      -14.640035    0.942732    2.099542
    131          1           0      -15.754600    2.037433    1.596979
    132          1           0      -14.609311    3.874313    2.339962
    133          1           0      -13.313917    3.484137    1.279010
    134          1           0      -12.878958    1.721174    3.355083
    135          1           0      -13.262580    3.538015    5.482480
    136          1           0      -14.114313    2.044156    5.051591
    137          1           0      -14.797132    3.670552    4.523306
    138          1           0      -11.951308    4.619630    3.590896
    139          1           0      -11.136270    3.371966    2.608205
    140          1           0      -11.230604    3.175203    4.376317
 ---------------------------------------------------------------------

 SCF Done:  E(RB-LYP) =  -3007.34614896     A.U. after   21 cycles

 Excitation energies and oscillator strengths:

 Excited State   1:      Singlet-A      1.7697 eV  700.61 nm  f=0.1037  <S**2>=0.000
     244 -> 247        0.56098
     245 -> 248       -0.11865
     246 -> 247        0.41764
 This state for optimization and/or second-order correction.
 Total Energy, E(TD-HF/TD-DFT) =  -3007.28111474
 Copying the excited state density for this state as the 1-particle RhoCI density.

 Excited State   2:      Singlet-A      1.8052 eV  686.83 nm  f=0.1856  <S**2>=0.000
     244 -> 247       -0.42724
     245 -> 248       -0.17081
     246 -> 247        0.54336
     246 <- 247       -0.11675

 Excited State   3:      Singlet-A      1.9533 eV  634.76 nm  f=0.0575  <S**2>=0.000
     243 -> 247        0.21545
     245 -> 247        0.61876
     246 -> 248        0.23021

 Excited State   4:      Singlet-A      2.0825 eV  595.36 nm  f=0.0059  <S**2>=0.000
     243 -> 247        0.66961
     245 -> 247       -0.18363
     246 -> 248       -0.11726

 Excited State   5:      Singlet-A      2.2237 eV  557.56 nm  f=0.0000  <S**2>=0.000
     242 -> 247        0.70696

 The electronic state is 1-A.
 Alpha  occ. eigenvalues --  -46.27359 -18.83132 -18.82122 -18.78737 -18.77028
 Alpha  occ. eigenvalues --  -18.76046 -18.74523 -14.03452 -14.03359 -14.01032
 Alpha  occ. eigenvalues --  -14.00279 -10.05018 -10.03855  -9.99904  -9.98492
 Alpha  occ. eigenvalues --   -9.98374  -9.97511  -9.97233  -9.96918  -9.96406
 Alpha  occ. eigenvalues --   -9.96311  -9.96049  -9.95221  -9.95132  -9.94691
 Alpha  occ. eigenvalues --   -9.94400  -9.94217  -9.94056  -9.94001  -9.93885
 Alpha  occ. eigenvalues --   -9.93826  -9.93817  -9.93602  -9.93454  -9.93348
 Alpha  occ. eigenvalues --   -9.93259  -9.93214  -9.92933  -9.92802  -9.92741
 Alpha  occ. eigenvalues --   -9.92667  -9.92524  -9.92518  -9.92386  -9.92284
 Alpha  occ. eigenvalues --   -9.92249  -9.92104  -9.91974  -9.91946  -9.91934
 Alpha  occ. eigenvalues --   -9.91820  -9.91725  -9.91561  -9.91420  -9.91271
 Alpha  occ. eigenvalues --   -9.91177  -9.91118  -9.91026  -9.91000  -9.90988
 Alpha  occ. eigenvalues --   -9.90904  -9.90874  -9.90855  -9.90761  -9.90718
 Alpha  occ. eigenvalues --   -9.90683  -2.91931  -1.72338  -1.71840  -1.71628
 Alpha  occ. eigenvalues --   -0.99389  -0.98238  -0.91995  -0.91677  -0.91565
 Alpha  occ. eigenvalues --   -0.91507  -0.86107  -0.85274  -0.85135  -0.84290
 Alpha  occ. eigenvalues --   -0.76003  -0.73642  -0.73387  -0.72711  -0.72376
 Alpha  occ. eigenvalues --   -0.72035  -0.71698  -0.71127  -0.70879  -0.70396
 Alpha  occ. eigenvalues --   -0.69660  -0.69114  -0.68345  -0.68056  -0.67396
 Alpha  occ. eigenvalues --   -0.66858  -0.66435  -0.65768  -0.64970  -0.64544
 Alpha  occ. eigenvalues --   -0.63996  -0.63113  -0.62693  -0.62276  -0.61394
 Alpha  occ. eigenvalues --   -0.60709  -0.59895  -0.59849  -0.59679  -0.58507
 Alpha  occ. eigenvalues --   -0.58154  -0.57275  -0.57129  -0.56075  -0.55006
 Alpha  occ. eigenvalues --   -0.54131  -0.53660  -0.53278  -0.52165  -0.51485
 Alpha  occ. eigenvalues --   -0.51158  -0.50628  -0.50571  -0.50356  -0.49823
 Alpha  occ. eigenvalues --   -0.49331  -0.49016  -0.48957  -0.48500  -0.46886
 Alpha  occ. eigenvalues --   -0.46715  -0.46189  -0.46118  -0.45451  -0.45035
 Alpha  occ. eigenvalues --   -0.44792  -0.44115  -0.43419  -0.43082  -0.42862
 Alpha  occ. eigenvalues --   -0.42563  -0.42322  -0.41946  -0.41812  -0.41472
 Alpha  occ. eigenvalues --   -0.41187  -0.40953  -0.40826  -0.40689  -0.40466
 Alpha  occ. eigenvalues --   -0.40235  -0.40027  -0.39903  -0.39785  -0.39443
 Alpha  occ. eigenvalues --   -0.39313  -0.39031  -0.38570  -0.38211  -0.38172
 Alpha  occ. eigenvalues --   -0.38084  -0.38032  -0.37651  -0.37478  -0.37307
 Alpha  occ. eigenvalues --   -0.37163  -0.36995  -0.36876  -0.36829  -0.36457
 Alpha  occ. eigenvalues --   -0.36384  -0.36294  -0.36064  -0.35918  -0.35645
 Alpha  occ. eigenvalues --   -0.35402  -0.35164  -0.35118  -0.34861  -0.34797
 Alpha  occ. eigenvalues --   -0.34648  -0.34573  -0.34359  -0.34243  -0.34133
 Alpha  occ. eigenvalues --   -0.33753  -0.33592  -0.33350  -0.33245  -0.33176
 Alpha  occ. eigenvalues --   -0.32894  -0.32776  -0.32615  -0.32391  -0.32344
 Alpha  occ. eigenvalues --   -0.32265  -0.31988  -0.31860  -0.31700  -0.31688
 Alpha  occ. eigenvalues --   -0.31533  -0.31315  -0.31090  -0.31067  -0.30593
 Alpha  occ. eigenvalues --   -0.30504  -0.30176  -0.30086  -0.29936  -0.29830
 Alpha  occ. eigenvalues --   -0.29725  -0.29670  -0.29614  -0.29408  -0.29163
 Alpha  occ. eigenvalues --   -0.28903  -0.28817  -0.28585  -0.28243  -0.28071
 Alpha  occ. eigenvalues --   -0.27660  -0.27383  -0.26982  -0.26551  -0.26464
 Alpha  occ. eigenvalues --   -0.26252  -0.26207  -0.26008  -0.25758  -0.25521
 Alpha  occ. eigenvalues --   -0.25411  -0.24847  -0.24535  -0.24055  -0.23564
 Alpha  occ. eigenvalues --   -0.23491  -0.22832  -0.22544  -0.21468  -0.20474
 Alpha  occ. eigenvalues --   -0.19842  -0.19757  -0.19065  -0.18047  -0.17181
 Alpha  occ. eigenvalues --   -0.15872
 Alpha virt. eigenvalues --   -0.11585  -0.07311  -0.05917  -0.04678  -0.04141
 Alpha virt. eigenvalues --   -0.03401  -0.02410  -0.02247  -0.01739  -0.00160
 Alpha virt. eigenvalues --    0.00804   0.01391   0.02230   0.02279   0.02538

 Mulliken charges:
               1
     1  Mg   0.683512
     2  C   -0.008189
     3  C   -0.105343
     4  C   -0.013575
     5  C   -0.084212
     6  N   -0.203991
     7  C   -0.092949
     8  C    0.029483
     9  C   -0.030096
    10  C    0.083884
    11  C    0.145196
    12  C    0.084219
    13  C    0.115617
    14  C    0.088668
    15  O   -0.146234
    16  O   -0.299434
    17  N   -0.334709
    18  C    0.157166
    19  C   -0.118407
    20  C    0.073449
    21  C    0.059623
    22  C    0.168831
    23  C   -0.123605
    24  O   -0.164929
    25  C    0.160738
    26  N   -0.237026
    27  C    0.028660
    28  C    0.029656
    29  C    0.059983
    30  C    0.032606
    31  C    0.125781
    32  C    0.067520
    33  C    0.077326
    34  N   -0.231687
    35  C    0.155480
    36  C   -0.168344
    37  C    0.020167
    38  C    0.072848
    39  C    0.123644
    40  C   -0.041409
    41  O   -0.122336
    42  C    0.156005
    43  C    0.074121
    44  O   -0.141009
    45  O   -0.260829
    46  C    0.208800
    47  C    0.312354
    48  C   -0.125939
    49  C   -0.152414
    50  C    0.143463
    51  C    0.151187
    52  C    0.050393
    53  C    0.093281
    54  C   -0.103771
    55  C    0.115304
    56  C    0.173004
    57  C    0.036718
    58  C    0.111848
    59  C   -0.104219
    60  C    0.096473
    61  C    0.090277
    62  C    0.044457
    63  C    0.122435
    64  C   -0.109738
    65  C    0.114424
    66  C    0.100769
    67  H   -0.071504
    68  H   -0.040501
    69  H   -0.059762
    70  H   -0.047483
    71  H   -0.022181
    72  H   -0.013165
    73  H   -0.010220
    74  H   -0.013424
    75  H   -0.032454
    76  H    0.024529
    77  H    0.004843
    78  H    0.009217
    79  H    0.004149
    80  H   -0.017908
    81  H   -0.004803
    82  H   -0.014542
    83  H   -0.018697
    84  H    0.015061
    85  H   -0.016739
    86  H   -0.041959
    87  H   -0.018283
    88  H    0.007115
    89  H   -0.007457
    90  H   -0.032689
    91  H   -0.030408
    92  H   -0.008095
    93  H    0.000899
    94  H   -0.000548
    95  H    0.006339
    96  H    0.006196
    97  H   -0.002350
    98  H    0.008692
    99  H    0.034871
   100  H    0.014002
   101  H    0.007721
   102  H   -0.007125
   103  H    0.001137
   104  H   -0.029435
   105  H   -0.008611
   106  H   -0.005924
   107  H    0.001368
   108  H   -0.037926
   109  H   -0.019728
   110  H   -0.035488
   111  H   -0.023092
   112  H   -0.027117
   113  H   -0.028862
   114  H   -0.025489
   115  H   -0.011450
   116  H   -0.028146
   117  H   -0.024048
   118  H   -0.026580
   119  H   -0.045187
   120  H   -0.040241
   121  H   -0.029378
   122  H   -0.044951
   123  H   -0.031736
   124  H   -0.030544
   125  H   -0.026794
   126  H   -0.022181
   127  H    0.005033
   128  H   -0.040278
   129  H   -0.029947
   130  H   -0.035362
   131  H   -0.044887
   132  H   -0.040206
   133  H   -0.037995
   134  H   -0.029498
   135  H   -0.019187
   136  H   -0.010833
   137  H   -0.002476
   138  H   -0.012399
   139  H   -0.011997
   140  H   -0.015883
 Sum of Mulliken charges =  -0.00000

 Dipole moment (field-independent basis, Debye):
    X=             -3.6282    Y=              3.1106    Z=             -0.2917  Tot=              4.7880
 Quadrupole moment (field-independent basis, Debye-Ang):
   XX=           -387.8726   YY=           -436.3356   ZZ=           -405.7922
   XY=             13.1437   XZ=             20.2912   YZ=              2.3846

 Normal termination of Gaussian 16 at Wed May  4 08:12:19 2022.
