 Gaussian 16, Revision A.03,
 Gaussian 16:  ES64L-G16RevA.03 25-Dec-2016

 -----------------------------------
 #p cam-b3lyp/Def2SVP td=(nstates=5)
 -----------------------------------

 --------------------------------------------------------
 step_1501_chromophore_10 TDDFT with cam-b3lyp functional
 --------------------------------------------------------
 Symbolic Z-matrix:
 Charge =  0 Multiplicity = 1

                         Standard orientation:
 ---------------------------------------------------------------------
 Center     Atomic      Atomic             Coordinates (Angstroms)
 Number     Number       Type             X           Y           Z
 ---------------------------------------------------------------------
      1         12           0        5.778939    0.706498    0.227962
      2          6           0        3.881676   -2.443676    0.178786
      3          6           0        3.211817    2.162952   -1.379739
      4          6           0        7.802188    3.314900   -0.271238
      5          6           0        8.571331   -1.312794    1.235770
      6          7           0        3.880502   -0.132229   -0.575883
      7          6           0        3.217478   -1.298141   -0.355181
      8          6           0        1.749126   -1.185909   -0.684236
      9          6           0        1.635634    0.247395   -1.306716
     10          6           0        3.025204    0.820709   -1.127318
     11          6           0        1.036424    0.435890   -2.665769
     12          6           0        0.861102   -1.445678    0.565707
     13          6           0       -0.573470   -0.828378    0.435697
     14          6           0       -1.634649   -1.678737    1.102859
     15          8           0       -1.451029   -2.525328    1.939117
     16          8           0       -2.883031   -1.357810    0.489654
     17          7           0        5.439378    2.577712   -0.471436
     18          6           0        4.316978    2.991131   -1.149036
     19          6           0        4.455110    4.360569   -1.461732
     20          6           0        5.770829    4.776866   -1.070979
     21          6           0        6.404374    3.565446   -0.584305
     22          6           0        3.297910    5.149662   -2.013253
     23          6           0        6.476216    6.023473   -1.173991
     24          8           0        7.652459    6.156231   -0.879825
     25          6           0        5.760225    7.209022   -1.575481
     26          7           0        7.915429    0.906028    0.350847
     27          6           0        8.540122    2.116425    0.156028
     28          6           0       10.012063    2.124647    0.624721
     29          6           0       10.038901    0.774934    1.454838
     30          6           0        8.778620    0.045823    1.041696
     31          6           0       11.037565    2.220647   -0.582495
     32          6           0       10.067647    0.869276    3.011674
     33          6           0        8.956344    1.588097    3.692838
     34          7           0        6.173856   -1.423285    0.545253
     35          6           0        7.405880   -1.965933    0.984064
     36          6           0        7.117813   -3.402165    1.190290
     37          6           0        5.757506   -3.631332    0.838269
     38          6           0        5.239121   -2.386009    0.564866
     39          6           0        8.147263   -4.446522    1.546069
     40          6           0        4.619311   -4.627752    0.813810
     41          8           0        4.577412   -5.779525    1.209257
     42          6           0        3.391259   -3.856249    0.398012
     43          6           0        2.747819   -4.370621   -0.782506
     44          8           0        3.286105   -4.477652   -1.845957
     45          8           0        1.444575   -4.555511   -0.462494
     46          6           0        0.518994   -4.641250   -1.587732
     47          6           0       -3.749403   -2.507031    0.580773
     48          6           0       -4.645906   -2.513398   -0.575775
     49          6           0       -5.730179   -3.288798   -0.873561
     50          6           0       -6.047887   -4.611278   -0.142779
     51          6           0       -6.534532   -2.975081   -2.128012
     52          6           0       -7.996789   -2.514514   -1.789502
     53          6           0       -8.155825   -0.949905   -1.465719
     54          6           0       -9.206068   -0.209098   -2.292504
     55          6           0       -8.980078   -0.135076   -3.824176
     56          6           0       -9.417336    1.208440   -1.653503
     57          6           0      -10.385854    1.084879   -0.493606
     58          6           0      -11.771619    1.689082   -0.720462
     59          6           0      -12.915781    0.836569   -0.091434
     60          6           0      -13.250674   -0.451105   -0.971813
     61          6           0      -14.261184    1.636454    0.043398
     62          6           0      -14.673776    1.896910    1.574035
     63          6           0      -13.876999    3.095319    2.126232
     64          6           0      -13.059586    2.792175    3.447881
     65          6           0      -13.914178    3.070834    4.744898
     66          6           0      -11.745851    3.554290    3.493573
     67          1           0        2.413596    2.629481   -1.961746
     68          1           0        8.395856    4.224730   -0.380724
     69          1           0        9.363034   -1.937765    1.653434
     70          1           0        1.404319   -1.969548   -1.358880
     71          1           0        0.977978    0.887025   -0.717195
     72          1           0        0.852299   -0.555350   -3.080265
     73          1           0        1.786372    0.984370   -3.234691
     74          1           0        0.148022    1.063514   -2.732089
     75          1           0        1.391706   -0.842768    1.301564
     76          1           0        0.898829   -2.504712    0.819298
     77          1           0       -0.904065   -0.498820   -0.549280
     78          1           0       -0.446511    0.069678    1.040910
     79          1           0        3.153059    6.137282   -1.576796
     80          1           0        2.326785    4.660247   -2.086488
     81          1           0        3.524038    5.234545   -3.076293
     82          1           0        5.382168    7.056675   -2.586407
     83          1           0        6.361477    8.094161   -1.782291
     84          1           0        4.928306    7.327028   -0.882680
     85          1           0       10.247875    2.952512    1.293871
     86          1           0       10.860183    0.118816    1.165225
     87          1           0       11.465283    1.230013   -0.741600
     88          1           0       11.842575    2.955549   -0.585440
     89          1           0       10.444464    2.387239   -1.482018
     90          1           0       11.004700    1.339351    3.308864
     91          1           0       10.213504   -0.102124    3.484425
     92          1           0        8.592128    0.913658    4.467749
     93          1           0        8.151584    1.728958    2.970766
     94          1           0        9.239661    2.563045    4.088239
     95          1           0        8.555078   -5.065539    0.747391
     96          1           0        7.437437   -5.166685    1.954425
     97          1           0        8.984427   -4.213941    2.204408
     98          1           0        2.741287   -4.015490    1.258319
     99          1           0        0.137002   -5.655834   -1.699499
    100          1           0        0.916083   -4.239646   -2.519811
    101          1           0       -0.237000   -3.864898   -1.474968
    102          1           0       -4.217824   -2.461110    1.563296
    103          1           0       -3.318227   -3.508471    0.570081
    104          1           0       -4.591781   -1.570958   -1.120248
    105          1           0       -5.185990   -4.960560    0.426128
    106          1           0       -6.450503   -5.356719   -0.829594
    107          1           0       -6.829343   -4.424784    0.593472
    108          1           0       -6.706940   -3.958035   -2.565747
    109          1           0       -6.077863   -2.237186   -2.787211
    110          1           0       -8.284945   -3.018923   -0.867210
    111          1           0       -8.574387   -2.881419   -2.638451
    112          1           0       -7.183579   -0.492164   -1.646251
    113          1           0       -8.437118   -0.901310   -0.413972
    114          1           0      -10.105818   -0.821960   -2.240154
    115          1           0       -9.239726    0.792703   -4.335643
    116          1           0       -9.655564   -0.883942   -4.239752
    117          1           0       -7.986334   -0.498121   -4.085041
    118          1           0       -9.587448    2.042016   -2.334487
    119          1           0       -8.519343    1.347282   -1.051359
    120          1           0       -9.926709    1.527112    0.390337
    121          1           0      -10.596831    0.078229   -0.132956
    122          1           0      -12.008127    1.718130   -1.784122
    123          1           0      -11.784233    2.733529   -0.407965
    124          1           0      -12.615787    0.537312    0.912715
    125          1           0      -13.635939   -1.128355   -0.208947
    126          1           0      -12.336088   -0.958266   -1.280898
    127          1           0      -14.014266   -0.317054   -1.738167
    128          1           0      -15.082950    1.063311   -0.385044
    129          1           0      -14.067557    2.558524   -0.504311
    130          1           0      -14.640035    0.942732    2.099542
    131          1           0      -15.754600    2.037433    1.596979
    132          1           0      -14.609311    3.874313    2.339962
    133          1           0      -13.313917    3.484137    1.279010
    134          1           0      -12.878958    1.721174    3.355083
    135          1           0      -13.262580    3.538015    5.482480
    136          1           0      -14.114313    2.044156    5.051591
    137          1           0      -14.797132    3.670552    4.523306
    138          1           0      -11.951308    4.619630    3.590896
    139          1           0      -11.136270    3.371966    2.608205
    140          1           0      -11.230604    3.175203    4.376317
 ---------------------------------------------------------------------

 SCF Done:  E(RCAM-B3LYP) =  -3007.14400916     A.U. after   19 cycles

 Excitation energies and oscillator strengths:

 Excited State   1:      Singlet-A      1.6883 eV  734.39 nm  f=0.3582  <S**2>=0.000
     245 -> 248       -0.19093
     246 -> 247        0.68265
     245 <- 248       -0.10999
 This state for optimization and/or second-order correction.
 Total Energy, E(TD-HF/TD-DFT) =  -3007.08196661
 Copying the excited state density for this state as the 1-particle RhoCI density.

 Excited State   2:      Singlet-A      2.1754 eV  569.95 nm  f=0.0951  <S**2>=0.000
     245 -> 247        0.63419
     246 -> 248        0.29857

 Excited State   3:      Singlet-A      3.2063 eV  386.69 nm  f=0.0063  <S**2>=0.000
     243 -> 247       -0.16540
     244 -> 247        0.66949

 Excited State   4:      Singlet-A      3.3858 eV  366.19 nm  f=0.3168  <S**2>=0.000
     242 -> 247       -0.40852
     245 -> 247       -0.20280
     246 -> 248        0.52020

 Excited State   5:      Singlet-A      3.5179 eV  352.43 nm  f=0.0001  <S**2>=0.000
     240 -> 247       -0.10154
     241 -> 247        0.56309
     241 -> 248        0.17882
     241 -> 249        0.24491
     241 -> 251       -0.21659

 The electronic state is 1-A.
 Alpha  occ. eigenvalues --  -46.88941 -19.26193 -19.25046 -19.21863 -19.20206
 Alpha  occ. eigenvalues --  -19.19491 -19.17548 -14.42472 -14.42177 -14.39394
 Alpha  occ. eigenvalues --  -14.38721 -10.40435 -10.39255 -10.35416 -10.33426
 Alpha  occ. eigenvalues --  -10.32484 -10.31653 -10.31634 -10.31475 -10.31016
 Alpha  occ. eigenvalues --  -10.30638 -10.30272 -10.29641 -10.29230 -10.28644
 Alpha  occ. eigenvalues --  -10.28640 -10.28504 -10.28409 -10.28370 -10.28288
 Alpha  occ. eigenvalues --  -10.28051 -10.27853 -10.27511 -10.27507 -10.27469
 Alpha  occ. eigenvalues --  -10.27418 -10.27087 -10.27044 -10.26872 -10.26704
 Alpha  occ. eigenvalues --  -10.26649 -10.26308 -10.26231 -10.26186 -10.26148
 Alpha  occ. eigenvalues --  -10.25913 -10.25868 -10.25783 -10.25705 -10.25682
 Alpha  occ. eigenvalues --  -10.25678 -10.25456 -10.25410 -10.25276 -10.25144
 Alpha  occ. eigenvalues --  -10.25107 -10.24880 -10.24768 -10.24749 -10.24631
 Alpha  occ. eigenvalues --  -10.24626 -10.24549 -10.24505 -10.24359 -10.24355
 Alpha  occ. eigenvalues --  -10.24331  -3.17410  -1.92294  -1.91884  -1.91694
 Alpha  occ. eigenvalues --   -1.18081  -1.16794  -1.10530  -1.09784  -1.09778
 Alpha  occ. eigenvalues --   -1.09612  -1.03849  -1.02856  -1.02740  -1.01855
 Alpha  occ. eigenvalues --   -0.93263  -0.90510  -0.90203  -0.89511  -0.89077
 Alpha  occ. eigenvalues --   -0.88655  -0.88404  -0.87741  -0.87467  -0.86951
 Alpha  occ. eigenvalues --   -0.86087  -0.85709  -0.84598  -0.84256  -0.83565
 Alpha  occ. eigenvalues --   -0.82910  -0.82534  -0.81800  -0.80809  -0.80407
 Alpha  occ. eigenvalues --   -0.79775  -0.78766  -0.78414  -0.77862  -0.76922
 Alpha  occ. eigenvalues --   -0.76099  -0.75221  -0.75099  -0.74975  -0.73709
 Alpha  occ. eigenvalues --   -0.73246  -0.72326  -0.72051  -0.70915  -0.69647
 Alpha  occ. eigenvalues --   -0.68800  -0.68258  -0.67687  -0.66452  -0.65670
 Alpha  occ. eigenvalues --   -0.65218  -0.64793  -0.64658  -0.64271  -0.63708
 Alpha  occ. eigenvalues --   -0.63330  -0.62919  -0.62877  -0.62421  -0.60603
 Alpha  occ. eigenvalues --   -0.60355  -0.59862  -0.59699  -0.58895  -0.58509
 Alpha  occ. eigenvalues --   -0.58145  -0.57572  -0.56739  -0.56384  -0.56041
 Alpha  occ. eigenvalues --   -0.55804  -0.55367  -0.55148  -0.54846  -0.54644
 Alpha  occ. eigenvalues --   -0.54079  -0.53707  -0.53651  -0.53442  -0.53305
 Alpha  occ. eigenvalues --   -0.53108  -0.52820  -0.52507  -0.52326  -0.51991
 Alpha  occ. eigenvalues --   -0.51754  -0.51605  -0.50933  -0.50918  -0.50585
 Alpha  occ. eigenvalues --   -0.50436  -0.50365  -0.50148  -0.49883  -0.49732
 Alpha  occ. eigenvalues --   -0.49528  -0.49308  -0.49177  -0.49022  -0.48906
 Alpha  occ. eigenvalues --   -0.48760  -0.48369  -0.48323  -0.48182  -0.47816
 Alpha  occ. eigenvalues --   -0.47379  -0.47341  -0.47099  -0.46753  -0.46615
 Alpha  occ. eigenvalues --   -0.46550  -0.46378  -0.46231  -0.46119  -0.46004
 Alpha  occ. eigenvalues --   -0.45784  -0.45462  -0.45187  -0.45080  -0.44817
 Alpha  occ. eigenvalues --   -0.44615  -0.44544  -0.44259  -0.44152  -0.44037
 Alpha  occ. eigenvalues --   -0.43894  -0.43635  -0.43445  -0.43283  -0.43235
 Alpha  occ. eigenvalues --   -0.43120  -0.43009  -0.42734  -0.42613  -0.42411
 Alpha  occ. eigenvalues --   -0.41998  -0.41582  -0.41284  -0.41236  -0.41065
 Alpha  occ. eigenvalues --   -0.40932  -0.40796  -0.40739  -0.40687  -0.40272
 Alpha  occ. eigenvalues --   -0.39924  -0.39854  -0.39600  -0.39174  -0.39108
 Alpha  occ. eigenvalues --   -0.38559  -0.38177  -0.37883  -0.37784  -0.37575
 Alpha  occ. eigenvalues --   -0.37322  -0.37181  -0.36907  -0.36811  -0.36678
 Alpha  occ. eigenvalues --   -0.36158  -0.35618  -0.35388  -0.35101  -0.35030
 Alpha  occ. eigenvalues --   -0.33856  -0.33752  -0.33462  -0.31346  -0.30527
 Alpha  occ. eigenvalues --   -0.30337  -0.29680  -0.29244  -0.29235  -0.23920
 Alpha  occ. eigenvalues --   -0.21197
 Alpha virt. eigenvalues --   -0.08727  -0.02230   0.00556   0.01632   0.02271
 Alpha virt. eigenvalues --    0.03701   0.05003   0.05425   0.05548   0.06601
 Alpha virt. eigenvalues --    0.07862   0.08032   0.08303   0.08359   0.08860

 Mulliken charges:
               1
     1  Mg   0.812578
     2  C   -0.045686
     3  C   -0.113720
     4  C   -0.029129
     5  C   -0.088960
     6  N   -0.275877
     7  C   -0.039768
     8  C   -0.014979
     9  C   -0.090180
    10  C    0.101682
    11  C    0.082257
    12  C    0.040262
    13  C    0.036463
    14  C    0.176206
    15  O   -0.185692
    16  O   -0.363643
    17  N   -0.421876
    18  C    0.162320
    19  C   -0.123989
    20  C   -0.000357
    21  C    0.082768
    22  C    0.108071
    23  C   -0.040640
    24  O   -0.210425
    25  C    0.072432
    26  N   -0.300817
    27  C    0.039641
    28  C   -0.022948
    29  C    0.000402
    30  C    0.043437
    31  C    0.069222
    32  C    0.015319
    33  C    0.014792
    34  N   -0.319323
    35  C    0.161773
    36  C   -0.165767
    37  C   -0.049746
    38  C    0.113529
    39  C    0.072643
    40  C    0.062982
    41  O   -0.158674
    42  C    0.071493
    43  C    0.162829
    44  O   -0.177669
    45  O   -0.324071
    46  C    0.170368
    47  C    0.275870
    48  C   -0.143126
    49  C   -0.172515
    50  C    0.082521
    51  C    0.089409
    52  C   -0.003402
    53  C    0.045499
    54  C   -0.151755
    55  C    0.057311
    56  C    0.104059
    57  C   -0.011284
    58  C    0.061365
    59  C   -0.156507
    60  C    0.040594
    61  C    0.036250
    62  C   -0.007049
    63  C    0.065693
    64  C   -0.164522
    65  C    0.053803
    66  C    0.045029
    67  H   -0.038656
    68  H    0.002209
    69  H   -0.021970
    70  H   -0.017355
    71  H    0.013103
    72  H    0.011885
    73  H    0.017126
    74  H    0.012075
    75  H   -0.000760
    76  H    0.052629
    77  H    0.036902
    78  H    0.042858
    79  H    0.029075
    80  H    0.010636
    81  H    0.022006
    82  H    0.014984
    83  H    0.017913
    84  H    0.040752
    85  H    0.018678
    86  H   -0.004597
    87  H    0.005509
    88  H    0.031348
    89  H    0.018629
    90  H   -0.002143
    91  H   -0.001026
    92  H    0.016522
    93  H    0.019944
    94  H    0.023925
    95  H    0.034564
    96  H    0.032184
    97  H    0.022398
    98  H    0.052923
    99  H    0.059213
   100  H    0.039716
   101  H    0.025012
   102  H    0.022626
   103  H    0.027083
   104  H    0.002579
   105  H    0.015539
   106  H    0.018974
   107  H    0.025146
   108  H   -0.007012
   109  H    0.009019
   110  H   -0.007655
   111  H    0.004859
   112  H   -0.001104
   113  H    0.000021
   114  H    0.001079
   115  H    0.013496
   116  H   -0.004118
   117  H   -0.001789
   118  H    0.003612
   119  H   -0.012787
   120  H   -0.011967
   121  H   -0.003299
   122  H   -0.016322
   123  H   -0.005212
   124  H   -0.002799
   125  H   -0.001738
   126  H   -0.000574
   127  H    0.027991
   128  H   -0.009634
   129  H   -0.001404
   130  H   -0.008522
   131  H   -0.013909
   132  H   -0.010917
   133  H   -0.010940
   134  H   -0.000920
   135  H    0.005819
   136  H    0.012408
   137  H    0.020275
   138  H    0.010516
   139  H    0.008559
   140  H    0.008037
 Sum of Mulliken charges =  -0.00000

 Dipole moment (field-independent basis, Debye):
    X=             -3.6809    Y=              3.0537    Z=             -0.3061  Tot=              4.7924
 Quadrupole moment (field-independent basis, Debye-Ang):
   XX=           -385.1227   YY=           -433.5666   ZZ=           -405.5847
   XY=             12.6374   XZ=             22.3453   YZ=              1.3114

 Normal termination of Gaussian 16 at Wed May  4 07:05:07 2022.
