 Gaussian 16, Revision A.03,
 Gaussian 16:  ES64L-G16RevA.03 25-Dec-2016

 ---------------------------------
 #p PBE1PBE/Def2SVP td=(nstates=5)
 ---------------------------------

 ------------------------------------------------------
 step_1501_chromophore_10 TDDFT with PBE1PBE functional
 ------------------------------------------------------
 Symbolic Z-matrix:
 Charge =  0 Multiplicity = 1

                         Standard orientation:
 ---------------------------------------------------------------------
 Center     Atomic      Atomic             Coordinates (Angstroms)
 Number     Number       Type             X           Y           Z
 ---------------------------------------------------------------------
      1         12           0        5.778939    0.706498    0.227962
      2          6           0        3.881676   -2.443676    0.178786
      3          6           0        3.211817    2.162952   -1.379739
      4          6           0        7.802188    3.314900   -0.271238
      5          6           0        8.571331   -1.312794    1.235770
      6          7           0        3.880502   -0.132229   -0.575883
      7          6           0        3.217478   -1.298141   -0.355181
      8          6           0        1.749126   -1.185909   -0.684236
      9          6           0        1.635634    0.247395   -1.306716
     10          6           0        3.025204    0.820709   -1.127318
     11          6           0        1.036424    0.435890   -2.665769
     12          6           0        0.861102   -1.445678    0.565707
     13          6           0       -0.573470   -0.828378    0.435697
     14          6           0       -1.634649   -1.678737    1.102859
     15          8           0       -1.451029   -2.525328    1.939117
     16          8           0       -2.883031   -1.357810    0.489654
     17          7           0        5.439378    2.577712   -0.471436
     18          6           0        4.316978    2.991131   -1.149036
     19          6           0        4.455110    4.360569   -1.461732
     20          6           0        5.770829    4.776866   -1.070979
     21          6           0        6.404374    3.565446   -0.584305
     22          6           0        3.297910    5.149662   -2.013253
     23          6           0        6.476216    6.023473   -1.173991
     24          8           0        7.652459    6.156231   -0.879825
     25          6           0        5.760225    7.209022   -1.575481
     26          7           0        7.915429    0.906028    0.350847
     27          6           0        8.540122    2.116425    0.156028
     28          6           0       10.012063    2.124647    0.624721
     29          6           0       10.038901    0.774934    1.454838
     30          6           0        8.778620    0.045823    1.041696
     31          6           0       11.037565    2.220647   -0.582495
     32          6           0       10.067647    0.869276    3.011674
     33          6           0        8.956344    1.588097    3.692838
     34          7           0        6.173856   -1.423285    0.545253
     35          6           0        7.405880   -1.965933    0.984064
     36          6           0        7.117813   -3.402165    1.190290
     37          6           0        5.757506   -3.631332    0.838269
     38          6           0        5.239121   -2.386009    0.564866
     39          6           0        8.147263   -4.446522    1.546069
     40          6           0        4.619311   -4.627752    0.813810
     41          8           0        4.577412   -5.779525    1.209257
     42          6           0        3.391259   -3.856249    0.398012
     43          6           0        2.747819   -4.370621   -0.782506
     44          8           0        3.286105   -4.477652   -1.845957
     45          8           0        1.444575   -4.555511   -0.462494
     46          6           0        0.518994   -4.641250   -1.587732
     47          6           0       -3.749403   -2.507031    0.580773
     48          6           0       -4.645906   -2.513398   -0.575775
     49          6           0       -5.730179   -3.288798   -0.873561
     50          6           0       -6.047887   -4.611278   -0.142779
     51          6           0       -6.534532   -2.975081   -2.128012
     52          6           0       -7.996789   -2.514514   -1.789502
     53          6           0       -8.155825   -0.949905   -1.465719
     54          6           0       -9.206068   -0.209098   -2.292504
     55          6           0       -8.980078   -0.135076   -3.824176
     56          6           0       -9.417336    1.208440   -1.653503
     57          6           0      -10.385854    1.084879   -0.493606
     58          6           0      -11.771619    1.689082   -0.720462
     59          6           0      -12.915781    0.836569   -0.091434
     60          6           0      -13.250674   -0.451105   -0.971813
     61          6           0      -14.261184    1.636454    0.043398
     62          6           0      -14.673776    1.896910    1.574035
     63          6           0      -13.876999    3.095319    2.126232
     64          6           0      -13.059586    2.792175    3.447881
     65          6           0      -13.914178    3.070834    4.744898
     66          6           0      -11.745851    3.554290    3.493573
     67          1           0        2.413596    2.629481   -1.961746
     68          1           0        8.395856    4.224730   -0.380724
     69          1           0        9.363034   -1.937765    1.653434
     70          1           0        1.404319   -1.969548   -1.358880
     71          1           0        0.977978    0.887025   -0.717195
     72          1           0        0.852299   -0.555350   -3.080265
     73          1           0        1.786372    0.984370   -3.234691
     74          1           0        0.148022    1.063514   -2.732089
     75          1           0        1.391706   -0.842768    1.301564
     76          1           0        0.898829   -2.504712    0.819298
     77          1           0       -0.904065   -0.498820   -0.549280
     78          1           0       -0.446511    0.069678    1.040910
     79          1           0        3.153059    6.137282   -1.576796
     80          1           0        2.326785    4.660247   -2.086488
     81          1           0        3.524038    5.234545   -3.076293
     82          1           0        5.382168    7.056675   -2.586407
     83          1           0        6.361477    8.094161   -1.782291
     84          1           0        4.928306    7.327028   -0.882680
     85          1           0       10.247875    2.952512    1.293871
     86          1           0       10.860183    0.118816    1.165225
     87          1           0       11.465283    1.230013   -0.741600
     88          1           0       11.842575    2.955549   -0.585440
     89          1           0       10.444464    2.387239   -1.482018
     90          1           0       11.004700    1.339351    3.308864
     91          1           0       10.213504   -0.102124    3.484425
     92          1           0        8.592128    0.913658    4.467749
     93          1           0        8.151584    1.728958    2.970766
     94          1           0        9.239661    2.563045    4.088239
     95          1           0        8.555078   -5.065539    0.747391
     96          1           0        7.437437   -5.166685    1.954425
     97          1           0        8.984427   -4.213941    2.204408
     98          1           0        2.741287   -4.015490    1.258319
     99          1           0        0.137002   -5.655834   -1.699499
    100          1           0        0.916083   -4.239646   -2.519811
    101          1           0       -0.237000   -3.864898   -1.474968
    102          1           0       -4.217824   -2.461110    1.563296
    103          1           0       -3.318227   -3.508471    0.570081
    104          1           0       -4.591781   -1.570958   -1.120248
    105          1           0       -5.185990   -4.960560    0.426128
    106          1           0       -6.450503   -5.356719   -0.829594
    107          1           0       -6.829343   -4.424784    0.593472
    108          1           0       -6.706940   -3.958035   -2.565747
    109          1           0       -6.077863   -2.237186   -2.787211
    110          1           0       -8.284945   -3.018923   -0.867210
    111          1           0       -8.574387   -2.881419   -2.638451
    112          1           0       -7.183579   -0.492164   -1.646251
    113          1           0       -8.437118   -0.901310   -0.413972
    114          1           0      -10.105818   -0.821960   -2.240154
    115          1           0       -9.239726    0.792703   -4.335643
    116          1           0       -9.655564   -0.883942   -4.239752
    117          1           0       -7.986334   -0.498121   -4.085041
    118          1           0       -9.587448    2.042016   -2.334487
    119          1           0       -8.519343    1.347282   -1.051359
    120          1           0       -9.926709    1.527112    0.390337
    121          1           0      -10.596831    0.078229   -0.132956
    122          1           0      -12.008127    1.718130   -1.784122
    123          1           0      -11.784233    2.733529   -0.407965
    124          1           0      -12.615787    0.537312    0.912715
    125          1           0      -13.635939   -1.128355   -0.208947
    126          1           0      -12.336088   -0.958266   -1.280898
    127          1           0      -14.014266   -0.317054   -1.738167
    128          1           0      -15.082950    1.063311   -0.385044
    129          1           0      -14.067557    2.558524   -0.504311
    130          1           0      -14.640035    0.942732    2.099542
    131          1           0      -15.754600    2.037433    1.596979
    132          1           0      -14.609311    3.874313    2.339962
    133          1           0      -13.313917    3.484137    1.279010
    134          1           0      -12.878958    1.721174    3.355083
    135          1           0      -13.262580    3.538015    5.482480
    136          1           0      -14.114313    2.044156    5.051591
    137          1           0      -14.797132    3.670552    4.523306
    138          1           0      -11.951308    4.619630    3.590896
    139          1           0      -11.136270    3.371966    2.608205
    140          1           0      -11.230604    3.175203    4.376317
 ---------------------------------------------------------------------

 SCF Done:  E(RPBE1PBE) =  -3005.33444256     A.U. after   15 cycles

 Excitation energies and oscillator strengths:

 Excited State   1:      Singlet-A      1.8418 eV  673.18 nm  f=0.3458  <S**2>=0.000
     245 -> 248       -0.18500
     246 -> 247        0.68912
     246 <- 247       -0.10257
 This state for optimization and/or second-order correction.
 Total Energy, E(TD-HF/TD-DFT) =  -3005.26675927
 Copying the excited state density for this state as the 1-particle RhoCI density.

 Excited State   2:      Singlet-A      2.1834 eV  567.84 nm  f=0.0913  <S**2>=0.000
     245 -> 247        0.64532
     246 -> 248        0.27270

 Excited State   3:      Singlet-A      2.8922 eV  428.69 nm  f=0.0062  <S**2>=0.000
     243 -> 247        0.68966

 Excited State   4:      Singlet-A      2.9240 eV  424.03 nm  f=0.0003  <S**2>=0.000
     242 -> 247        0.67272
     242 -> 248        0.10268
     242 -> 249        0.12459

 Excited State   5:      Singlet-A      3.1070 eV  399.05 nm  f=0.0034  <S**2>=0.000
     239 -> 247       -0.19052
     240 -> 247       -0.39653
     240 -> 249        0.10470
     241 -> 247        0.52333

 The electronic state is 1-A.
 Alpha  occ. eigenvalues --  -46.92336 -19.26796 -19.25761 -19.22109 -19.20354
 Alpha  occ. eigenvalues --  -19.19584 -19.17881 -14.41952 -14.41761 -14.39124
 Alpha  occ. eigenvalues --  -14.38358 -10.37486 -10.36177 -10.32477 -10.30569
 Alpha  occ. eigenvalues --  -10.29661 -10.29533 -10.29252 -10.28866 -10.28674
 Alpha  occ. eigenvalues --  -10.28461 -10.28134 -10.27204 -10.27067 -10.26491
 Alpha  occ. eigenvalues --  -10.26214 -10.26165 -10.26079 -10.26007 -10.25949
 Alpha  occ. eigenvalues --  -10.25917 -10.25666 -10.25343 -10.25156 -10.25076
 Alpha  occ. eigenvalues --  -10.25055 -10.24637 -10.24582 -10.24517 -10.24437
 Alpha  occ. eigenvalues --  -10.24155 -10.24045 -10.23831 -10.23731 -10.23689
 Alpha  occ. eigenvalues --  -10.23502 -10.23464 -10.23437 -10.23394 -10.23343
 Alpha  occ. eigenvalues --  -10.23047 -10.23036 -10.22952 -10.22859 -10.22471
 Alpha  occ. eigenvalues --  -10.22466 -10.22447 -10.22352 -10.22219 -10.22197
 Alpha  occ. eigenvalues --  -10.22112 -10.22019 -10.21909 -10.21900 -10.21899
 Alpha  occ. eigenvalues --  -10.21694  -3.14388  -1.87211  -1.86779  -1.86594
 Alpha  occ. eigenvalues --   -1.12797  -1.11587  -1.05176  -1.04588  -1.04541
 Alpha  occ. eigenvalues --   -1.04501  -0.98435  -0.97490  -0.97394  -0.96472
 Alpha  occ. eigenvalues --   -0.87566  -0.84680  -0.84383  -0.83637  -0.83365
 Alpha  occ. eigenvalues --   -0.82979  -0.82491  -0.82044  -0.81798  -0.81060
 Alpha  occ. eigenvalues --   -0.80398  -0.79930  -0.78853  -0.78500  -0.77791
 Alpha  occ. eigenvalues --   -0.77145  -0.76753  -0.76070  -0.75112  -0.74642
 Alpha  occ. eigenvalues --   -0.73965  -0.73091  -0.72708  -0.72178  -0.71205
 Alpha  occ. eigenvalues --   -0.70235  -0.69475  -0.69302  -0.69144  -0.67884
 Alpha  occ. eigenvalues --   -0.67546  -0.66729  -0.66473  -0.65257  -0.63961
 Alpha  occ. eigenvalues --   -0.63234  -0.62491  -0.62205  -0.60793  -0.60056
 Alpha  occ. eigenvalues --   -0.59727  -0.59224  -0.58994  -0.58767  -0.58174
 Alpha  occ. eigenvalues --   -0.57447  -0.57420  -0.57040  -0.56622  -0.55020
 Alpha  occ. eigenvalues --   -0.54878  -0.54390  -0.54155  -0.53460  -0.53066
 Alpha  occ. eigenvalues --   -0.52572  -0.52133  -0.51200  -0.50815  -0.50655
 Alpha  occ. eigenvalues --   -0.50300  -0.49833  -0.49759  -0.49428  -0.49195
 Alpha  occ. eigenvalues --   -0.48455  -0.48264  -0.48078  -0.47928  -0.47792
 Alpha  occ. eigenvalues --   -0.47648  -0.47395  -0.46989  -0.46915  -0.46540
 Alpha  occ. eigenvalues --   -0.46320  -0.46195  -0.45420  -0.45379  -0.45193
 Alpha  occ. eigenvalues --   -0.45002  -0.44952  -0.44769  -0.44520  -0.44315
 Alpha  occ. eigenvalues --   -0.44111  -0.43840  -0.43781  -0.43610  -0.43530
 Alpha  occ. eigenvalues --   -0.43291  -0.42991  -0.42917  -0.42835  -0.42553
 Alpha  occ. eigenvalues --   -0.42115  -0.41985  -0.41731  -0.41480  -0.41290
 Alpha  occ. eigenvalues --   -0.41179  -0.40957  -0.40911  -0.40847  -0.40676
 Alpha  occ. eigenvalues --   -0.40485  -0.40231  -0.39970  -0.39859  -0.39482
 Alpha  occ. eigenvalues --   -0.39325  -0.39215  -0.38969  -0.38925  -0.38798
 Alpha  occ. eigenvalues --   -0.38711  -0.38402  -0.38187  -0.38089  -0.37981
 Alpha  occ. eigenvalues --   -0.37814  -0.37736  -0.37596  -0.37343  -0.37099
 Alpha  occ. eigenvalues --   -0.36873  -0.36425  -0.36150  -0.36022  -0.35946
 Alpha  occ. eigenvalues --   -0.35832  -0.35587  -0.35544  -0.35494  -0.35194
 Alpha  occ. eigenvalues --   -0.34782  -0.34752  -0.34527  -0.34052  -0.33992
 Alpha  occ. eigenvalues --   -0.33362  -0.33033  -0.32773  -0.32611  -0.32602
 Alpha  occ. eigenvalues --   -0.32164  -0.32042  -0.31828  -0.31777  -0.31727
 Alpha  occ. eigenvalues --   -0.31002  -0.30485  -0.30274  -0.29966  -0.29838
 Alpha  occ. eigenvalues --   -0.29141  -0.28817  -0.28798  -0.26427  -0.25969
 Alpha  occ. eigenvalues --   -0.25398  -0.25128  -0.24768  -0.24584  -0.20869
 Alpha  occ. eigenvalues --   -0.18816
 Alpha virt. eigenvalues --   -0.11187  -0.05715  -0.03649  -0.02133  -0.01217
 Alpha virt. eigenvalues --   -0.00883   0.00656   0.00792   0.01059   0.02768
 Alpha virt. eigenvalues --    0.03870   0.04265   0.05001   0.05139   0.05531

 Mulliken charges:
               1
     1  Mg   0.954628
     2  C   -0.050557
     3  C   -0.101751
     4  C   -0.025603
     5  C   -0.074019
     6  N   -0.381353
     7  C    0.037108
     8  C   -0.092910
     9  C   -0.163646
    10  C    0.132256
    11  C    0.022969
    12  C   -0.007704
    13  C   -0.049515
    14  C    0.247471
    15  O   -0.219207
    16  O   -0.394151
    17  N   -0.536961
    18  C    0.189503
    19  C   -0.154419
    20  C   -0.055422
    21  C    0.119631
    22  C    0.052055
    23  C    0.010048
    24  O   -0.249852
    25  C    0.000672
    26  N   -0.396541
    27  C    0.067727
    28  C   -0.095099
    29  C   -0.077551
    30  C    0.072357
    31  C    0.014451
    32  C   -0.040400
    33  C   -0.062255
    34  N   -0.441530
    35  C    0.180364
    36  C   -0.192783
    37  C   -0.086260
    38  C    0.161064
    39  C    0.021624
    40  C    0.163393
    41  O   -0.206623
    42  C   -0.053155
    43  C    0.261876
    44  O   -0.214434
    45  O   -0.358706
    46  C    0.114004
    47  C    0.236957
    48  C   -0.153214
    49  C   -0.212553
    50  C    0.020301
    51  C    0.016608
    52  C   -0.064332
    53  C   -0.006939
    54  C   -0.239954
    55  C    0.000187
    56  C    0.037297
    57  C   -0.070280
    58  C    0.010733
    59  C   -0.238827
    60  C   -0.026198
    61  C   -0.022516
    62  C   -0.066942
    63  C    0.013304
    64  C   -0.256382
    65  C   -0.006904
    66  C   -0.023531
    67  H   -0.006103
    68  H    0.034171
    69  H    0.008291
    70  H    0.029154
    71  H    0.052467
    72  H    0.040673
    73  H    0.045042
    74  H    0.038569
    75  H    0.034565
    76  H    0.086711
    77  H    0.068583
    78  H    0.076121
    79  H    0.056394
    80  H    0.037723
    81  H    0.051846
    82  H    0.042856
    83  H    0.045725
    84  H    0.067206
    85  H    0.055023
    86  H    0.032456
    87  H    0.033794
    88  H    0.057683
    89  H    0.046877
    90  H    0.031445
    91  H    0.031561
    92  H    0.044701
    93  H    0.054923
    94  H    0.050677
    95  H    0.061617
    96  H    0.060681
    97  H    0.047046
    98  H    0.088560
    99  H    0.081237
   100  H    0.059376
   101  H    0.047158
   102  H    0.050067
   103  H    0.053603
   104  H    0.032396
   105  H    0.043167
   106  H    0.044929
   107  H    0.052554
   108  H    0.028044
   109  H    0.039768
   110  H    0.027285
   111  H    0.035776
   112  H    0.031426
   113  H    0.032948
   114  H    0.044402
   115  H    0.040055
   116  H    0.022829
   117  H    0.026727
   118  H    0.033545
   119  H    0.022670
   120  H    0.021881
   121  H    0.028344
   122  H    0.017836
   123  H    0.027337
   124  H    0.035715
   125  H    0.028298
   126  H    0.030398
   127  H    0.054069
   128  H    0.023227
   129  H    0.031735
   130  H    0.022643
   131  H    0.019135
   132  H    0.022140
   133  H    0.021774
   134  H    0.037296
   135  H    0.033299
   136  H    0.039876
   137  H    0.046278
   138  H    0.038833
   139  H    0.038446
   140  H    0.036826
 Sum of Mulliken charges =  -0.00000

 Dipole moment (field-independent basis, Debye):
    X=             -3.7144    Y=              3.3193    Z=             -0.3486  Tot=              4.9936
 Quadrupole moment (field-independent basis, Debye-Ang):
   XX=           -379.6985   YY=           -430.7972   ZZ=           -402.8696
   XY=             14.3205   XZ=             22.8428   YZ=              0.8381

 Normal termination of Gaussian 16 at Wed May  4 07:26:38 2022.
