 Gaussian 16, Revision A.03,
 Gaussian 16:  ES64L-G16RevA.03 25-Dec-2016

 --------------------------------
 #p wB97XD/Def2SVP td=(nstates=5)
 --------------------------------

 -----------------------------------------------------
 step_1501_chromophore_10 TDDFT with wB97XD functional
 -----------------------------------------------------
 Symbolic Z-matrix:
 Charge =  0 Multiplicity = 1

                         Standard orientation:
 ---------------------------------------------------------------------
 Center     Atomic      Atomic             Coordinates (Angstroms)
 Number     Number       Type             X           Y           Z
 ---------------------------------------------------------------------
      1         12           0        5.778939    0.706498    0.227962
      2          6           0        3.881676   -2.443676    0.178786
      3          6           0        3.211817    2.162952   -1.379739
      4          6           0        7.802188    3.314900   -0.271238
      5          6           0        8.571331   -1.312794    1.235770
      6          7           0        3.880502   -0.132229   -0.575883
      7          6           0        3.217478   -1.298141   -0.355181
      8          6           0        1.749126   -1.185909   -0.684236
      9          6           0        1.635634    0.247395   -1.306716
     10          6           0        3.025204    0.820709   -1.127318
     11          6           0        1.036424    0.435890   -2.665769
     12          6           0        0.861102   -1.445678    0.565707
     13          6           0       -0.573470   -0.828378    0.435697
     14          6           0       -1.634649   -1.678737    1.102859
     15          8           0       -1.451029   -2.525328    1.939117
     16          8           0       -2.883031   -1.357810    0.489654
     17          7           0        5.439378    2.577712   -0.471436
     18          6           0        4.316978    2.991131   -1.149036
     19          6           0        4.455110    4.360569   -1.461732
     20          6           0        5.770829    4.776866   -1.070979
     21          6           0        6.404374    3.565446   -0.584305
     22          6           0        3.297910    5.149662   -2.013253
     23          6           0        6.476216    6.023473   -1.173991
     24          8           0        7.652459    6.156231   -0.879825
     25          6           0        5.760225    7.209022   -1.575481
     26          7           0        7.915429    0.906028    0.350847
     27          6           0        8.540122    2.116425    0.156028
     28          6           0       10.012063    2.124647    0.624721
     29          6           0       10.038901    0.774934    1.454838
     30          6           0        8.778620    0.045823    1.041696
     31          6           0       11.037565    2.220647   -0.582495
     32          6           0       10.067647    0.869276    3.011674
     33          6           0        8.956344    1.588097    3.692838
     34          7           0        6.173856   -1.423285    0.545253
     35          6           0        7.405880   -1.965933    0.984064
     36          6           0        7.117813   -3.402165    1.190290
     37          6           0        5.757506   -3.631332    0.838269
     38          6           0        5.239121   -2.386009    0.564866
     39          6           0        8.147263   -4.446522    1.546069
     40          6           0        4.619311   -4.627752    0.813810
     41          8           0        4.577412   -5.779525    1.209257
     42          6           0        3.391259   -3.856249    0.398012
     43          6           0        2.747819   -4.370621   -0.782506
     44          8           0        3.286105   -4.477652   -1.845957
     45          8           0        1.444575   -4.555511   -0.462494
     46          6           0        0.518994   -4.641250   -1.587732
     47          6           0       -3.749403   -2.507031    0.580773
     48          6           0       -4.645906   -2.513398   -0.575775
     49          6           0       -5.730179   -3.288798   -0.873561
     50          6           0       -6.047887   -4.611278   -0.142779
     51          6           0       -6.534532   -2.975081   -2.128012
     52          6           0       -7.996789   -2.514514   -1.789502
     53          6           0       -8.155825   -0.949905   -1.465719
     54          6           0       -9.206068   -0.209098   -2.292504
     55          6           0       -8.980078   -0.135076   -3.824176
     56          6           0       -9.417336    1.208440   -1.653503
     57          6           0      -10.385854    1.084879   -0.493606
     58          6           0      -11.771619    1.689082   -0.720462
     59          6           0      -12.915781    0.836569   -0.091434
     60          6           0      -13.250674   -0.451105   -0.971813
     61          6           0      -14.261184    1.636454    0.043398
     62          6           0      -14.673776    1.896910    1.574035
     63          6           0      -13.876999    3.095319    2.126232
     64          6           0      -13.059586    2.792175    3.447881
     65          6           0      -13.914178    3.070834    4.744898
     66          6           0      -11.745851    3.554290    3.493573
     67          1           0        2.413596    2.629481   -1.961746
     68          1           0        8.395856    4.224730   -0.380724
     69          1           0        9.363034   -1.937765    1.653434
     70          1           0        1.404319   -1.969548   -1.358880
     71          1           0        0.977978    0.887025   -0.717195
     72          1           0        0.852299   -0.555350   -3.080265
     73          1           0        1.786372    0.984370   -3.234691
     74          1           0        0.148022    1.063514   -2.732089
     75          1           0        1.391706   -0.842768    1.301564
     76          1           0        0.898829   -2.504712    0.819298
     77          1           0       -0.904065   -0.498820   -0.549280
     78          1           0       -0.446511    0.069678    1.040910
     79          1           0        3.153059    6.137282   -1.576796
     80          1           0        2.326785    4.660247   -2.086488
     81          1           0        3.524038    5.234545   -3.076293
     82          1           0        5.382168    7.056675   -2.586407
     83          1           0        6.361477    8.094161   -1.782291
     84          1           0        4.928306    7.327028   -0.882680
     85          1           0       10.247875    2.952512    1.293871
     86          1           0       10.860183    0.118816    1.165225
     87          1           0       11.465283    1.230013   -0.741600
     88          1           0       11.842575    2.955549   -0.585440
     89          1           0       10.444464    2.387239   -1.482018
     90          1           0       11.004700    1.339351    3.308864
     91          1           0       10.213504   -0.102124    3.484425
     92          1           0        8.592128    0.913658    4.467749
     93          1           0        8.151584    1.728958    2.970766
     94          1           0        9.239661    2.563045    4.088239
     95          1           0        8.555078   -5.065539    0.747391
     96          1           0        7.437437   -5.166685    1.954425
     97          1           0        8.984427   -4.213941    2.204408
     98          1           0        2.741287   -4.015490    1.258319
     99          1           0        0.137002   -5.655834   -1.699499
    100          1           0        0.916083   -4.239646   -2.519811
    101          1           0       -0.237000   -3.864898   -1.474968
    102          1           0       -4.217824   -2.461110    1.563296
    103          1           0       -3.318227   -3.508471    0.570081
    104          1           0       -4.591781   -1.570958   -1.120248
    105          1           0       -5.185990   -4.960560    0.426128
    106          1           0       -6.450503   -5.356719   -0.829594
    107          1           0       -6.829343   -4.424784    0.593472
    108          1           0       -6.706940   -3.958035   -2.565747
    109          1           0       -6.077863   -2.237186   -2.787211
    110          1           0       -8.284945   -3.018923   -0.867210
    111          1           0       -8.574387   -2.881419   -2.638451
    112          1           0       -7.183579   -0.492164   -1.646251
    113          1           0       -8.437118   -0.901310   -0.413972
    114          1           0      -10.105818   -0.821960   -2.240154
    115          1           0       -9.239726    0.792703   -4.335643
    116          1           0       -9.655564   -0.883942   -4.239752
    117          1           0       -7.986334   -0.498121   -4.085041
    118          1           0       -9.587448    2.042016   -2.334487
    119          1           0       -8.519343    1.347282   -1.051359
    120          1           0       -9.926709    1.527112    0.390337
    121          1           0      -10.596831    0.078229   -0.132956
    122          1           0      -12.008127    1.718130   -1.784122
    123          1           0      -11.784233    2.733529   -0.407965
    124          1           0      -12.615787    0.537312    0.912715
    125          1           0      -13.635939   -1.128355   -0.208947
    126          1           0      -12.336088   -0.958266   -1.280898
    127          1           0      -14.014266   -0.317054   -1.738167
    128          1           0      -15.082950    1.063311   -0.385044
    129          1           0      -14.067557    2.558524   -0.504311
    130          1           0      -14.640035    0.942732    2.099542
    131          1           0      -15.754600    2.037433    1.596979
    132          1           0      -14.609311    3.874313    2.339962
    133          1           0      -13.313917    3.484137    1.279010
    134          1           0      -12.878958    1.721174    3.355083
    135          1           0      -13.262580    3.538015    5.482480
    136          1           0      -14.114313    2.044156    5.051591
    137          1           0      -14.797132    3.670552    4.523306
    138          1           0      -11.951308    4.619630    3.590896
    139          1           0      -11.136270    3.371966    2.608205
    140          1           0      -11.230604    3.175203    4.376317
 ---------------------------------------------------------------------

 SCF Done:  E(RwB97XD) =  -3007.84557063     A.U. after   19 cycles

 Excitation energies and oscillator strengths:

 Excited State   1:      Singlet-A      1.6311 eV  760.12 nm  f=0.3567  <S**2>=0.000
     245 -> 248       -0.19636
     246 -> 247        0.68065
     245 <- 248       -0.11974
 This state for optimization and/or second-order correction.
 Total Energy, E(TD-HF/TD-DFT) =  -3007.78562835
 Copying the excited state density for this state as the 1-particle RhoCI density.

 Excited State   2:      Singlet-A      2.1195 eV  584.97 nm  f=0.0922  <S**2>=0.000
     245 -> 247        0.63214
     246 -> 248        0.30091

 Excited State   3:      Singlet-A      3.2161 eV  385.52 nm  f=0.0026  <S**2>=0.000
     243 -> 247        0.68467

 Excited State   4:      Singlet-A      3.3988 eV  364.78 nm  f=0.3601  <S**2>=0.000
     242 -> 247       -0.38584
     245 -> 247       -0.21312
     246 -> 248        0.53301

 Excited State   5:      Singlet-A      3.5412 eV  350.12 nm  f=0.0018  <S**2>=0.000
     241 -> 247        0.55222
     241 -> 248        0.19360
     241 -> 249        0.27084
     241 -> 250       -0.23986

 The electronic state is 1-A.
 Alpha  occ. eigenvalues --  -46.95275 -19.31425 -19.30326 -19.26805 -19.25151
 Alpha  occ. eigenvalues --  -19.24578 -19.22530 -14.47091 -14.46763 -14.43991
 Alpha  occ. eigenvalues --  -14.43346 -10.44277 -10.43086 -10.39478 -10.37295
 Alpha  occ. eigenvalues --  -10.36235 -10.35703 -10.35673 -10.35362 -10.35065
 Alpha  occ. eigenvalues --  -10.34643 -10.34283 -10.33717 -10.33192 -10.32854
 Alpha  occ. eigenvalues --  -10.32687 -10.32543 -10.32448 -10.32367 -10.32361
 Alpha  occ. eigenvalues --  -10.32183 -10.31910 -10.31566 -10.31543 -10.31508
 Alpha  occ. eigenvalues --  -10.31444 -10.31080 -10.30989 -10.30977 -10.30717
 Alpha  occ. eigenvalues --  -10.30503 -10.30335 -10.30168 -10.30105 -10.30040
 Alpha  occ. eigenvalues --  -10.29828 -10.29773 -10.29752 -10.29681 -10.29639
 Alpha  occ. eigenvalues --  -10.29617 -10.29420 -10.29377 -10.29357 -10.28951
 Alpha  occ. eigenvalues --  -10.28916 -10.28797 -10.28688 -10.28627 -10.28568
 Alpha  occ. eigenvalues --  -10.28474 -10.28436 -10.28332 -10.28285 -10.28277
 Alpha  occ. eigenvalues --  -10.28131  -3.21203  -1.94773  -1.94342  -1.94150
 Alpha  occ. eigenvalues --   -1.20259  -1.18975  -1.12796  -1.11992  -1.11934
 Alpha  occ. eigenvalues --   -1.11850  -1.05846  -1.04855  -1.04769  -1.03894
 Alpha  occ. eigenvalues --   -0.95272  -0.92340  -0.92030  -0.91307  -0.90969
 Alpha  occ. eigenvalues --   -0.90554  -0.90167  -0.89649  -0.89385  -0.88728
 Alpha  occ. eigenvalues --   -0.88012  -0.87666  -0.86507  -0.86137  -0.85432
 Alpha  occ. eigenvalues --   -0.84808  -0.84397  -0.83709  -0.82718  -0.82293
 Alpha  occ. eigenvalues --   -0.81631  -0.80679  -0.80369  -0.79805  -0.78859
 Alpha  occ. eigenvalues --   -0.77931  -0.77030  -0.77004  -0.76819  -0.75550
 Alpha  occ. eigenvalues --   -0.75168  -0.74320  -0.74008  -0.72851  -0.71556
 Alpha  occ. eigenvalues --   -0.70796  -0.70134  -0.69688  -0.68371  -0.67604
 Alpha  occ. eigenvalues --   -0.67212  -0.66688  -0.66626  -0.66244  -0.65667
 Alpha  occ. eigenvalues --   -0.65132  -0.64911  -0.64704  -0.64259  -0.62542
 Alpha  occ. eigenvalues --   -0.62324  -0.61829  -0.61652  -0.60877  -0.60506
 Alpha  occ. eigenvalues --   -0.60078  -0.59565  -0.58665  -0.58286  -0.58009
 Alpha  occ. eigenvalues --   -0.57760  -0.57288  -0.57137  -0.56809  -0.56578
 Alpha  occ. eigenvalues --   -0.55934  -0.55659  -0.55518  -0.55345  -0.55221
 Alpha  occ. eigenvalues --   -0.55016  -0.54768  -0.54380  -0.54233  -0.53897
 Alpha  occ. eigenvalues --   -0.53648  -0.53551  -0.52865  -0.52768  -0.52505
 Alpha  occ. eigenvalues --   -0.52330  -0.52286  -0.52068  -0.51815  -0.51667
 Alpha  occ. eigenvalues --   -0.51436  -0.51174  -0.51076  -0.50897  -0.50826
 Alpha  occ. eigenvalues --   -0.50706  -0.50257  -0.50221  -0.50110  -0.49763
 Alpha  occ. eigenvalues --   -0.49296  -0.49259  -0.49003  -0.48677  -0.48570
 Alpha  occ. eigenvalues --   -0.48421  -0.48199  -0.48192  -0.48047  -0.47887
 Alpha  occ. eigenvalues --   -0.47716  -0.47400  -0.47127  -0.46988  -0.46694
 Alpha  occ. eigenvalues --   -0.46552  -0.46419  -0.46140  -0.46108  -0.45947
 Alpha  occ. eigenvalues --   -0.45864  -0.45544  -0.45326  -0.45269  -0.45156
 Alpha  occ. eigenvalues --   -0.44982  -0.44882  -0.44675  -0.44563  -0.44260
 Alpha  occ. eigenvalues --   -0.43904  -0.43473  -0.43244  -0.43109  -0.43010
 Alpha  occ. eigenvalues --   -0.42863  -0.42656  -0.42609  -0.42579  -0.42215
 Alpha  occ. eigenvalues --   -0.41794  -0.41752  -0.41574  -0.41033  -0.41011
 Alpha  occ. eigenvalues --   -0.40413  -0.40039  -0.39882  -0.39608  -0.39507
 Alpha  occ. eigenvalues --   -0.39247  -0.39082  -0.38829  -0.38756  -0.38719
 Alpha  occ. eigenvalues --   -0.38005  -0.37562  -0.37239  -0.37051  -0.36866
 Alpha  occ. eigenvalues --   -0.35866  -0.35694  -0.35611  -0.33378  -0.32729
 Alpha  occ. eigenvalues --   -0.32219  -0.31829  -0.31437  -0.31292  -0.25840
 Alpha  occ. eigenvalues --   -0.22998
 Alpha virt. eigenvalues --   -0.07074  -0.00318   0.02602   0.04382   0.04716
 Alpha virt. eigenvalues --    0.05970   0.07315   0.07561   0.07804   0.09375
 Alpha virt. eigenvalues --    0.10648   0.11035   0.11400   0.11858   0.12304

 Mulliken charges:
               1
     1  Mg   0.945064
     2  C   -0.061721
     3  C   -0.118668
     4  C   -0.036884
     5  C   -0.095071
     6  N   -0.347694
     7  C    0.007772
     8  C   -0.057153
     9  C   -0.136834
    10  C    0.124156
    11  C    0.032139
    12  C    0.008107
    13  C   -0.030194
    14  C    0.238573
    15  O   -0.217105
    16  O   -0.393890
    17  N   -0.506276
    18  C    0.178800
    19  C   -0.143154
    20  C   -0.048315
    21  C    0.106523
    22  C    0.061089
    23  C    0.008706
    24  O   -0.244782
    25  C    0.010210
    26  N   -0.366278
    27  C    0.055578
    28  C   -0.076092
    29  C   -0.048717
    30  C    0.063035
    31  C    0.024288
    32  C   -0.030761
    33  C   -0.041584
    34  N   -0.405434
    35  C    0.176556
    36  C   -0.184495
    37  C   -0.084165
    38  C    0.148919
    39  C    0.030701
    40  C    0.141959
    41  O   -0.195283
    42  C   -0.006902
    43  C    0.235144
    44  O   -0.208546
    45  O   -0.355508
    46  C    0.129122
    47  C    0.250140
    48  C   -0.159181
    49  C   -0.201573
    50  C    0.032347
    51  C    0.039605
    52  C   -0.048820
    53  C    0.006866
    54  C   -0.203426
    55  C    0.009752
    56  C    0.056719
    57  C   -0.052407
    58  C    0.023027
    59  C   -0.209529
    60  C   -0.008507
    61  C   -0.003652
    62  C   -0.051793
    63  C    0.027480
    64  C   -0.224708
    65  C    0.004166
    66  C   -0.006724
    67  H   -0.017659
    68  H    0.030135
    69  H    0.004362
    70  H    0.004625
    71  H    0.037733
    72  H    0.035002
    73  H    0.038054
    74  H    0.034380
    75  H    0.024856
    76  H    0.072571
    77  H    0.061456
    78  H    0.069943
    79  H    0.050781
    80  H    0.033873
    81  H    0.045286
    82  H    0.036376
    83  H    0.044589
    84  H    0.061204
    85  H    0.046695
    86  H    0.023164
    87  H    0.026667
    88  H    0.053533
    89  H    0.040043
    90  H    0.024245
    91  H    0.023709
    92  H    0.039723
    93  H    0.039594
    94  H    0.046792
    95  H    0.058313
    96  H    0.054882
    97  H    0.044068
    98  H    0.083332
    99  H    0.079513
   100  H    0.055958
   101  H    0.041926
   102  H    0.045741
   103  H    0.045571
   104  H    0.027322
   105  H    0.037820
   106  H    0.040293
   107  H    0.046722
   108  H    0.018804
   109  H    0.032611
   110  H    0.017156
   111  H    0.029052
   112  H    0.019287
   113  H    0.024349
   114  H    0.023559
   115  H    0.035570
   116  H    0.017055
   117  H    0.019603
   118  H    0.028211
   119  H    0.011483
   120  H    0.014503
   121  H    0.013919
   122  H    0.006801
   123  H    0.017695
   124  H    0.019710
   125  H    0.020927
   126  H    0.020539
   127  H    0.048705
   128  H    0.015061
   129  H    0.021396
   130  H    0.013011
   131  H    0.012445
   132  H    0.013355
   133  H    0.008110
   134  H    0.023277
   135  H    0.027531
   136  H    0.034170
   137  H    0.040796
   138  H    0.031991
   139  H    0.031239
   140  H    0.030172
 Sum of Mulliken charges =  -0.00000

 Dipole moment (field-independent basis, Debye):
    X=             -3.7193    Y=              3.0291    Z=             -0.2400  Tot=              4.8028
 Quadrupole moment (field-independent basis, Debye-Ang):
   XX=           -379.8067   YY=           -429.6548   ZZ=           -402.4612
   XY=             12.5142   XZ=             23.5242   YZ=              0.9070

 Normal termination of Gaussian 16 at Wed May  4 07:59:03 2022.
