 Gaussian 16, Revision A.03,
 Gaussian 16:  ES64L-G16RevA.03 25-Dec-2016

 --------------------
 #p ZINDO=(nstates=5)
 --------------------

 ------------------------------
 step_1501_chromophore_10 ZINDO
 ------------------------------
 Symbolic Z-matrix:
 Charge =  0 Multiplicity = 1

                         Standard orientation:
 ---------------------------------------------------------------------
 Center     Atomic      Atomic             Coordinates (Angstroms)
 Number     Number       Type             X           Y           Z
 ---------------------------------------------------------------------
      1         12           0        5.778939    0.706498    0.227962
      2          6           0        3.881676   -2.443676    0.178786
      3          6           0        3.211817    2.162952   -1.379739
      4          6           0        7.802188    3.314900   -0.271238
      5          6           0        8.571331   -1.312794    1.235770
      6          7           0        3.880502   -0.132229   -0.575883
      7          6           0        3.217478   -1.298141   -0.355181
      8          6           0        1.749126   -1.185909   -0.684236
      9          6           0        1.635634    0.247395   -1.306716
     10          6           0        3.025204    0.820709   -1.127318
     11          6           0        1.036424    0.435890   -2.665769
     12          6           0        0.861102   -1.445678    0.565707
     13          6           0       -0.573470   -0.828378    0.435697
     14          6           0       -1.634649   -1.678737    1.102859
     15          8           0       -1.451029   -2.525328    1.939117
     16          8           0       -2.883031   -1.357810    0.489654
     17          7           0        5.439378    2.577712   -0.471436
     18          6           0        4.316978    2.991131   -1.149036
     19          6           0        4.455110    4.360569   -1.461732
     20          6           0        5.770829    4.776866   -1.070979
     21          6           0        6.404374    3.565446   -0.584305
     22          6           0        3.297910    5.149662   -2.013253
     23          6           0        6.476216    6.023473   -1.173991
     24          8           0        7.652459    6.156231   -0.879825
     25          6           0        5.760225    7.209022   -1.575481
     26          7           0        7.915429    0.906028    0.350847
     27          6           0        8.540122    2.116425    0.156028
     28          6           0       10.012063    2.124647    0.624721
     29          6           0       10.038901    0.774934    1.454838
     30          6           0        8.778620    0.045823    1.041696
     31          6           0       11.037565    2.220647   -0.582495
     32          6           0       10.067647    0.869276    3.011674
     33          6           0        8.956344    1.588097    3.692838
     34          7           0        6.173856   -1.423285    0.545253
     35          6           0        7.405880   -1.965933    0.984064
     36          6           0        7.117813   -3.402165    1.190290
     37          6           0        5.757506   -3.631332    0.838269
     38          6           0        5.239121   -2.386009    0.564866
     39          6           0        8.147263   -4.446522    1.546069
     40          6           0        4.619311   -4.627752    0.813810
     41          8           0        4.577412   -5.779525    1.209257
     42          6           0        3.391259   -3.856249    0.398012
     43          6           0        2.747819   -4.370621   -0.782506
     44          8           0        3.286105   -4.477652   -1.845957
     45          8           0        1.444575   -4.555511   -0.462494
     46          6           0        0.518994   -4.641250   -1.587732
     47          6           0       -3.749403   -2.507031    0.580773
     48          6           0       -4.645906   -2.513398   -0.575775
     49          6           0       -5.730179   -3.288798   -0.873561
     50          6           0       -6.047887   -4.611278   -0.142779
     51          6           0       -6.534532   -2.975081   -2.128012
     52          6           0       -7.996789   -2.514514   -1.789502
     53          6           0       -8.155825   -0.949905   -1.465719
     54          6           0       -9.206068   -0.209098   -2.292504
     55          6           0       -8.980078   -0.135076   -3.824176
     56          6           0       -9.417336    1.208440   -1.653503
     57          6           0      -10.385854    1.084879   -0.493606
     58          6           0      -11.771619    1.689082   -0.720462
     59          6           0      -12.915781    0.836569   -0.091434
     60          6           0      -13.250674   -0.451105   -0.971813
     61          6           0      -14.261184    1.636454    0.043398
     62          6           0      -14.673776    1.896910    1.574035
     63          6           0      -13.876999    3.095319    2.126232
     64          6           0      -13.059586    2.792175    3.447881
     65          6           0      -13.914178    3.070834    4.744898
     66          6           0      -11.745851    3.554290    3.493573
     67          1           0        2.413596    2.629481   -1.961746
     68          1           0        8.395856    4.224730   -0.380724
     69          1           0        9.363034   -1.937765    1.653434
     70          1           0        1.404319   -1.969548   -1.358880
     71          1           0        0.977978    0.887025   -0.717195
     72          1           0        0.852299   -0.555350   -3.080265
     73          1           0        1.786372    0.984370   -3.234691
     74          1           0        0.148022    1.063514   -2.732089
     75          1           0        1.391706   -0.842768    1.301564
     76          1           0        0.898829   -2.504712    0.819298
     77          1           0       -0.904065   -0.498820   -0.549280
     78          1           0       -0.446511    0.069678    1.040910
     79          1           0        3.153059    6.137282   -1.576796
     80          1           0        2.326785    4.660247   -2.086488
     81          1           0        3.524038    5.234545   -3.076293
     82          1           0        5.382168    7.056675   -2.586407
     83          1           0        6.361477    8.094161   -1.782291
     84          1           0        4.928306    7.327028   -0.882680
     85          1           0       10.247875    2.952512    1.293871
     86          1           0       10.860183    0.118816    1.165225
     87          1           0       11.465283    1.230013   -0.741600
     88          1           0       11.842575    2.955549   -0.585440
     89          1           0       10.444464    2.387239   -1.482018
     90          1           0       11.004700    1.339351    3.308864
     91          1           0       10.213504   -0.102124    3.484425
     92          1           0        8.592128    0.913658    4.467749
     93          1           0        8.151584    1.728958    2.970766
     94          1           0        9.239661    2.563045    4.088239
     95          1           0        8.555078   -5.065539    0.747391
     96          1           0        7.437437   -5.166685    1.954425
     97          1           0        8.984427   -4.213941    2.204408
     98          1           0        2.741287   -4.015490    1.258319
     99          1           0        0.137002   -5.655834   -1.699499
    100          1           0        0.916083   -4.239646   -2.519811
    101          1           0       -0.237000   -3.864898   -1.474968
    102          1           0       -4.217824   -2.461110    1.563296
    103          1           0       -3.318227   -3.508471    0.570081
    104          1           0       -4.591781   -1.570958   -1.120248
    105          1           0       -5.185990   -4.960560    0.426128
    106          1           0       -6.450503   -5.356719   -0.829594
    107          1           0       -6.829343   -4.424784    0.593472
    108          1           0       -6.706940   -3.958035   -2.565747
    109          1           0       -6.077863   -2.237186   -2.787211
    110          1           0       -8.284945   -3.018923   -0.867210
    111          1           0       -8.574387   -2.881419   -2.638451
    112          1           0       -7.183579   -0.492164   -1.646251
    113          1           0       -8.437118   -0.901310   -0.413972
    114          1           0      -10.105818   -0.821960   -2.240154
    115          1           0       -9.239726    0.792703   -4.335643
    116          1           0       -9.655564   -0.883942   -4.239752
    117          1           0       -7.986334   -0.498121   -4.085041
    118          1           0       -9.587448    2.042016   -2.334487
    119          1           0       -8.519343    1.347282   -1.051359
    120          1           0       -9.926709    1.527112    0.390337
    121          1           0      -10.596831    0.078229   -0.132956
    122          1           0      -12.008127    1.718130   -1.784122
    123          1           0      -11.784233    2.733529   -0.407965
    124          1           0      -12.615787    0.537312    0.912715
    125          1           0      -13.635939   -1.128355   -0.208947
    126          1           0      -12.336088   -0.958266   -1.280898
    127          1           0      -14.014266   -0.317054   -1.738167
    128          1           0      -15.082950    1.063311   -0.385044
    129          1           0      -14.067557    2.558524   -0.504311
    130          1           0      -14.640035    0.942732    2.099542
    131          1           0      -15.754600    2.037433    1.596979
    132          1           0      -14.609311    3.874313    2.339962
    133          1           0      -13.313917    3.484137    1.279010
    134          1           0      -12.878958    1.721174    3.355083
    135          1           0      -13.262580    3.538015    5.482480
    136          1           0      -14.114313    2.044156    5.051591
    137          1           0      -14.797132    3.670552    4.523306
    138          1           0      -11.951308    4.619630    3.590896
    139          1           0      -11.136270    3.371966    2.608205
    140          1           0      -11.230604    3.175203    4.376317
 ---------------------------------------------------------------------

 SCF Done:  E(RZINDO/S) =  -474.419154433     A.U. after   19 cycles

 Excitation energies and oscillator strengths:

 Excited State   1:      Singlet-A      1.2404 eV  999.58 nm  f=0.5705  <S**2>=0.000
     175 ->178        -0.19375
     176 ->177         0.66291
 This state for optimization and/or second-order correction.
 Total Energy, E(CIS/TDA) =  -474.373571806
 Copying the excited state density for this state as the 1-particle RhoCI density.

 Excited State   2:      Singlet-A      1.8665 eV  664.27 nm  f=0.0456  <S**2>=0.000
     175 ->177         0.55217
     176 ->178         0.41669

 Excited State   3:      Singlet-A      2.8614 eV  433.30 nm  f=0.0025  <S**2>=0.000
     170 ->177         0.32184
     170 ->178         0.17130
     170 ->179         0.27869
     170 ->181        -0.27733
     170 ->182         0.25230
     170 ->186         0.19819
     170 ->187         0.22050
     170 ->201        -0.15504

 Excited State   4:      Singlet-A      2.9402 eV  421.69 nm  f=0.8959  <S**2>=0.000
     168 ->177        -0.11949
     168 ->179         0.12241
     174 ->177        -0.11815
     175 ->177        -0.34004
     176 ->178         0.47187
     176 ->179         0.18517
     176 ->181        -0.13354

 Excited State   5:      Singlet-A      3.0166 eV  411.01 nm  f=0.1001  <S**2>=0.000
     167 ->179         0.11914
     168 ->177         0.29289
     168 ->179        -0.36645
     168 ->181        -0.19669
     168 ->182         0.12303
     168 ->183         0.11022
     168 ->186        -0.19204
     171 ->177         0.18382
     175 ->177        -0.11429
     176 ->178         0.16124

 The electronic state is 1-A.
 Alpha  occ. eigenvalues --   -1.84498  -1.80616  -1.79590  -1.75173  -1.73696
 Alpha  occ. eigenvalues --   -1.71315  -1.65529  -1.61137  -1.60162  -1.60089
 Alpha  occ. eigenvalues --   -1.54762  -1.51990  -1.49994  -1.48956  -1.46437
 Alpha  occ. eigenvalues --   -1.45707  -1.44604  -1.40941  -1.39065  -1.38344
 Alpha  occ. eigenvalues --   -1.36836  -1.34059  -1.31884  -1.30711  -1.29468
 Alpha  occ. eigenvalues --   -1.27567  -1.24174  -1.22750  -1.21806  -1.19344
 Alpha  occ. eigenvalues --   -1.17942  -1.16992  -1.16418  -1.14667  -1.13794
 Alpha  occ. eigenvalues --   -1.12282  -1.11148  -1.09559  -1.05257  -1.03839
 Alpha  occ. eigenvalues --   -1.03285  -1.00501  -0.99203  -0.98635  -0.97676
 Alpha  occ. eigenvalues --   -0.96069  -0.93799  -0.93024  -0.91859  -0.90945
 Alpha  occ. eigenvalues --   -0.90309  -0.89433  -0.88821  -0.87276  -0.85708
 Alpha  occ. eigenvalues --   -0.85360  -0.85025  -0.84054  -0.82706  -0.80175
 Alpha  occ. eigenvalues --   -0.79985  -0.79938  -0.77961  -0.77041  -0.77032
 Alpha  occ. eigenvalues --   -0.76229  -0.75803  -0.74979  -0.74408  -0.74218
 Alpha  occ. eigenvalues --   -0.73827  -0.72348  -0.71946  -0.71145  -0.69821
 Alpha  occ. eigenvalues --   -0.69706  -0.69100  -0.68752  -0.68256  -0.68057
 Alpha  occ. eigenvalues --   -0.67385  -0.67176  -0.66702  -0.66482  -0.66249
 Alpha  occ. eigenvalues --   -0.65415  -0.64918  -0.64753  -0.64545  -0.63544
 Alpha  occ. eigenvalues --   -0.63523  -0.62955  -0.62846  -0.62378  -0.61525
 Alpha  occ. eigenvalues --   -0.61250  -0.61023  -0.60901  -0.60485  -0.59550
 Alpha  occ. eigenvalues --   -0.59525  -0.59106  -0.59068  -0.58483  -0.58129
 Alpha  occ. eigenvalues --   -0.57678  -0.57401  -0.56815  -0.56757  -0.56195
 Alpha  occ. eigenvalues --   -0.55714  -0.55462  -0.55302  -0.54976  -0.54709
 Alpha  occ. eigenvalues --   -0.54191  -0.53801  -0.53296  -0.53222  -0.52990
 Alpha  occ. eigenvalues --   -0.52930  -0.52512  -0.52103  -0.51651  -0.51502
 Alpha  occ. eigenvalues --   -0.51112  -0.50651  -0.50443  -0.50375  -0.50177
 Alpha  occ. eigenvalues --   -0.49769  -0.49673  -0.49509  -0.49297  -0.48984
 Alpha  occ. eigenvalues --   -0.48858  -0.48462  -0.48391  -0.47970  -0.47601
 Alpha  occ. eigenvalues --   -0.47335  -0.47039  -0.46688  -0.46503  -0.46435
 Alpha  occ. eigenvalues --   -0.46382  -0.45848  -0.45649  -0.45597  -0.45445
 Alpha  occ. eigenvalues --   -0.45248  -0.44907  -0.44586  -0.44448  -0.43976
 Alpha  occ. eigenvalues --   -0.43703  -0.43262  -0.43124  -0.42801  -0.42571
 Alpha  occ. eigenvalues --   -0.42282  -0.42057  -0.41508  -0.39701  -0.39084
 Alpha  occ. eigenvalues --   -0.38308  -0.37131  -0.35629  -0.35138  -0.33399
 Alpha  occ. eigenvalues --   -0.33085  -0.31924  -0.31785  -0.31509  -0.26400
 Alpha  occ. eigenvalues --   -0.21724
 Alpha virt. eigenvalues --   -0.08522  -0.02206  -0.00319   0.01402   0.01559
 Alpha virt. eigenvalues --    0.01630   0.02499   0.02847   0.04305   0.04840
 Alpha virt. eigenvalues --    0.06325   0.07016   0.07720   0.08172   0.08422

 Mulliken charges:
               1
     1  Mg   0.429238
     2  C   -0.065236
     3  C   -0.072350
     4  C   -0.066234
     5  C   -0.047528
     6  N   -0.292315
     7  C    0.160594
     8  C    0.001741
     9  C   -0.000391
    10  C    0.105533
    11  C   -0.050583
    12  C   -0.027967
    13  C   -0.001103
    14  C    0.465419
    15  O   -0.495525
    16  O   -0.283577
    17  N   -0.324067
    18  C    0.091230
    19  C   -0.002396
    20  C   -0.054467
    21  C    0.122822
    22  C   -0.047664
    23  C    0.339750
    24  O   -0.552000
    25  C   -0.030020
    26  N   -0.275402
    27  C    0.113565
    28  C    0.014424
    29  C    0.008870
    30  C    0.148696
    31  C   -0.055350
    32  C   -0.021135
    33  C   -0.049693
    34  N   -0.353103
    35  C    0.112023
    36  C    0.047536
    37  C   -0.050977
    38  C    0.146221
    39  C   -0.054793
    40  C    0.344648
    41  O   -0.507616
    42  C    0.067114
    43  C    0.506399
    44  O   -0.521546
    45  O   -0.267381
    46  C    0.067685
    47  C    0.112039
    48  C   -0.096206
    49  C   -0.015521
    50  C   -0.043514
    51  C   -0.024322
    52  C   -0.047064
    53  C   -0.030669
    54  C   -0.008387
    55  C   -0.062774
    56  C   -0.038780
    57  C   -0.034923
    58  C   -0.034879
    59  C   -0.019340
    60  C   -0.065092
    61  C   -0.047614
    62  C   -0.044328
    63  C   -0.037008
    64  C   -0.016601
    65  C   -0.062695
    66  C   -0.051781
    67  H    0.022861
    68  H    0.051368
    69  H    0.033577
    70  H    0.033004
    71  H    0.021327
    72  H    0.020987
    73  H    0.023389
    74  H    0.020548
    75  H    0.022878
    76  H    0.045298
    77  H    0.047613
    78  H    0.045821
    79  H    0.028412
    80  H    0.022789
    81  H    0.023522
    82  H    0.025211
    83  H    0.036135
    84  H    0.040846
    85  H    0.035004
    86  H    0.024104
    87  H    0.015615
    88  H    0.034409
    89  H    0.022720
    90  H    0.007483
    91  H    0.017022
    92  H    0.018930
    93  H    0.024700
    94  H    0.026578
    95  H    0.039549
    96  H    0.030727
    97  H    0.033641
    98  H    0.059125
    99  H    0.052973
   100  H    0.042581
   101  H    0.028699
   102  H    0.046812
   103  H    0.049729
   104  H    0.020602
   105  H    0.027289
   106  H    0.027699
   107  H    0.027274
   108  H    0.020567
   109  H    0.032992
   110  H    0.019974
   111  H    0.023486
   112  H    0.023239
   113  H    0.022456
   114  H    0.018349
   115  H    0.026753
   116  H    0.008195
   117  H    0.018539
   118  H    0.035903
   119  H    0.014837
   120  H    0.008237
   121  H    0.020931
   122  H    0.012577
   123  H    0.017383
   124  H    0.023604
   125  H    0.007910
   126  H    0.018606
   127  H    0.035171
   128  H    0.016530
   129  H    0.024527
   130  H    0.022366
   131  H    0.009014
   132  H    0.012316
   133  H    0.024269
   134  H    0.020165
   135  H    0.022080
   136  H    0.021201
   137  H    0.032147
   138  H    0.021807
   139  H    0.016122
   140  H    0.015271
 Sum of Mulliken charges =  -0.00000

 Dipole moment (field-independent basis, Debye):
    X=             -5.1073    Y=              2.6217    Z=              0.2782  Tot=              5.7476
 N-N= 4.280332874281D+03 E-N= 0.000000000000D+00  KE=-9.234941600708D+03
 Leave Link  601 at Wed May  4 08:12:25 2022, MaxMem=  6710886400 cpu:               0.8 elap:               0.0
 (Enter /sw/apps/gaussian-16.0/g16/l9999.exe)
 1\1\GINC-BP1-COMPUTE069\SP\RZINDO CIS\STO-3G\C55H74Mg1N4O6\OF15641\04-
 May-2022\0\\#p ZINDO=(nstates=5)\\step_1501_chromophore_10 ZINDO\\0,1\
 Mg,0,40.548,8.168,29.499\C,0,42.824,9.631,31.99\C,0,38.676,7.006,32.03
 7\C,0,38.924,6.336,27.229\C,0,43.135,8.892,27.117\N,0,40.849,8.242,31.
 703\C,0,41.656,8.989,32.502\C,0,41.129,9.08,33.913\C,0,39.898,8.111,33
 .893\C,0,39.798,7.698,32.44\C,0,39.8,6.993,34.884\C,0,40.818,10.55,34.
 314\C,0,39.797,10.658,35.498\C,0,40.09,11.829,36.413\O,0,40.761,12.793

 Normal termination of Gaussian 16 at Wed May  4 08:12:25 2022.
