 Gaussian 16, Revision A.03,
 Gaussian 16:  ES64L-G16RevA.03 25-Dec-2016

 ------------------------------
 #p blyp/Def2SVP td=(nstates=5)
 ------------------------------

 --------------------------------------------------
 step_1751_chromophore_1 TDDFT with blyp functional
 --------------------------------------------------
 Symbolic Z-matrix:
 Charge =  0 Multiplicity = 1

                         Standard orientation:
 ---------------------------------------------------------------------
 Center     Atomic      Atomic             Coordinates (Angstroms)
 Number     Number       Type             X           Y           Z
 ---------------------------------------------------------------------
      1         12           0        6.080118    0.549182   -0.320643
      2          6           0        3.828140   -2.152111   -0.602193
      3          6           0        3.666135    2.644713   -1.433932
      4          6           0        8.256658    3.004426    0.252184
      5          6           0        8.615353   -1.836372    0.451276
      6          7           0        4.025895    0.252175   -1.041363
      7          6           0        3.299645   -0.901725   -0.995094
      8          6           0        1.937675   -0.739680   -1.717271
      9          6           0        1.873292    0.851113   -2.015063
     10          6           0        3.246168    1.295902   -1.461097
     11          6           0        1.724285    1.176616   -3.520115
     12          6           0        0.883550   -1.276396   -0.739178
     13          6           0       -0.619620   -0.904487   -1.176665
     14          6           0       -1.691773   -1.955330   -0.752955
     15          8           0       -1.805395   -3.058832   -1.278082
     16          8           0       -2.593978   -1.454507    0.143629
     17          7           0        5.976427    2.608236   -0.612943
     18          6           0        4.859733    3.276230   -0.951197
     19          6           0        5.045794    4.712882   -0.729769
     20          6           0        6.383724    4.853377   -0.202182
     21          6           0        6.953204    3.467602   -0.174504
     22          6           0        3.967091    5.779050   -0.995914
     23          6           0        7.040366    6.120140    0.363746
     24          8           0        8.183126    6.090322    0.745064
     25          6           0        6.235120    7.324168    0.577910
     26          7           0        8.120250    0.577125    0.281922
     27          6           0        8.798263    1.752339    0.330425
     28          6           0       10.250950    1.447438    0.598610
     29          6           0       10.325780   -0.079047    0.921042
     30          6           0        8.939624   -0.531405    0.553413
     31          6           0       11.240977    1.970722   -0.452147
     32          6           0       10.659874   -0.554750    2.417794
     33          6           0        9.422450   -0.559745    3.390962
     34          7           0        6.267150   -1.479216   -0.165600
     35          6           0        7.336776   -2.336487    0.181177
     36          6           0        6.895477   -3.687207    0.212032
     37          6           0        5.516806   -3.665194   -0.082735
     38          6           0        5.166336   -2.342968   -0.314524
     39          6           0        7.759894   -4.890734    0.515848
     40          6           0        4.353880   -4.547765   -0.155802
     41          8           0        4.167346   -5.711863   -0.102922
     42          6           0        3.262557   -3.516814   -0.510150
     43          6           0        2.348310   -3.590982    0.642229
     44          8           0        2.356029   -2.773386    1.598622
     45          8           0        1.511248   -4.648674    0.610283
     46          6           0        0.498567   -4.739124    1.688293
     47          6           0       -3.659978   -2.340938    0.674823
     48          6           0       -5.008845   -2.036961   -0.023509
     49          6           0       -5.946758   -2.895761   -0.491919
     50          6           0       -6.029450   -4.346825   -0.068697
     51          6           0       -7.009255   -2.405477   -1.478194
     52          6           0       -8.099557   -1.635725   -0.758117
     53          6           0       -7.932993   -0.106674   -0.835233
     54          6           0       -9.293985    0.592932   -0.481654
     55          6           0       -9.995287    1.200761   -1.725508
     56          6           0       -9.083075    1.686432    0.582688
     57          6           0      -10.280610    2.641018    0.949119
     58          6           0      -10.758703    2.152679    2.292399
     59          6           0      -12.305393    2.326558    2.367468
     60          6           0      -12.812404    2.874403    3.671549
     61          6           0      -13.031565    0.958972    1.996754
     62          6           0      -14.584768    1.005216    1.698872
     63          6           0      -15.119487    0.226561    0.469187
     64          6           0      -15.217248    1.102718   -0.839181
     65          6           0      -16.386674    0.764894   -1.654520
     66          6           0      -13.976823    0.956675   -1.719422
     67          1           0        2.868687    3.294607   -1.800409
     68          1           0        8.892647    3.837448    0.557706
     69          1           0        9.378459   -2.562353    0.735611
     70          1           0        1.936112   -1.377843   -2.601327
     71          1           0        1.079450    1.306867   -1.424951
     72          1           0        2.608559    1.679732   -3.909865
     73          1           0        0.829613    1.781321   -3.670049
     74          1           0        1.423185    0.285699   -4.071962
     75          1           0        1.050290   -0.922921    0.278486
     76          1           0        0.782345   -2.358017   -0.828805
     77          1           0       -0.766951   -0.538217   -2.192824
     78          1           0       -0.798934    0.041137   -0.663728
     79          1           0        3.044445    5.372348   -1.410654
     80          1           0        4.365155    6.497248   -1.713241
     81          1           0        3.646571    6.407265   -0.164988
     82          1           0        5.464073    7.043005    1.294895
     83          1           0        5.741247    7.590489   -0.356831
     84          1           0        6.623164    8.295383    0.885600
     85          1           0       10.444663    1.901104    1.570698
     86          1           0       11.013808   -0.609769    0.263999
     87          1           0       10.767952    2.867136   -0.853815
     88          1           0       11.285830    1.333279   -1.336091
     89          1           0       12.246707    2.090941   -0.048795
     90          1           0       11.392963    0.141594    2.824493
     91          1           0       11.098133   -1.552506    2.423717
     92          1           0        8.790663    0.313177    3.230581
     93          1           0        9.715894   -0.480735    4.438283
     94          1           0        8.934803   -1.509625    3.170795
     95          1           0        7.067947   -5.726526    0.409379
     96          1           0        8.152724   -4.816388    1.530200
     97          1           0        8.612884   -5.048395   -0.144879
     98          1           0        2.744889   -3.920005   -1.380429
     99          1           0       -0.281849   -4.047647    1.370915
    100          1           0        0.885612   -4.327542    2.620873
    101          1           0       -0.116715   -5.627608    1.826357
    102          1           0       -3.760532   -2.209605    1.751673
    103          1           0       -3.418870   -3.356858    0.361109
    104          1           0       -5.193736   -1.014233   -0.353812
    105          1           0       -7.004555   -4.549819    0.375370
    106          1           0       -5.226950   -4.539839    0.643129
    107          1           0       -5.992712   -4.966107   -0.965023
    108          1           0       -7.488308   -3.251494   -1.971205
    109          1           0       -6.601698   -1.736033   -2.236018
    110          1           0       -8.214553   -1.944140    0.281181
    111          1           0       -9.001319   -2.046523   -1.212418
    112          1           0       -7.730726    0.004480   -1.900023
    113          1           0       -7.077776    0.331573   -0.321719
    114          1           0       -9.972262   -0.118179   -0.010585
    115          1           0      -10.072336    2.287964   -1.761627
    116          1           0      -10.977035    0.730093   -1.682834
    117          1           0       -9.580568    0.775214   -2.638555
    118          1           0       -8.336443    2.366209    0.172207
    119          1           0       -8.577677    1.293669    1.464385
    120          1           0      -11.122314    2.504487    0.272047
    121          1           0       -9.915460    3.667733    0.978087
    122          1           0      -10.190539    2.818460    2.941403
    123          1           0      -10.429606    1.181257    2.663363
    124          1           0      -12.743021    3.070852    1.703022
    125          1           0      -11.944456    2.873020    4.331532
    126          1           0      -13.560741    2.195200    4.079629
    127          1           0      -13.305056    3.840960    3.559734
    128          1           0      -12.746949    0.226108    2.750546
    129          1           0      -12.702445    0.732970    0.981916
    130          1           0      -14.922784    2.041351    1.679258
    131          1           0      -15.086405    0.559008    2.556563
    132          1           0      -16.052576   -0.278540    0.718587
    133          1           0      -14.390509   -0.516800    0.144141
    134          1           0      -15.241477    2.161594   -0.584251
    135          1           0      -17.048799    1.630562   -1.642201
    136          1           0      -16.869024   -0.071494   -1.148493
    137          1           0      -16.160939    0.397383   -2.655218
    138          1           0      -13.072048    0.881656   -1.116145
    139          1           0      -13.900501    1.902496   -2.256184
    140          1           0      -14.017026    0.089640   -2.378802
 ---------------------------------------------------------------------

 SCF Done:  E(RB-LYP) =  -3007.36822582     A.U. after   20 cycles

 Excitation energies and oscillator strengths:

 Excited State   1:      Singlet-A      1.8136 eV  683.64 nm  f=0.3155  <S**2>=0.000
     245 -> 248        0.19337
     246 -> 247        0.69088
     246 <- 247       -0.15345
 This state for optimization and/or second-order correction.
 Total Energy, E(TD-HF/TD-DFT) =  -3007.30157730
 Copying the excited state density for this state as the 1-particle RhoCI density.

 Excited State   2:      Singlet-A      1.9459 eV  637.15 nm  f=0.0030  <S**2>=0.000
     244 -> 247        0.69318
     245 -> 247       -0.12964

 Excited State   3:      Singlet-A      2.0419 eV  607.21 nm  f=0.0771  <S**2>=0.000
     244 -> 247        0.13312
     245 -> 247        0.63323
     246 -> 248       -0.24839

 Excited State   4:      Singlet-A      2.1827 eV  568.03 nm  f=0.0067  <S**2>=0.000
     243 -> 247        0.69744

 Excited State   5:      Singlet-A      2.2412 eV  553.21 nm  f=0.0001  <S**2>=0.000
     242 -> 247        0.70702

 The electronic state is 1-A.
 Alpha  occ. eigenvalues --  -46.26031 -18.82304 -18.82000 -18.76933 -18.76582
 Alpha  occ. eigenvalues --  -18.75380 -18.75275 -14.03475 -14.02335 -14.01095
 Alpha  occ. eigenvalues --  -14.00343 -10.04586 -10.03425  -9.99858  -9.99766
 Alpha  occ. eigenvalues --   -9.98576  -9.97320  -9.96699  -9.96695  -9.96352
 Alpha  occ. eigenvalues --   -9.95820  -9.95793  -9.95476  -9.94815  -9.94809
 Alpha  occ. eigenvalues --   -9.94390  -9.94302  -9.93979  -9.93716  -9.93474
 Alpha  occ. eigenvalues --   -9.93403  -9.93257  -9.93250  -9.93146  -9.93104
 Alpha  occ. eigenvalues --   -9.93099  -9.93049  -9.93007  -9.92922  -9.92907
 Alpha  occ. eigenvalues --   -9.92773  -9.92307  -9.92105  -9.92000  -9.91962
 Alpha  occ. eigenvalues --   -9.91945  -9.91896  -9.91894  -9.91819  -9.91526
 Alpha  occ. eigenvalues --   -9.91489  -9.91468  -9.91452  -9.91452  -9.91425
 Alpha  occ. eigenvalues --   -9.91385  -9.91309  -9.91289  -9.91055  -9.90814
 Alpha  occ. eigenvalues --   -9.90760  -9.90744  -9.90712  -9.90677  -9.90191
 Alpha  occ. eigenvalues --   -9.90031  -2.90731  -1.71172  -1.70589  -1.70454
 Alpha  occ. eigenvalues --   -0.97533  -0.97280  -0.94188  -0.92398  -0.89571
 Alpha  occ. eigenvalues --   -0.87675  -0.85976  -0.85272  -0.84892  -0.83859
 Alpha  occ. eigenvalues --   -0.76473  -0.73797  -0.73106  -0.72436  -0.72302
 Alpha  occ. eigenvalues --   -0.72103  -0.71056  -0.70931  -0.70759  -0.69906
 Alpha  occ. eigenvalues --   -0.69345  -0.68800  -0.68148  -0.67406  -0.67027
 Alpha  occ. eigenvalues --   -0.66424  -0.65927  -0.65573  -0.65088  -0.64692
 Alpha  occ. eigenvalues --   -0.64269  -0.62314  -0.62246  -0.61723  -0.60820
 Alpha  occ. eigenvalues --   -0.60398  -0.60180  -0.59758  -0.59270  -0.58946
 Alpha  occ. eigenvalues --   -0.58319  -0.57601  -0.56965  -0.55583  -0.54566
 Alpha  occ. eigenvalues --   -0.53933  -0.53743  -0.52486  -0.52229  -0.51658
 Alpha  occ. eigenvalues --   -0.51352  -0.50759  -0.50406  -0.50201  -0.49368
 Alpha  occ. eigenvalues --   -0.49250  -0.49054  -0.48087  -0.48074  -0.46642
 Alpha  occ. eigenvalues --   -0.46074  -0.45887  -0.45500  -0.45075  -0.44726
 Alpha  occ. eigenvalues --   -0.44270  -0.43937  -0.42867  -0.42492  -0.42026
 Alpha  occ. eigenvalues --   -0.41810  -0.41697  -0.41622  -0.41556  -0.41347
 Alpha  occ. eigenvalues --   -0.40827  -0.40629  -0.40590  -0.40189  -0.40061
 Alpha  occ. eigenvalues --   -0.40050  -0.39841  -0.39710  -0.39482  -0.39031
 Alpha  occ. eigenvalues --   -0.38741  -0.38578  -0.38334  -0.38176  -0.37963
 Alpha  occ. eigenvalues --   -0.37840  -0.37704  -0.37451  -0.37306  -0.37158
 Alpha  occ. eigenvalues --   -0.37023  -0.36945  -0.36803  -0.36680  -0.36487
 Alpha  occ. eigenvalues --   -0.36395  -0.36318  -0.36122  -0.35843  -0.35793
 Alpha  occ. eigenvalues --   -0.35598  -0.35503  -0.35084  -0.34866  -0.34781
 Alpha  occ. eigenvalues --   -0.34587  -0.34343  -0.34085  -0.33985  -0.33958
 Alpha  occ. eigenvalues --   -0.33704  -0.33611  -0.33528  -0.33317  -0.33307
 Alpha  occ. eigenvalues --   -0.33121  -0.32848  -0.32499  -0.32337  -0.32092
 Alpha  occ. eigenvalues --   -0.32039  -0.31774  -0.31683  -0.31409  -0.31349
 Alpha  occ. eigenvalues --   -0.31229  -0.31160  -0.31027  -0.30631  -0.30491
 Alpha  occ. eigenvalues --   -0.30414  -0.30306  -0.30147  -0.29911  -0.29735
 Alpha  occ. eigenvalues --   -0.29576  -0.29390  -0.29209  -0.28849  -0.28782
 Alpha  occ. eigenvalues --   -0.28675  -0.28315  -0.28238  -0.27955  -0.27537
 Alpha  occ. eigenvalues --   -0.27183  -0.27025  -0.26676  -0.26263  -0.26251
 Alpha  occ. eigenvalues --   -0.26055  -0.25945  -0.25586  -0.25359  -0.25119
 Alpha  occ. eigenvalues --   -0.24874  -0.24741  -0.24056  -0.23550  -0.23102
 Alpha  occ. eigenvalues --   -0.23010  -0.22049  -0.21935  -0.20874  -0.20662
 Alpha  occ. eigenvalues --   -0.20230  -0.19721  -0.19366  -0.18575  -0.17201
 Alpha  occ. eigenvalues --   -0.15728
 Alpha virt. eigenvalues --   -0.11485  -0.06553  -0.05967  -0.04366  -0.03338
 Alpha virt. eigenvalues --   -0.01939  -0.01604  -0.01354  -0.00418   0.00461
 Alpha virt. eigenvalues --    0.01322   0.01965   0.02400   0.02534   0.03023

 Mulliken charges:
               1
     1  Mg   0.685223
     2  C    0.062059
     3  C   -0.043650
     4  C   -0.050142
     5  C   -0.081659
     6  N   -0.202412
     7  C   -0.069793
     8  C   -0.011599
     9  C    0.036172
    10  C   -0.022524
    11  C    0.132744
    12  C    0.050229
    13  C    0.116168
    14  C    0.105889
    15  O   -0.205060
    16  O   -0.265421
    17  N   -0.274197
    18  C    0.141538
    19  C   -0.114997
    20  C    0.001692
    21  C    0.055582
    22  C    0.149419
    23  C   -0.050567
    24  O   -0.143401
    25  C    0.130380
    26  N   -0.245271
    27  C    0.049569
    28  C    0.076547
    29  C    0.034921
    30  C    0.022198
    31  C    0.155009
    32  C    0.047843
    33  C    0.076352
    34  N   -0.314281
    35  C    0.145432
    36  C   -0.190422
    37  C    0.045542
    38  C    0.119367
    39  C    0.168226
    40  C   -0.044311
    41  O   -0.061567
    42  C    0.035182
    43  C    0.091045
    44  O   -0.232460
    45  O   -0.242700
    46  C    0.234539
    47  C    0.309736
    48  C   -0.121400
    49  C   -0.170750
    50  C    0.161010
    51  C    0.166011
    52  C    0.032892
    53  C    0.134527
    54  C   -0.055106
    55  C    0.123257
    56  C    0.043106
    57  C    0.084778
    58  C    0.112462
    59  C   -0.106607
    60  C    0.135327
    61  C    0.085695
    62  C    0.080335
    63  C    0.097248
    64  C   -0.124527
    65  C    0.153407
    66  C    0.084433
    67  H   -0.075080
    68  H   -0.038741
    69  H   -0.069928
    70  H   -0.012375
    71  H   -0.017946
    72  H    0.013166
    73  H   -0.019511
    74  H   -0.010472
    75  H    0.009049
    76  H    0.028722
    77  H   -0.004562
    78  H   -0.029082
    79  H   -0.019324
    80  H    0.005155
    81  H   -0.000944
    82  H    0.015282
    83  H   -0.013253
    84  H   -0.010917
    85  H   -0.035809
    86  H   -0.035975
    87  H   -0.010483
    88  H   -0.021552
    89  H    0.002773
    90  H   -0.022739
    91  H   -0.016793
    92  H    0.001681
    93  H   -0.009456
    94  H    0.002429
    95  H    0.007293
    96  H   -0.001143
    97  H   -0.000869
    98  H    0.002115
    99  H   -0.010462
   100  H    0.020249
   101  H    0.020394
   102  H    0.011368
   103  H    0.013312
   104  H   -0.037222
   105  H   -0.006673
   106  H   -0.014543
   107  H   -0.000384
   108  H   -0.046523
   109  H   -0.023430
   110  H   -0.028299
   111  H   -0.036564
   112  H   -0.046882
   113  H   -0.015698
   114  H   -0.029375
   115  H    0.006669
   116  H   -0.026060
   117  H   -0.032335
   118  H   -0.054613
   119  H   -0.034510
   120  H   -0.014183
   121  H   -0.022714
   122  H   -0.043739
   123  H   -0.023911
   124  H   -0.045522
   125  H   -0.026367
   126  H   -0.031611
   127  H   -0.015470
   128  H   -0.022121
   129  H   -0.041176
   130  H   -0.034475
   131  H   -0.038127
   132  H   -0.027501
   133  H   -0.037001
   134  H   -0.041103
   135  H   -0.012660
   136  H   -0.034787
   137  H   -0.021150
   138  H   -0.007310
   139  H   -0.015307
   140  H   -0.011167
 Sum of Mulliken charges =  -0.00000

 Dipole moment (field-independent basis, Debye):
    X=             -3.4846    Y=              2.5241    Z=             -0.6510  Tot=              4.3517
 Quadrupole moment (field-independent basis, Debye-Ang):
   XX=           -380.4475   YY=           -420.6013   ZZ=           -403.8089
   XY=             -5.9677   XZ=             -0.5698   YZ=            -11.6322

 Normal termination of Gaussian 16 at Thu Apr 28 21:20:19 2022.
