 Gaussian 16, Revision A.03,
 Gaussian 16:  ES64L-G16RevA.03 25-Dec-2016

 -----------------------------------
 #p cam-b3lyp/Def2SVP td=(nstates=5)
 -----------------------------------

 -------------------------------------------------------
 step_1751_chromophore_1 TDDFT with cam-b3lyp functional
 -------------------------------------------------------
 Symbolic Z-matrix:
 Charge =  0 Multiplicity = 1

                         Standard orientation:
 ---------------------------------------------------------------------
 Center     Atomic      Atomic             Coordinates (Angstroms)
 Number     Number       Type             X           Y           Z
 ---------------------------------------------------------------------
      1         12           0        6.080118    0.549182   -0.320643
      2          6           0        3.828140   -2.152111   -0.602193
      3          6           0        3.666135    2.644713   -1.433932
      4          6           0        8.256658    3.004426    0.252184
      5          6           0        8.615353   -1.836372    0.451276
      6          7           0        4.025895    0.252175   -1.041363
      7          6           0        3.299645   -0.901725   -0.995094
      8          6           0        1.937675   -0.739680   -1.717271
      9          6           0        1.873292    0.851113   -2.015063
     10          6           0        3.246168    1.295902   -1.461097
     11          6           0        1.724285    1.176616   -3.520115
     12          6           0        0.883550   -1.276396   -0.739178
     13          6           0       -0.619620   -0.904487   -1.176665
     14          6           0       -1.691773   -1.955330   -0.752955
     15          8           0       -1.805395   -3.058832   -1.278082
     16          8           0       -2.593978   -1.454507    0.143629
     17          7           0        5.976427    2.608236   -0.612943
     18          6           0        4.859733    3.276230   -0.951197
     19          6           0        5.045794    4.712882   -0.729769
     20          6           0        6.383724    4.853377   -0.202182
     21          6           0        6.953204    3.467602   -0.174504
     22          6           0        3.967091    5.779050   -0.995914
     23          6           0        7.040366    6.120140    0.363746
     24          8           0        8.183126    6.090322    0.745064
     25          6           0        6.235120    7.324168    0.577910
     26          7           0        8.120250    0.577125    0.281922
     27          6           0        8.798263    1.752339    0.330425
     28          6           0       10.250950    1.447438    0.598610
     29          6           0       10.325780   -0.079047    0.921042
     30          6           0        8.939624   -0.531405    0.553413
     31          6           0       11.240977    1.970722   -0.452147
     32          6           0       10.659874   -0.554750    2.417794
     33          6           0        9.422450   -0.559745    3.390962
     34          7           0        6.267150   -1.479216   -0.165600
     35          6           0        7.336776   -2.336487    0.181177
     36          6           0        6.895477   -3.687207    0.212032
     37          6           0        5.516806   -3.665194   -0.082735
     38          6           0        5.166336   -2.342968   -0.314524
     39          6           0        7.759894   -4.890734    0.515848
     40          6           0        4.353880   -4.547765   -0.155802
     41          8           0        4.167346   -5.711863   -0.102922
     42          6           0        3.262557   -3.516814   -0.510150
     43          6           0        2.348310   -3.590982    0.642229
     44          8           0        2.356029   -2.773386    1.598622
     45          8           0        1.511248   -4.648674    0.610283
     46          6           0        0.498567   -4.739124    1.688293
     47          6           0       -3.659978   -2.340938    0.674823
     48          6           0       -5.008845   -2.036961   -0.023509
     49          6           0       -5.946758   -2.895761   -0.491919
     50          6           0       -6.029450   -4.346825   -0.068697
     51          6           0       -7.009255   -2.405477   -1.478194
     52          6           0       -8.099557   -1.635725   -0.758117
     53          6           0       -7.932993   -0.106674   -0.835233
     54          6           0       -9.293985    0.592932   -0.481654
     55          6           0       -9.995287    1.200761   -1.725508
     56          6           0       -9.083075    1.686432    0.582688
     57          6           0      -10.280610    2.641018    0.949119
     58          6           0      -10.758703    2.152679    2.292399
     59          6           0      -12.305393    2.326558    2.367468
     60          6           0      -12.812404    2.874403    3.671549
     61          6           0      -13.031565    0.958972    1.996754
     62          6           0      -14.584768    1.005216    1.698872
     63          6           0      -15.119487    0.226561    0.469187
     64          6           0      -15.217248    1.102718   -0.839181
     65          6           0      -16.386674    0.764894   -1.654520
     66          6           0      -13.976823    0.956675   -1.719422
     67          1           0        2.868687    3.294607   -1.800409
     68          1           0        8.892647    3.837448    0.557706
     69          1           0        9.378459   -2.562353    0.735611
     70          1           0        1.936112   -1.377843   -2.601327
     71          1           0        1.079450    1.306867   -1.424951
     72          1           0        2.608559    1.679732   -3.909865
     73          1           0        0.829613    1.781321   -3.670049
     74          1           0        1.423185    0.285699   -4.071962
     75          1           0        1.050290   -0.922921    0.278486
     76          1           0        0.782345   -2.358017   -0.828805
     77          1           0       -0.766951   -0.538217   -2.192824
     78          1           0       -0.798934    0.041137   -0.663728
     79          1           0        3.044445    5.372348   -1.410654
     80          1           0        4.365155    6.497248   -1.713241
     81          1           0        3.646571    6.407265   -0.164988
     82          1           0        5.464073    7.043005    1.294895
     83          1           0        5.741247    7.590489   -0.356831
     84          1           0        6.623164    8.295383    0.885600
     85          1           0       10.444663    1.901104    1.570698
     86          1           0       11.013808   -0.609769    0.263999
     87          1           0       10.767952    2.867136   -0.853815
     88          1           0       11.285830    1.333279   -1.336091
     89          1           0       12.246707    2.090941   -0.048795
     90          1           0       11.392963    0.141594    2.824493
     91          1           0       11.098133   -1.552506    2.423717
     92          1           0        8.790663    0.313177    3.230581
     93          1           0        9.715894   -0.480735    4.438283
     94          1           0        8.934803   -1.509625    3.170795
     95          1           0        7.067947   -5.726526    0.409379
     96          1           0        8.152724   -4.816388    1.530200
     97          1           0        8.612884   -5.048395   -0.144879
     98          1           0        2.744889   -3.920005   -1.380429
     99          1           0       -0.281849   -4.047647    1.370915
    100          1           0        0.885612   -4.327542    2.620873
    101          1           0       -0.116715   -5.627608    1.826357
    102          1           0       -3.760532   -2.209605    1.751673
    103          1           0       -3.418870   -3.356858    0.361109
    104          1           0       -5.193736   -1.014233   -0.353812
    105          1           0       -7.004555   -4.549819    0.375370
    106          1           0       -5.226950   -4.539839    0.643129
    107          1           0       -5.992712   -4.966107   -0.965023
    108          1           0       -7.488308   -3.251494   -1.971205
    109          1           0       -6.601698   -1.736033   -2.236018
    110          1           0       -8.214553   -1.944140    0.281181
    111          1           0       -9.001319   -2.046523   -1.212418
    112          1           0       -7.730726    0.004480   -1.900023
    113          1           0       -7.077776    0.331573   -0.321719
    114          1           0       -9.972262   -0.118179   -0.010585
    115          1           0      -10.072336    2.287964   -1.761627
    116          1           0      -10.977035    0.730093   -1.682834
    117          1           0       -9.580568    0.775214   -2.638555
    118          1           0       -8.336443    2.366209    0.172207
    119          1           0       -8.577677    1.293669    1.464385
    120          1           0      -11.122314    2.504487    0.272047
    121          1           0       -9.915460    3.667733    0.978087
    122          1           0      -10.190539    2.818460    2.941403
    123          1           0      -10.429606    1.181257    2.663363
    124          1           0      -12.743021    3.070852    1.703022
    125          1           0      -11.944456    2.873020    4.331532
    126          1           0      -13.560741    2.195200    4.079629
    127          1           0      -13.305056    3.840960    3.559734
    128          1           0      -12.746949    0.226108    2.750546
    129          1           0      -12.702445    0.732970    0.981916
    130          1           0      -14.922784    2.041351    1.679258
    131          1           0      -15.086405    0.559008    2.556563
    132          1           0      -16.052576   -0.278540    0.718587
    133          1           0      -14.390509   -0.516800    0.144141
    134          1           0      -15.241477    2.161594   -0.584251
    135          1           0      -17.048799    1.630562   -1.642201
    136          1           0      -16.869024   -0.071494   -1.148493
    137          1           0      -16.160939    0.397383   -2.655218
    138          1           0      -13.072048    0.881656   -1.116145
    139          1           0      -13.900501    1.902496   -2.256184
    140          1           0      -14.017026    0.089640   -2.378802
 ---------------------------------------------------------------------

 SCF Done:  E(RCAM-B3LYP) =  -3007.16550549     A.U. after   16 cycles

 Excitation energies and oscillator strengths:

 Excited State   1:      Singlet-A      1.6904 eV  733.46 nm  f=0.3945  <S**2>=0.000
     245 -> 248        0.18042
     246 -> 247        0.68660
     245 <- 248        0.11001
 This state for optimization and/or second-order correction.
 Total Energy, E(TD-HF/TD-DFT) =  -3007.10338418
 Copying the excited state density for this state as the 1-particle RhoCI density.

 Excited State   2:      Singlet-A      2.2350 eV  554.73 nm  f=0.1279  <S**2>=0.000
     245 -> 247        0.64527
     246 -> 248       -0.27834

 Excited State   3:      Singlet-A      3.3076 eV  374.85 nm  f=0.0011  <S**2>=0.000
     243 -> 247        0.69254

 Excited State   4:      Singlet-A      3.5156 eV  352.67 nm  f=0.1307  <S**2>=0.000
     242 -> 247        0.56028
     245 -> 247        0.11763
     246 -> 248        0.39497

 Excited State   5:      Singlet-A      3.6581 eV  338.93 nm  f=0.6321  <S**2>=0.000
     239 -> 247        0.18771
     242 -> 247       -0.39160
     245 -> 247        0.25104
     246 -> 248        0.46572

 The electronic state is 1-A.
 Alpha  occ. eigenvalues --  -46.87473 -19.25188 -19.25022 -19.19921 -19.19867
 Alpha  occ. eigenvalues --  -19.18487 -19.18468 -14.42479 -14.41049 -14.39574
 Alpha  occ. eigenvalues --  -14.38735 -10.39950 -10.38984 -10.35201 -10.34882
 Alpha  occ. eigenvalues --  -10.32774 -10.31402 -10.31246 -10.31190 -10.30844
 Alpha  occ. eigenvalues --  -10.30148 -10.30126 -10.29794 -10.29042 -10.28997
 Alpha  occ. eigenvalues --  -10.28931 -10.28527 -10.28288 -10.27822 -10.27788
 Alpha  occ. eigenvalues --  -10.27561 -10.27509 -10.27395 -10.27381 -10.27350
 Alpha  occ. eigenvalues --  -10.27348 -10.27100 -10.26977 -10.26893 -10.26624
 Alpha  occ. eigenvalues --  -10.26531 -10.25988 -10.25909 -10.25896 -10.25819
 Alpha  occ. eigenvalues --  -10.25800 -10.25748 -10.25545 -10.25512 -10.25456
 Alpha  occ. eigenvalues --  -10.25194 -10.25182 -10.25170 -10.25126 -10.25119
 Alpha  occ. eigenvalues --  -10.25004 -10.24979 -10.24942 -10.24878 -10.24733
 Alpha  occ. eigenvalues --  -10.24468 -10.24375 -10.24353 -10.24322 -10.23714
 Alpha  occ. eigenvalues --  -10.23594  -3.16083  -1.91000  -1.90519  -1.90405
 Alpha  occ. eigenvalues --   -1.15992  -1.15857  -1.12756  -1.10853  -1.07431
 Alpha  occ. eigenvalues --   -1.05623  -1.03722  -1.02883  -1.02448  -1.01352
 Alpha  occ. eigenvalues --   -0.93690  -0.90706  -0.89933  -0.89204  -0.89073
 Alpha  occ. eigenvalues --   -0.88764  -0.87674  -0.87548  -0.87233  -0.86624
 Alpha  occ. eigenvalues --   -0.85818  -0.85128  -0.84462  -0.83589  -0.83156
 Alpha  occ. eigenvalues --   -0.82514  -0.82087  -0.81478  -0.80923  -0.80573
 Alpha  occ. eigenvalues --   -0.80069  -0.78035  -0.77942  -0.77213  -0.76230
 Alpha  occ. eigenvalues --   -0.75791  -0.75528  -0.74993  -0.74554  -0.74172
 Alpha  occ. eigenvalues --   -0.73410  -0.72643  -0.71887  -0.70411  -0.69106
 Alpha  occ. eigenvalues --   -0.68585  -0.68357  -0.66963  -0.66607  -0.65906
 Alpha  occ. eigenvalues --   -0.65513  -0.64834  -0.64321  -0.64136  -0.63256
 Alpha  occ. eigenvalues --   -0.63110  -0.62981  -0.61970  -0.61751  -0.60298
 Alpha  occ. eigenvalues --   -0.59734  -0.59569  -0.58958  -0.58640  -0.58230
 Alpha  occ. eigenvalues --   -0.57577  -0.57302  -0.56007  -0.55693  -0.55274
 Alpha  occ. eigenvalues --   -0.54831  -0.54558  -0.54522  -0.54429  -0.54313
 Alpha  occ. eigenvalues --   -0.53888  -0.53699  -0.53285  -0.53124  -0.52852
 Alpha  occ. eigenvalues --   -0.52694  -0.52599  -0.52343  -0.52283  -0.51592
 Alpha  occ. eigenvalues --   -0.51317  -0.51010  -0.50958  -0.50830  -0.50629
 Alpha  occ. eigenvalues --   -0.50469  -0.50189  -0.50150  -0.49838  -0.49642
 Alpha  occ. eigenvalues --   -0.49486  -0.49209  -0.49076  -0.48966  -0.48818
 Alpha  occ. eigenvalues --   -0.48690  -0.48481  -0.48292  -0.48082  -0.47923
 Alpha  occ. eigenvalues --   -0.47781  -0.47613  -0.47108  -0.46672  -0.46535
 Alpha  occ. eigenvalues --   -0.46359  -0.46224  -0.45899  -0.45833  -0.45768
 Alpha  occ. eigenvalues --   -0.45606  -0.45343  -0.45259  -0.45166  -0.45036
 Alpha  occ. eigenvalues --   -0.44956  -0.44496  -0.44199  -0.43913  -0.43712
 Alpha  occ. eigenvalues --   -0.43634  -0.43287  -0.43006  -0.42971  -0.42907
 Alpha  occ. eigenvalues --   -0.42776  -0.42713  -0.42321  -0.42166  -0.42056
 Alpha  occ. eigenvalues --   -0.42018  -0.41811  -0.41488  -0.41311  -0.41071
 Alpha  occ. eigenvalues --   -0.40920  -0.40632  -0.40495  -0.40367  -0.39968
 Alpha  occ. eigenvalues --   -0.39704  -0.39425  -0.39213  -0.38976  -0.38680
 Alpha  occ. eigenvalues --   -0.37973  -0.37835  -0.37656  -0.37496  -0.37002
 Alpha  occ. eigenvalues --   -0.36644  -0.36640  -0.36563  -0.36300  -0.35810
 Alpha  occ. eigenvalues --   -0.35653  -0.35526  -0.35258  -0.34316  -0.33880
 Alpha  occ. eigenvalues --   -0.33521  -0.33406  -0.32926  -0.31139  -0.31059
 Alpha  occ. eigenvalues --   -0.30926  -0.30053  -0.29481  -0.29373  -0.23927
 Alpha  occ. eigenvalues --   -0.21050
 Alpha virt. eigenvalues --   -0.08690  -0.01350   0.00618   0.02619   0.04334
 Alpha virt. eigenvalues --    0.04430   0.05497   0.05668   0.06162   0.06691
 Alpha virt. eigenvalues --    0.08248   0.08602   0.08991   0.09143   0.09363

 Mulliken charges:
               1
     1  Mg   0.821085
     2  C    0.033567
     3  C   -0.056765
     4  C   -0.068740
     5  C   -0.089492
     6  N   -0.272073
     7  C   -0.020165
     8  C   -0.056832
     9  C   -0.021098
    10  C   -0.002683
    11  C    0.072870
    12  C   -0.009557
    13  C    0.055233
    14  C    0.182168
    15  O   -0.245660
    16  O   -0.332182
    17  N   -0.362357
    18  C    0.147692
    19  C   -0.124168
    20  C   -0.061720
    21  C    0.081922
    22  C    0.095398
    23  C    0.027600
    24  O   -0.184614
    25  C    0.045628
    26  N   -0.318366
    27  C    0.068738
    28  C    0.010824
    29  C   -0.016174
    30  C    0.037343
    31  C    0.096773
    32  C   -0.002122
    33  C    0.015148
    34  N   -0.400774
    35  C    0.150137
    36  C   -0.183939
    37  C   -0.036840
    38  C    0.152299
    39  C    0.118251
    40  C    0.056245
    41  O   -0.098545
    42  C   -0.047998
    43  C    0.180307
    44  O   -0.270510
    45  O   -0.304548
    46  C    0.195835
    47  C    0.281393
    48  C   -0.144192
    49  C   -0.187670
    50  C    0.100185
    51  C    0.097694
    52  C   -0.015676
    53  C    0.077409
    54  C   -0.105194
    55  C    0.061975
    56  C   -0.007312
    57  C    0.033336
    58  C    0.054531
    59  C   -0.162604
    60  C    0.074099
    61  C    0.044402
    62  C    0.024034
    63  C    0.039879
    64  C   -0.178117
    65  C    0.087750
    66  C    0.034703
    67  H   -0.040298
    68  H    0.001410
    69  H   -0.033370
    70  H    0.022254
    71  H    0.015685
    72  H    0.039497
    73  H    0.005440
    74  H    0.014404
    75  H    0.043044
    76  H    0.054429
    77  H    0.026592
    78  H    0.006835
    79  H    0.008979
    80  H    0.030605
    81  H    0.025655
    82  H    0.041828
    83  H    0.013569
    84  H    0.025109
    85  H    0.000484
    86  H    0.001319
    87  H    0.014798
    88  H    0.003585
    89  H    0.026695
    90  H    0.005095
    91  H    0.010060
    92  H    0.022606
    93  H    0.015648
    94  H    0.023858
    95  H    0.033730
    96  H    0.023636
    97  H    0.025077
    98  H    0.046583
    99  H    0.007344
   100  H    0.048273
   101  H    0.045252
   102  H    0.039089
   103  H    0.043050
   104  H   -0.006164
   105  H    0.017427
   106  H    0.008178
   107  H    0.024382
   108  H   -0.012786
   109  H    0.008636
   110  H   -0.001005
   111  H   -0.006632
   112  H   -0.018711
   113  H    0.010953
   114  H   -0.000171
   115  H    0.029884
   116  H   -0.004332
   117  H   -0.005492
   118  H   -0.025144
   119  H   -0.006379
   120  H    0.009789
   121  H    0.007311
   122  H   -0.012044
   123  H    0.004664
   124  H   -0.013333
   125  H   -0.000974
   126  H   -0.006670
   127  H    0.009015
   128  H    0.005141
   129  H   -0.023161
   130  H   -0.006742
   131  H   -0.008473
   132  H    0.002474
   133  H   -0.007244
   134  H   -0.009731
   135  H    0.011884
   136  H   -0.009382
   137  H    0.004824
   138  H    0.002861
   139  H    0.009517
   140  H    0.012016
 Sum of Mulliken charges =  -0.00000

 Dipole moment (field-independent basis, Debye):
    X=             -3.7842    Y=              2.9024    Z=             -0.6764  Tot=              4.8168
 Quadrupole moment (field-independent basis, Debye-Ang):
   XX=           -382.4973   YY=           -416.2101   ZZ=           -403.5496
   XY=             -4.4757   XZ=             -0.3481   YZ=            -12.3570

 Normal termination of Gaussian 16 at Thu Apr 28 20:17:20 2022.
