 Gaussian 16, Revision A.03,
 Gaussian 16:  ES64L-G16RevA.03 25-Dec-2016

 ---------------------------------
 #p PBE1PBE/Def2SVP td=(nstates=5)
 ---------------------------------

 -----------------------------------------------------
 step_1751_chromophore_1 TDDFT with PBE1PBE functional
 -----------------------------------------------------
 Symbolic Z-matrix:
 Charge =  0 Multiplicity = 1

                         Standard orientation:
 ---------------------------------------------------------------------
 Center     Atomic      Atomic             Coordinates (Angstroms)
 Number     Number       Type             X           Y           Z
 ---------------------------------------------------------------------
      1         12           0        6.080118    0.549182   -0.320643
      2          6           0        3.828140   -2.152111   -0.602193
      3          6           0        3.666135    2.644713   -1.433932
      4          6           0        8.256658    3.004426    0.252184
      5          6           0        8.615353   -1.836372    0.451276
      6          7           0        4.025895    0.252175   -1.041363
      7          6           0        3.299645   -0.901725   -0.995094
      8          6           0        1.937675   -0.739680   -1.717271
      9          6           0        1.873292    0.851113   -2.015063
     10          6           0        3.246168    1.295902   -1.461097
     11          6           0        1.724285    1.176616   -3.520115
     12          6           0        0.883550   -1.276396   -0.739178
     13          6           0       -0.619620   -0.904487   -1.176665
     14          6           0       -1.691773   -1.955330   -0.752955
     15          8           0       -1.805395   -3.058832   -1.278082
     16          8           0       -2.593978   -1.454507    0.143629
     17          7           0        5.976427    2.608236   -0.612943
     18          6           0        4.859733    3.276230   -0.951197
     19          6           0        5.045794    4.712882   -0.729769
     20          6           0        6.383724    4.853377   -0.202182
     21          6           0        6.953204    3.467602   -0.174504
     22          6           0        3.967091    5.779050   -0.995914
     23          6           0        7.040366    6.120140    0.363746
     24          8           0        8.183126    6.090322    0.745064
     25          6           0        6.235120    7.324168    0.577910
     26          7           0        8.120250    0.577125    0.281922
     27          6           0        8.798263    1.752339    0.330425
     28          6           0       10.250950    1.447438    0.598610
     29          6           0       10.325780   -0.079047    0.921042
     30          6           0        8.939624   -0.531405    0.553413
     31          6           0       11.240977    1.970722   -0.452147
     32          6           0       10.659874   -0.554750    2.417794
     33          6           0        9.422450   -0.559745    3.390962
     34          7           0        6.267150   -1.479216   -0.165600
     35          6           0        7.336776   -2.336487    0.181177
     36          6           0        6.895477   -3.687207    0.212032
     37          6           0        5.516806   -3.665194   -0.082735
     38          6           0        5.166336   -2.342968   -0.314524
     39          6           0        7.759894   -4.890734    0.515848
     40          6           0        4.353880   -4.547765   -0.155802
     41          8           0        4.167346   -5.711863   -0.102922
     42          6           0        3.262557   -3.516814   -0.510150
     43          6           0        2.348310   -3.590982    0.642229
     44          8           0        2.356029   -2.773386    1.598622
     45          8           0        1.511248   -4.648674    0.610283
     46          6           0        0.498567   -4.739124    1.688293
     47          6           0       -3.659978   -2.340938    0.674823
     48          6           0       -5.008845   -2.036961   -0.023509
     49          6           0       -5.946758   -2.895761   -0.491919
     50          6           0       -6.029450   -4.346825   -0.068697
     51          6           0       -7.009255   -2.405477   -1.478194
     52          6           0       -8.099557   -1.635725   -0.758117
     53          6           0       -7.932993   -0.106674   -0.835233
     54          6           0       -9.293985    0.592932   -0.481654
     55          6           0       -9.995287    1.200761   -1.725508
     56          6           0       -9.083075    1.686432    0.582688
     57          6           0      -10.280610    2.641018    0.949119
     58          6           0      -10.758703    2.152679    2.292399
     59          6           0      -12.305393    2.326558    2.367468
     60          6           0      -12.812404    2.874403    3.671549
     61          6           0      -13.031565    0.958972    1.996754
     62          6           0      -14.584768    1.005216    1.698872
     63          6           0      -15.119487    0.226561    0.469187
     64          6           0      -15.217248    1.102718   -0.839181
     65          6           0      -16.386674    0.764894   -1.654520
     66          6           0      -13.976823    0.956675   -1.719422
     67          1           0        2.868687    3.294607   -1.800409
     68          1           0        8.892647    3.837448    0.557706
     69          1           0        9.378459   -2.562353    0.735611
     70          1           0        1.936112   -1.377843   -2.601327
     71          1           0        1.079450    1.306867   -1.424951
     72          1           0        2.608559    1.679732   -3.909865
     73          1           0        0.829613    1.781321   -3.670049
     74          1           0        1.423185    0.285699   -4.071962
     75          1           0        1.050290   -0.922921    0.278486
     76          1           0        0.782345   -2.358017   -0.828805
     77          1           0       -0.766951   -0.538217   -2.192824
     78          1           0       -0.798934    0.041137   -0.663728
     79          1           0        3.044445    5.372348   -1.410654
     80          1           0        4.365155    6.497248   -1.713241
     81          1           0        3.646571    6.407265   -0.164988
     82          1           0        5.464073    7.043005    1.294895
     83          1           0        5.741247    7.590489   -0.356831
     84          1           0        6.623164    8.295383    0.885600
     85          1           0       10.444663    1.901104    1.570698
     86          1           0       11.013808   -0.609769    0.263999
     87          1           0       10.767952    2.867136   -0.853815
     88          1           0       11.285830    1.333279   -1.336091
     89          1           0       12.246707    2.090941   -0.048795
     90          1           0       11.392963    0.141594    2.824493
     91          1           0       11.098133   -1.552506    2.423717
     92          1           0        8.790663    0.313177    3.230581
     93          1           0        9.715894   -0.480735    4.438283
     94          1           0        8.934803   -1.509625    3.170795
     95          1           0        7.067947   -5.726526    0.409379
     96          1           0        8.152724   -4.816388    1.530200
     97          1           0        8.612884   -5.048395   -0.144879
     98          1           0        2.744889   -3.920005   -1.380429
     99          1           0       -0.281849   -4.047647    1.370915
    100          1           0        0.885612   -4.327542    2.620873
    101          1           0       -0.116715   -5.627608    1.826357
    102          1           0       -3.760532   -2.209605    1.751673
    103          1           0       -3.418870   -3.356858    0.361109
    104          1           0       -5.193736   -1.014233   -0.353812
    105          1           0       -7.004555   -4.549819    0.375370
    106          1           0       -5.226950   -4.539839    0.643129
    107          1           0       -5.992712   -4.966107   -0.965023
    108          1           0       -7.488308   -3.251494   -1.971205
    109          1           0       -6.601698   -1.736033   -2.236018
    110          1           0       -8.214553   -1.944140    0.281181
    111          1           0       -9.001319   -2.046523   -1.212418
    112          1           0       -7.730726    0.004480   -1.900023
    113          1           0       -7.077776    0.331573   -0.321719
    114          1           0       -9.972262   -0.118179   -0.010585
    115          1           0      -10.072336    2.287964   -1.761627
    116          1           0      -10.977035    0.730093   -1.682834
    117          1           0       -9.580568    0.775214   -2.638555
    118          1           0       -8.336443    2.366209    0.172207
    119          1           0       -8.577677    1.293669    1.464385
    120          1           0      -11.122314    2.504487    0.272047
    121          1           0       -9.915460    3.667733    0.978087
    122          1           0      -10.190539    2.818460    2.941403
    123          1           0      -10.429606    1.181257    2.663363
    124          1           0      -12.743021    3.070852    1.703022
    125          1           0      -11.944456    2.873020    4.331532
    126          1           0      -13.560741    2.195200    4.079629
    127          1           0      -13.305056    3.840960    3.559734
    128          1           0      -12.746949    0.226108    2.750546
    129          1           0      -12.702445    0.732970    0.981916
    130          1           0      -14.922784    2.041351    1.679258
    131          1           0      -15.086405    0.559008    2.556563
    132          1           0      -16.052576   -0.278540    0.718587
    133          1           0      -14.390509   -0.516800    0.144141
    134          1           0      -15.241477    2.161594   -0.584251
    135          1           0      -17.048799    1.630562   -1.642201
    136          1           0      -16.869024   -0.071494   -1.148493
    137          1           0      -16.160939    0.397383   -2.655218
    138          1           0      -13.072048    0.881656   -1.116145
    139          1           0      -13.900501    1.902496   -2.256184
    140          1           0      -14.017026    0.089640   -2.378802
 ---------------------------------------------------------------------

 SCF Done:  E(RPBE1PBE) =  -3005.35367645     A.U. after   16 cycles

 Excitation energies and oscillator strengths:

 Excited State   1:      Singlet-A      1.8542 eV  668.67 nm  f=0.3822  <S**2>=0.000
     245 -> 248        0.17371
     246 -> 247        0.69414
     246 <- 247       -0.11139
 This state for optimization and/or second-order correction.
 Total Energy, E(TD-HF/TD-DFT) =  -3005.28553607
 Copying the excited state density for this state as the 1-particle RhoCI density.

 Excited State   2:      Singlet-A      2.2480 eV  551.53 nm  f=0.1186  <S**2>=0.000
     245 -> 247        0.65340
     246 -> 248       -0.25964

 Excited State   3:      Singlet-A      3.0015 eV  413.07 nm  f=0.0022  <S**2>=0.000
     243 -> 247        0.69701

 Excited State   4:      Singlet-A      3.1198 eV  397.41 nm  f=0.0013  <S**2>=0.000
     240 -> 247       -0.12620
     241 -> 247        0.23648
     242 -> 247        0.62715

 Excited State   5:      Singlet-A      3.1699 eV  391.12 nm  f=0.0003  <S**2>=0.000
     240 -> 247        0.57876
     240 -> 249       -0.12450
     241 -> 247        0.35242

 The electronic state is 1-A.
 Alpha  occ. eigenvalues --  -46.90888 -19.25891 -19.25587 -19.20194 -19.20018
 Alpha  occ. eigenvalues --  -19.18691 -19.18682 -14.41933 -14.40663 -14.39216
 Alpha  occ. eigenvalues --  -14.38470 -10.36988 -10.35963 -10.32290 -10.31995
 Alpha  occ. eigenvalues --  -10.30168 -10.29009 -10.28933 -10.28582 -10.28561
 Alpha  occ. eigenvalues --  -10.27852 -10.27835 -10.27559 -10.26763 -10.26720
 Alpha  occ. eigenvalues --  -10.26682 -10.26332 -10.25986 -10.25381 -10.25351
 Alpha  occ. eigenvalues --  -10.25292 -10.25266 -10.25093 -10.24964 -10.24953
 Alpha  occ. eigenvalues --  -10.24847 -10.24818 -10.24749 -10.24716 -10.24314
 Alpha  occ. eigenvalues --  -10.23995 -10.23635 -10.23458 -10.23455 -10.23351
 Alpha  occ. eigenvalues --  -10.23259 -10.23176 -10.23095 -10.23017 -10.23009
 Alpha  occ. eigenvalues --  -10.22824 -10.22787 -10.22769 -10.22723 -10.22685
 Alpha  occ. eigenvalues --  -10.22595 -10.22589 -10.22585 -10.22431 -10.22277
 Alpha  occ. eigenvalues --  -10.22039 -10.21956 -10.21764 -10.21741 -10.21088
 Alpha  occ. eigenvalues --  -10.20952  -3.13076  -1.85936  -1.85432  -1.85323
 Alpha  occ. eigenvalues --   -1.10797  -1.10549  -1.07494  -1.05596  -1.02293
 Alpha  occ. eigenvalues --   -1.00338  -0.98310  -0.97521  -0.97090  -0.96002
 Alpha  occ. eigenvalues --   -0.88061  -0.84810  -0.84023  -0.83372  -0.83226
 Alpha  occ. eigenvalues --   -0.83103  -0.81876  -0.81782  -0.81561  -0.80826
 Alpha  occ. eigenvalues --   -0.80162  -0.79331  -0.78679  -0.77865  -0.77374
 Alpha  occ. eigenvalues --   -0.76704  -0.76270  -0.75719  -0.75203  -0.74841
 Alpha  occ. eigenvalues --   -0.74307  -0.72322  -0.72186  -0.71509  -0.70546
 Alpha  occ. eigenvalues --   -0.69888  -0.69682  -0.69363  -0.68698  -0.68351
 Alpha  occ. eigenvalues --   -0.67696  -0.67084  -0.66274  -0.64749  -0.63455
 Alpha  occ. eigenvalues --   -0.63034  -0.62581  -0.61416  -0.60847  -0.60142
 Alpha  occ. eigenvalues --   -0.59907  -0.59336  -0.58882  -0.58615  -0.57617
 Alpha  occ. eigenvalues --   -0.57365  -0.57186  -0.56330  -0.56188  -0.54838
 Alpha  occ. eigenvalues --   -0.54275  -0.54019  -0.53369  -0.53048  -0.52687
 Alpha  occ. eigenvalues --   -0.52124  -0.51904  -0.50531  -0.50213  -0.49873
 Alpha  occ. eigenvalues --   -0.49380  -0.49045  -0.49027  -0.48819  -0.48675
 Alpha  occ. eigenvalues --   -0.48475  -0.48276  -0.47733  -0.47688  -0.47324
 Alpha  occ. eigenvalues --   -0.47060  -0.47005  -0.46895  -0.46806  -0.46245
 Alpha  occ. eigenvalues --   -0.45856  -0.45621  -0.45520  -0.45350  -0.45184
 Alpha  occ. eigenvalues --   -0.44905  -0.44779  -0.44735  -0.44408  -0.44215
 Alpha  occ. eigenvalues --   -0.44076  -0.43817  -0.43638  -0.43501  -0.43391
 Alpha  occ. eigenvalues --   -0.43275  -0.43074  -0.42972  -0.42681  -0.42533
 Alpha  occ. eigenvalues --   -0.42379  -0.42317  -0.41728  -0.41354  -0.41124
 Alpha  occ. eigenvalues --   -0.41028  -0.40981  -0.40605  -0.40570  -0.40403
 Alpha  occ. eigenvalues --   -0.40265  -0.40114  -0.39936  -0.39897  -0.39773
 Alpha  occ. eigenvalues --   -0.39583  -0.39283  -0.38985  -0.38746  -0.38456
 Alpha  occ. eigenvalues --   -0.38398  -0.38160  -0.37765  -0.37749  -0.37677
 Alpha  occ. eigenvalues --   -0.37522  -0.37451  -0.37057  -0.36971  -0.36838
 Alpha  occ. eigenvalues --   -0.36792  -0.36650  -0.36205  -0.36134  -0.35856
 Alpha  occ. eigenvalues --   -0.35676  -0.35473  -0.35326  -0.35231  -0.34883
 Alpha  occ. eigenvalues --   -0.34665  -0.34204  -0.33987  -0.33807  -0.33616
 Alpha  occ. eigenvalues --   -0.32972  -0.32677  -0.32666  -0.32282  -0.31822
 Alpha  occ. eigenvalues --   -0.31702  -0.31536  -0.31422  -0.31389  -0.30726
 Alpha  occ. eigenvalues --   -0.30536  -0.30407  -0.30160  -0.29261  -0.28953
 Alpha  occ. eigenvalues --   -0.28573  -0.28468  -0.28071  -0.26753  -0.26068
 Alpha  occ. eigenvalues --   -0.25784  -0.25544  -0.25116  -0.24626  -0.20884
 Alpha  occ. eigenvalues --   -0.18675
 Alpha virt. eigenvalues --   -0.11118  -0.04876  -0.03626  -0.01773  -0.00189
 Alpha virt. eigenvalues --    0.01077   0.01338   0.01598   0.01874   0.03126
 Alpha virt. eigenvalues --    0.04250   0.05138   0.05287   0.05488   0.05901

 Mulliken charges:
               1
     1  Mg   0.975891
     2  C    0.024308
     3  C   -0.053411
     4  C   -0.060616
     5  C   -0.076713
     6  N   -0.381343
     7  C    0.058499
     8  C   -0.123867
     9  C   -0.099639
    10  C    0.037690
    11  C    0.017083
    12  C   -0.068252
    13  C   -0.011693
    14  C    0.246716
    15  O   -0.276826
    16  O   -0.363725
    17  N   -0.480170
    18  C    0.171685
    19  C   -0.150628
    20  C   -0.111115
    21  C    0.116931
    22  C    0.037462
    23  C    0.077075
    24  O   -0.223442
    25  C   -0.026023
    26  N   -0.423569
    27  C    0.099852
    28  C   -0.072345
    29  C   -0.079022
    30  C    0.067457
    31  C    0.035578
    32  C   -0.063032
    33  C   -0.063047
    34  N   -0.521826
    35  C    0.166983
    36  C   -0.192062
    37  C   -0.080222
    38  C    0.195945
    39  C    0.063912
    40  C    0.148300
    41  O   -0.148032
    42  C   -0.164921
    43  C    0.270854
    44  O   -0.302048
    45  O   -0.337569
    46  C    0.136671
    47  C    0.235419
    48  C   -0.149114
    49  C   -0.233227
    50  C    0.036034
    51  C    0.028509
    52  C   -0.073413
    53  C    0.021895
    54  C   -0.190241
    55  C   -0.004932
    56  C   -0.060924
    57  C   -0.033167
    58  C    0.002823
    59  C   -0.250001
    60  C    0.015564
    61  C   -0.022403
    62  C   -0.033624
    63  C   -0.021994
    64  C   -0.264007
    65  C    0.028989
    66  C   -0.039993
    67  H   -0.006545
    68  H    0.033651
    69  H   -0.002157
    70  H    0.057540
    71  H    0.051984
    72  H    0.066195
    73  H    0.033044
    74  H    0.041337
    75  H    0.074572
    76  H    0.094264
    77  H    0.057713
    78  H    0.040220
    79  H    0.036807
    80  H    0.058339
    81  H    0.052166
    82  H    0.069134
    83  H    0.040899
    84  H    0.052371
    85  H    0.039724
    86  H    0.039058
    87  H    0.044001
    88  H    0.032252
    89  H    0.053962
    90  H    0.038631
    91  H    0.041864
    92  H    0.052997
    93  H    0.044724
    94  H    0.053955
    95  H    0.062591
    96  H    0.051314
    97  H    0.052341
    98  H    0.081675
    99  H    0.033502
   100  H    0.069479
   101  H    0.066541
   102  H    0.065672
   103  H    0.068826
   104  H    0.026132
   105  H    0.045764
   106  H    0.035523
   107  H    0.052126
   108  H    0.020167
   109  H    0.041051
   110  H    0.032804
   111  H    0.025898
   112  H    0.014469
   113  H    0.040328
   114  H    0.037505
   115  H    0.055905
   116  H    0.029181
   117  H    0.023450
   118  H    0.009644
   119  H    0.026614
   120  H    0.045613
   121  H    0.039516
   122  H    0.021618
   123  H    0.034702
   124  H    0.024775
   125  H    0.027224
   126  H    0.021933
   127  H    0.035710
   128  H    0.037074
   129  H    0.020065
   130  H    0.025025
   131  H    0.024978
   132  H    0.033668
   133  H    0.027190
   134  H    0.027589
   135  H    0.039383
   136  H    0.018536
   137  H    0.031775
   138  H    0.038508
   139  H    0.038626
   140  H    0.039364
 Sum of Mulliken charges =  -0.00000

 Dipole moment (field-independent basis, Debye):
    X=             -3.6814    Y=              2.8994    Z=             -0.6630  Tot=              4.7327
 Quadrupole moment (field-independent basis, Debye-Ang):
   XX=           -375.2221   YY=           -413.5285   ZZ=           -400.8937
   XY=             -5.1469   XZ=              0.7019   YZ=            -12.4417

 Normal termination of Gaussian 16 at Thu Apr 28 20:37:25 2022.
