 Gaussian 16, Revision A.03,
 Gaussian 16:  ES64L-G16RevA.03 25-Dec-2016

 --------------------------------
 #p wB97XD/Def2SVP td=(nstates=5)
 --------------------------------

 ----------------------------------------------------
 step_1751_chromophore_1 TDDFT with wB97XD functional
 ----------------------------------------------------
 Symbolic Z-matrix:
 Charge =  0 Multiplicity = 1

                         Standard orientation:
 ---------------------------------------------------------------------
 Center     Atomic      Atomic             Coordinates (Angstroms)
 Number     Number       Type             X           Y           Z
 ---------------------------------------------------------------------
      1         12           0        6.080118    0.549182   -0.320643
      2          6           0        3.828140   -2.152111   -0.602193
      3          6           0        3.666135    2.644713   -1.433932
      4          6           0        8.256658    3.004426    0.252184
      5          6           0        8.615353   -1.836372    0.451276
      6          7           0        4.025895    0.252175   -1.041363
      7          6           0        3.299645   -0.901725   -0.995094
      8          6           0        1.937675   -0.739680   -1.717271
      9          6           0        1.873292    0.851113   -2.015063
     10          6           0        3.246168    1.295902   -1.461097
     11          6           0        1.724285    1.176616   -3.520115
     12          6           0        0.883550   -1.276396   -0.739178
     13          6           0       -0.619620   -0.904487   -1.176665
     14          6           0       -1.691773   -1.955330   -0.752955
     15          8           0       -1.805395   -3.058832   -1.278082
     16          8           0       -2.593978   -1.454507    0.143629
     17          7           0        5.976427    2.608236   -0.612943
     18          6           0        4.859733    3.276230   -0.951197
     19          6           0        5.045794    4.712882   -0.729769
     20          6           0        6.383724    4.853377   -0.202182
     21          6           0        6.953204    3.467602   -0.174504
     22          6           0        3.967091    5.779050   -0.995914
     23          6           0        7.040366    6.120140    0.363746
     24          8           0        8.183126    6.090322    0.745064
     25          6           0        6.235120    7.324168    0.577910
     26          7           0        8.120250    0.577125    0.281922
     27          6           0        8.798263    1.752339    0.330425
     28          6           0       10.250950    1.447438    0.598610
     29          6           0       10.325780   -0.079047    0.921042
     30          6           0        8.939624   -0.531405    0.553413
     31          6           0       11.240977    1.970722   -0.452147
     32          6           0       10.659874   -0.554750    2.417794
     33          6           0        9.422450   -0.559745    3.390962
     34          7           0        6.267150   -1.479216   -0.165600
     35          6           0        7.336776   -2.336487    0.181177
     36          6           0        6.895477   -3.687207    0.212032
     37          6           0        5.516806   -3.665194   -0.082735
     38          6           0        5.166336   -2.342968   -0.314524
     39          6           0        7.759894   -4.890734    0.515848
     40          6           0        4.353880   -4.547765   -0.155802
     41          8           0        4.167346   -5.711863   -0.102922
     42          6           0        3.262557   -3.516814   -0.510150
     43          6           0        2.348310   -3.590982    0.642229
     44          8           0        2.356029   -2.773386    1.598622
     45          8           0        1.511248   -4.648674    0.610283
     46          6           0        0.498567   -4.739124    1.688293
     47          6           0       -3.659978   -2.340938    0.674823
     48          6           0       -5.008845   -2.036961   -0.023509
     49          6           0       -5.946758   -2.895761   -0.491919
     50          6           0       -6.029450   -4.346825   -0.068697
     51          6           0       -7.009255   -2.405477   -1.478194
     52          6           0       -8.099557   -1.635725   -0.758117
     53          6           0       -7.932993   -0.106674   -0.835233
     54          6           0       -9.293985    0.592932   -0.481654
     55          6           0       -9.995287    1.200761   -1.725508
     56          6           0       -9.083075    1.686432    0.582688
     57          6           0      -10.280610    2.641018    0.949119
     58          6           0      -10.758703    2.152679    2.292399
     59          6           0      -12.305393    2.326558    2.367468
     60          6           0      -12.812404    2.874403    3.671549
     61          6           0      -13.031565    0.958972    1.996754
     62          6           0      -14.584768    1.005216    1.698872
     63          6           0      -15.119487    0.226561    0.469187
     64          6           0      -15.217248    1.102718   -0.839181
     65          6           0      -16.386674    0.764894   -1.654520
     66          6           0      -13.976823    0.956675   -1.719422
     67          1           0        2.868687    3.294607   -1.800409
     68          1           0        8.892647    3.837448    0.557706
     69          1           0        9.378459   -2.562353    0.735611
     70          1           0        1.936112   -1.377843   -2.601327
     71          1           0        1.079450    1.306867   -1.424951
     72          1           0        2.608559    1.679732   -3.909865
     73          1           0        0.829613    1.781321   -3.670049
     74          1           0        1.423185    0.285699   -4.071962
     75          1           0        1.050290   -0.922921    0.278486
     76          1           0        0.782345   -2.358017   -0.828805
     77          1           0       -0.766951   -0.538217   -2.192824
     78          1           0       -0.798934    0.041137   -0.663728
     79          1           0        3.044445    5.372348   -1.410654
     80          1           0        4.365155    6.497248   -1.713241
     81          1           0        3.646571    6.407265   -0.164988
     82          1           0        5.464073    7.043005    1.294895
     83          1           0        5.741247    7.590489   -0.356831
     84          1           0        6.623164    8.295383    0.885600
     85          1           0       10.444663    1.901104    1.570698
     86          1           0       11.013808   -0.609769    0.263999
     87          1           0       10.767952    2.867136   -0.853815
     88          1           0       11.285830    1.333279   -1.336091
     89          1           0       12.246707    2.090941   -0.048795
     90          1           0       11.392963    0.141594    2.824493
     91          1           0       11.098133   -1.552506    2.423717
     92          1           0        8.790663    0.313177    3.230581
     93          1           0        9.715894   -0.480735    4.438283
     94          1           0        8.934803   -1.509625    3.170795
     95          1           0        7.067947   -5.726526    0.409379
     96          1           0        8.152724   -4.816388    1.530200
     97          1           0        8.612884   -5.048395   -0.144879
     98          1           0        2.744889   -3.920005   -1.380429
     99          1           0       -0.281849   -4.047647    1.370915
    100          1           0        0.885612   -4.327542    2.620873
    101          1           0       -0.116715   -5.627608    1.826357
    102          1           0       -3.760532   -2.209605    1.751673
    103          1           0       -3.418870   -3.356858    0.361109
    104          1           0       -5.193736   -1.014233   -0.353812
    105          1           0       -7.004555   -4.549819    0.375370
    106          1           0       -5.226950   -4.539839    0.643129
    107          1           0       -5.992712   -4.966107   -0.965023
    108          1           0       -7.488308   -3.251494   -1.971205
    109          1           0       -6.601698   -1.736033   -2.236018
    110          1           0       -8.214553   -1.944140    0.281181
    111          1           0       -9.001319   -2.046523   -1.212418
    112          1           0       -7.730726    0.004480   -1.900023
    113          1           0       -7.077776    0.331573   -0.321719
    114          1           0       -9.972262   -0.118179   -0.010585
    115          1           0      -10.072336    2.287964   -1.761627
    116          1           0      -10.977035    0.730093   -1.682834
    117          1           0       -9.580568    0.775214   -2.638555
    118          1           0       -8.336443    2.366209    0.172207
    119          1           0       -8.577677    1.293669    1.464385
    120          1           0      -11.122314    2.504487    0.272047
    121          1           0       -9.915460    3.667733    0.978087
    122          1           0      -10.190539    2.818460    2.941403
    123          1           0      -10.429606    1.181257    2.663363
    124          1           0      -12.743021    3.070852    1.703022
    125          1           0      -11.944456    2.873020    4.331532
    126          1           0      -13.560741    2.195200    4.079629
    127          1           0      -13.305056    3.840960    3.559734
    128          1           0      -12.746949    0.226108    2.750546
    129          1           0      -12.702445    0.732970    0.981916
    130          1           0      -14.922784    2.041351    1.679258
    131          1           0      -15.086405    0.559008    2.556563
    132          1           0      -16.052576   -0.278540    0.718587
    133          1           0      -14.390509   -0.516800    0.144141
    134          1           0      -15.241477    2.161594   -0.584251
    135          1           0      -17.048799    1.630562   -1.642201
    136          1           0      -16.869024   -0.071494   -1.148493
    137          1           0      -16.160939    0.397383   -2.655218
    138          1           0      -13.072048    0.881656   -1.116145
    139          1           0      -13.900501    1.902496   -2.256184
    140          1           0      -14.017026    0.089640   -2.378802
 ---------------------------------------------------------------------

 SCF Done:  E(RwB97XD) =  -3007.86615442     A.U. after   17 cycles

 Excitation energies and oscillator strengths:

 Excited State   1:      Singlet-A      1.6291 eV  761.08 nm  f=0.3931  <S**2>=0.000
     245 -> 248        0.18593
     246 -> 247        0.68449
     245 <- 248        0.11935
 This state for optimization and/or second-order correction.
 Total Energy, E(TD-HF/TD-DFT) =  -3007.80628763
 Copying the excited state density for this state as the 1-particle RhoCI density.

 Excited State   2:      Singlet-A      2.1789 eV  569.03 nm  f=0.1243  <S**2>=0.000
     245 -> 247        0.64332
     246 -> 248       -0.28054

 Excited State   3:      Singlet-A      3.3155 eV  373.95 nm  f=0.0009  <S**2>=0.000
     243 -> 247        0.68791

 Excited State   4:      Singlet-A      3.5370 eV  350.53 nm  f=0.2007  <S**2>=0.000
     242 -> 247        0.51247
     245 -> 247        0.14238
     246 -> 248        0.44284

 Excited State   5:      Singlet-A      3.6953 eV  335.52 nm  f=0.6099  <S**2>=0.000
     240 -> 247       -0.18690
     242 -> 247        0.43619
     245 -> 247       -0.24665
     246 -> 248       -0.42601

 The electronic state is 1-A.
 Alpha  occ. eigenvalues --  -46.93820 -19.30454 -19.30224 -19.24892 -19.24872
 Alpha  occ. eigenvalues --  -19.23493 -19.23419 -14.47097 -14.45651 -14.44165
 Alpha  occ. eigenvalues --  -14.43393 -10.43783 -10.42832 -10.39207 -10.38820
 Alpha  occ. eigenvalues --  -10.36687 -10.35278 -10.35225 -10.35143 -10.34917
 Alpha  occ. eigenvalues --  -10.34158 -10.34150 -10.33797 -10.33173 -10.33067
 Alpha  occ. eigenvalues --  -10.32990 -10.32601 -10.32308 -10.31835 -10.31771
 Alpha  occ. eigenvalues --  -10.31690 -10.31631 -10.31505 -10.31436 -10.31363
 Alpha  occ. eigenvalues --  -10.31350 -10.31100 -10.31016 -10.30911 -10.30567
 Alpha  occ. eigenvalues --  -10.30398 -10.29943 -10.29815 -10.29785 -10.29758
 Alpha  occ. eigenvalues --  -10.29738 -10.29708 -10.29470 -10.29402 -10.29363
 Alpha  occ. eigenvalues --  -10.29151 -10.29132 -10.29098 -10.29088 -10.29055
 Alpha  occ. eigenvalues --  -10.28930 -10.28929 -10.28868 -10.28806 -10.28654
 Alpha  occ. eigenvalues --  -10.28405 -10.28313 -10.28199 -10.28178 -10.27509
 Alpha  occ. eigenvalues --  -10.27391  -3.19851  -1.93462  -1.92957  -1.92848
 Alpha  occ. eigenvalues --   -1.18187  -1.18018  -1.14998  -1.13057  -1.09646
 Alpha  occ. eigenvalues --   -1.07784  -1.05726  -1.04900  -1.04459  -1.03392
 Alpha  occ. eigenvalues --   -0.95698  -0.92490  -0.91691  -0.91029  -0.90874
 Alpha  occ. eigenvalues --   -0.90674  -0.89500  -0.89441  -0.89102  -0.88553
 Alpha  occ. eigenvalues --   -0.87776  -0.86995  -0.86330  -0.85508  -0.85027
 Alpha  occ. eigenvalues --   -0.84365  -0.83984  -0.83369  -0.82834  -0.82478
 Alpha  occ. eigenvalues --   -0.81964  -0.79993  -0.79855  -0.79137  -0.78159
 Alpha  occ. eigenvalues --   -0.77587  -0.77360  -0.76929  -0.76376  -0.76015
 Alpha  occ. eigenvalues --   -0.75320  -0.74633  -0.73835  -0.72353  -0.71009
 Alpha  occ. eigenvalues --   -0.70583  -0.70234  -0.68967  -0.68480  -0.67765
 Alpha  occ. eigenvalues --   -0.67460  -0.66824  -0.66321  -0.66076  -0.65123
 Alpha  occ. eigenvalues --   -0.65017  -0.64825  -0.63821  -0.63748  -0.62297
 Alpha  occ. eigenvalues --   -0.61720  -0.61510  -0.60878  -0.60589  -0.60180
 Alpha  occ. eigenvalues --   -0.59539  -0.59287  -0.57946  -0.57629  -0.57265
 Alpha  occ. eigenvalues --   -0.56778  -0.56471  -0.56445  -0.56289  -0.56169
 Alpha  occ. eigenvalues --   -0.55841  -0.55633  -0.55157  -0.55070  -0.54740
 Alpha  occ. eigenvalues --   -0.54612  -0.54457  -0.54275  -0.54172  -0.53508
 Alpha  occ. eigenvalues --   -0.53217  -0.52904  -0.52863  -0.52739  -0.52576
 Alpha  occ. eigenvalues --   -0.52395  -0.52084  -0.52068  -0.51766  -0.51576
 Alpha  occ. eigenvalues --   -0.51379  -0.51128  -0.50975  -0.50871  -0.50700
 Alpha  occ. eigenvalues --   -0.50593  -0.50374  -0.50213  -0.50013  -0.49844
 Alpha  occ. eigenvalues --   -0.49648  -0.49532  -0.49048  -0.48569  -0.48377
 Alpha  occ. eigenvalues --   -0.48225  -0.48148  -0.47851  -0.47767  -0.47651
 Alpha  occ. eigenvalues --   -0.47595  -0.47247  -0.47131  -0.47083  -0.46955
 Alpha  occ. eigenvalues --   -0.46818  -0.46434  -0.46135  -0.45800  -0.45595
 Alpha  occ. eigenvalues --   -0.45538  -0.45223  -0.44915  -0.44859  -0.44818
 Alpha  occ. eigenvalues --   -0.44646  -0.44617  -0.44180  -0.44119  -0.43995
 Alpha  occ. eigenvalues --   -0.43922  -0.43745  -0.43356  -0.43204  -0.43008
 Alpha  occ. eigenvalues --   -0.42806  -0.42532  -0.42387  -0.42288  -0.41887
 Alpha  occ. eigenvalues --   -0.41585  -0.41280  -0.41051  -0.40852  -0.40596
 Alpha  occ. eigenvalues --   -0.39865  -0.39682  -0.39582  -0.39321  -0.38851
 Alpha  occ. eigenvalues --   -0.38732  -0.38546  -0.38473  -0.38285  -0.37690
 Alpha  occ. eigenvalues --   -0.37512  -0.37493  -0.37104  -0.36248  -0.35862
 Alpha  occ. eigenvalues --   -0.35356  -0.35301  -0.35198  -0.33302  -0.33116
 Alpha  occ. eigenvalues --   -0.32869  -0.32232  -0.31656  -0.31388  -0.25849
 Alpha  occ. eigenvalues --   -0.22850
 Alpha virt. eigenvalues --   -0.07050   0.00566   0.02690   0.04741   0.06600
 Alpha virt. eigenvalues --    0.07456   0.07830   0.08071   0.08442   0.09376
 Alpha virt. eigenvalues --    0.10974   0.11788   0.11959   0.12337   0.12675

 Mulliken charges:
               1
     1  Mg   0.963473
     2  C    0.024943
     3  C   -0.067750
     4  C   -0.080540
     5  C   -0.099173
     6  N   -0.344799
     7  C    0.025512
     8  C   -0.104189
     9  C   -0.075240
    10  C    0.023602
    11  C    0.026659
    12  C   -0.046724
    13  C    0.000934
    14  C    0.235906
    15  O   -0.273775
    16  O   -0.363208
    17  N   -0.446095
    18  C    0.163691
    19  C   -0.142380
    20  C   -0.103635
    21  C    0.106534
    22  C    0.049878
    23  C    0.074270
    24  O   -0.217853
    25  C   -0.014229
    26  N   -0.391052
    27  C    0.091081
    28  C   -0.046622
    29  C   -0.062401
    30  C    0.063583
    31  C    0.047813
    32  C   -0.050440
    33  C   -0.039625
    34  N   -0.488494
    35  C    0.161722
    36  C   -0.192903
    37  C   -0.079024
    38  C    0.180823
    39  C    0.073629
    40  C    0.132969
    41  O   -0.137381
    42  C   -0.127816
    43  C    0.249340
    44  O   -0.297588
    45  O   -0.336376
    46  C    0.155425
    47  C    0.256512
    48  C   -0.163459
    49  C   -0.215858
    50  C    0.049845
    51  C    0.048091
    52  C   -0.058471
    53  C    0.038495
    54  C   -0.160837
    55  C    0.012364
    56  C   -0.043028
    57  C   -0.010313
    58  C    0.012644
    59  C   -0.215244
    60  C    0.025389
    61  C    0.007389
    62  C   -0.022324
    63  C   -0.000018
    64  C   -0.238152
    65  C    0.038759
    66  C   -0.009275
    67  H   -0.015018
    68  H    0.028693
    69  H   -0.006935
    70  H    0.048487
    71  H    0.041732
    72  H    0.060797
    73  H    0.027635
    74  H    0.035492
    75  H    0.068553
    76  H    0.074819
    77  H    0.052345
    78  H    0.033045
    79  H    0.032757
    80  H    0.052519
    81  H    0.047130
    82  H    0.062782
    83  H    0.033325
    84  H    0.051932
    85  H    0.028418
    86  H    0.029800
    87  H    0.036504
    88  H    0.025940
    89  H    0.049437
    90  H    0.030499
    91  H    0.034921
    92  H    0.042577
    93  H    0.039785
    94  H    0.044198
    95  H    0.058096
    96  H    0.046086
    97  H    0.048001
    98  H    0.077648
    99  H    0.025780
   100  H    0.065902
   101  H    0.064203
   102  H    0.062498
   103  H    0.060263
   104  H    0.018990
   105  H    0.039867
   106  H    0.029431
   107  H    0.046751
   108  H    0.014201
   109  H    0.032844
   110  H    0.022155
   111  H    0.018278
   112  H    0.001739
   113  H    0.032017
   114  H    0.023477
   115  H    0.050519
   116  H    0.018242
   117  H    0.017638
   118  H   -0.001101
   119  H    0.016673
   120  H    0.026796
   121  H    0.034238
   122  H    0.013036
   123  H    0.026075
   124  H    0.010787
   125  H    0.020774
   126  H    0.014721
   127  H    0.031510
   128  H    0.029639
   129  H   -0.006908
   130  H    0.015296
   131  H    0.017476
   132  H    0.026530
   133  H    0.015923
   134  H    0.016073
   135  H    0.034647
   136  H    0.011276
   137  H    0.026138
   138  H    0.013131
   139  H    0.032563
   140  H    0.032919
 Sum of Mulliken charges =  -0.00000

 Dipole moment (field-independent basis, Debye):
    X=             -3.8422    Y=              2.9461    Z=             -0.6429  Tot=              4.8842
 Quadrupole moment (field-independent basis, Debye-Ang):
   XX=           -377.4908   YY=           -411.7288   ZZ=           -400.4796
   XY=             -4.6649   XZ=              0.3539   YZ=            -12.5993

 Normal termination of Gaussian 16 at Thu Apr 28 21:08:19 2022.
