 Gaussian 16, Revision A.03,
 Gaussian 16:  ES64L-G16RevA.03 25-Dec-2016

 --------------------
 #p ZINDO=(nstates=5)
 --------------------

 -----------------------------
 step_1751_chromophore_1 ZINDO
 -----------------------------
 Symbolic Z-matrix:
 Charge =  0 Multiplicity = 1

                         Standard orientation:
 ---------------------------------------------------------------------
 Center     Atomic      Atomic             Coordinates (Angstroms)
 Number     Number       Type             X           Y           Z
 ---------------------------------------------------------------------
      1         12           0        6.080118    0.549182   -0.320643
      2          6           0        3.828140   -2.152111   -0.602193
      3          6           0        3.666135    2.644713   -1.433932
      4          6           0        8.256658    3.004426    0.252184
      5          6           0        8.615353   -1.836372    0.451276
      6          7           0        4.025895    0.252175   -1.041363
      7          6           0        3.299645   -0.901725   -0.995094
      8          6           0        1.937675   -0.739680   -1.717271
      9          6           0        1.873292    0.851113   -2.015063
     10          6           0        3.246168    1.295902   -1.461097
     11          6           0        1.724285    1.176616   -3.520115
     12          6           0        0.883550   -1.276396   -0.739178
     13          6           0       -0.619620   -0.904487   -1.176665
     14          6           0       -1.691773   -1.955330   -0.752955
     15          8           0       -1.805395   -3.058832   -1.278082
     16          8           0       -2.593978   -1.454507    0.143629
     17          7           0        5.976427    2.608236   -0.612943
     18          6           0        4.859733    3.276230   -0.951197
     19          6           0        5.045794    4.712882   -0.729769
     20          6           0        6.383724    4.853377   -0.202182
     21          6           0        6.953204    3.467602   -0.174504
     22          6           0        3.967091    5.779050   -0.995914
     23          6           0        7.040366    6.120140    0.363746
     24          8           0        8.183126    6.090322    0.745064
     25          6           0        6.235120    7.324168    0.577910
     26          7           0        8.120250    0.577125    0.281922
     27          6           0        8.798263    1.752339    0.330425
     28          6           0       10.250950    1.447438    0.598610
     29          6           0       10.325780   -0.079047    0.921042
     30          6           0        8.939624   -0.531405    0.553413
     31          6           0       11.240977    1.970722   -0.452147
     32          6           0       10.659874   -0.554750    2.417794
     33          6           0        9.422450   -0.559745    3.390962
     34          7           0        6.267150   -1.479216   -0.165600
     35          6           0        7.336776   -2.336487    0.181177
     36          6           0        6.895477   -3.687207    0.212032
     37          6           0        5.516806   -3.665194   -0.082735
     38          6           0        5.166336   -2.342968   -0.314524
     39          6           0        7.759894   -4.890734    0.515848
     40          6           0        4.353880   -4.547765   -0.155802
     41          8           0        4.167346   -5.711863   -0.102922
     42          6           0        3.262557   -3.516814   -0.510150
     43          6           0        2.348310   -3.590982    0.642229
     44          8           0        2.356029   -2.773386    1.598622
     45          8           0        1.511248   -4.648674    0.610283
     46          6           0        0.498567   -4.739124    1.688293
     47          6           0       -3.659978   -2.340938    0.674823
     48          6           0       -5.008845   -2.036961   -0.023509
     49          6           0       -5.946758   -2.895761   -0.491919
     50          6           0       -6.029450   -4.346825   -0.068697
     51          6           0       -7.009255   -2.405477   -1.478194
     52          6           0       -8.099557   -1.635725   -0.758117
     53          6           0       -7.932993   -0.106674   -0.835233
     54          6           0       -9.293985    0.592932   -0.481654
     55          6           0       -9.995287    1.200761   -1.725508
     56          6           0       -9.083075    1.686432    0.582688
     57          6           0      -10.280610    2.641018    0.949119
     58          6           0      -10.758703    2.152679    2.292399
     59          6           0      -12.305393    2.326558    2.367468
     60          6           0      -12.812404    2.874403    3.671549
     61          6           0      -13.031565    0.958972    1.996754
     62          6           0      -14.584768    1.005216    1.698872
     63          6           0      -15.119487    0.226561    0.469187
     64          6           0      -15.217248    1.102718   -0.839181
     65          6           0      -16.386674    0.764894   -1.654520
     66          6           0      -13.976823    0.956675   -1.719422
     67          1           0        2.868687    3.294607   -1.800409
     68          1           0        8.892647    3.837448    0.557706
     69          1           0        9.378459   -2.562353    0.735611
     70          1           0        1.936112   -1.377843   -2.601327
     71          1           0        1.079450    1.306867   -1.424951
     72          1           0        2.608559    1.679732   -3.909865
     73          1           0        0.829613    1.781321   -3.670049
     74          1           0        1.423185    0.285699   -4.071962
     75          1           0        1.050290   -0.922921    0.278486
     76          1           0        0.782345   -2.358017   -0.828805
     77          1           0       -0.766951   -0.538217   -2.192824
     78          1           0       -0.798934    0.041137   -0.663728
     79          1           0        3.044445    5.372348   -1.410654
     80          1           0        4.365155    6.497248   -1.713241
     81          1           0        3.646571    6.407265   -0.164988
     82          1           0        5.464073    7.043005    1.294895
     83          1           0        5.741247    7.590489   -0.356831
     84          1           0        6.623164    8.295383    0.885600
     85          1           0       10.444663    1.901104    1.570698
     86          1           0       11.013808   -0.609769    0.263999
     87          1           0       10.767952    2.867136   -0.853815
     88          1           0       11.285830    1.333279   -1.336091
     89          1           0       12.246707    2.090941   -0.048795
     90          1           0       11.392963    0.141594    2.824493
     91          1           0       11.098133   -1.552506    2.423717
     92          1           0        8.790663    0.313177    3.230581
     93          1           0        9.715894   -0.480735    4.438283
     94          1           0        8.934803   -1.509625    3.170795
     95          1           0        7.067947   -5.726526    0.409379
     96          1           0        8.152724   -4.816388    1.530200
     97          1           0        8.612884   -5.048395   -0.144879
     98          1           0        2.744889   -3.920005   -1.380429
     99          1           0       -0.281849   -4.047647    1.370915
    100          1           0        0.885612   -4.327542    2.620873
    101          1           0       -0.116715   -5.627608    1.826357
    102          1           0       -3.760532   -2.209605    1.751673
    103          1           0       -3.418870   -3.356858    0.361109
    104          1           0       -5.193736   -1.014233   -0.353812
    105          1           0       -7.004555   -4.549819    0.375370
    106          1           0       -5.226950   -4.539839    0.643129
    107          1           0       -5.992712   -4.966107   -0.965023
    108          1           0       -7.488308   -3.251494   -1.971205
    109          1           0       -6.601698   -1.736033   -2.236018
    110          1           0       -8.214553   -1.944140    0.281181
    111          1           0       -9.001319   -2.046523   -1.212418
    112          1           0       -7.730726    0.004480   -1.900023
    113          1           0       -7.077776    0.331573   -0.321719
    114          1           0       -9.972262   -0.118179   -0.010585
    115          1           0      -10.072336    2.287964   -1.761627
    116          1           0      -10.977035    0.730093   -1.682834
    117          1           0       -9.580568    0.775214   -2.638555
    118          1           0       -8.336443    2.366209    0.172207
    119          1           0       -8.577677    1.293669    1.464385
    120          1           0      -11.122314    2.504487    0.272047
    121          1           0       -9.915460    3.667733    0.978087
    122          1           0      -10.190539    2.818460    2.941403
    123          1           0      -10.429606    1.181257    2.663363
    124          1           0      -12.743021    3.070852    1.703022
    125          1           0      -11.944456    2.873020    4.331532
    126          1           0      -13.560741    2.195200    4.079629
    127          1           0      -13.305056    3.840960    3.559734
    128          1           0      -12.746949    0.226108    2.750546
    129          1           0      -12.702445    0.732970    0.981916
    130          1           0      -14.922784    2.041351    1.679258
    131          1           0      -15.086405    0.559008    2.556563
    132          1           0      -16.052576   -0.278540    0.718587
    133          1           0      -14.390509   -0.516800    0.144141
    134          1           0      -15.241477    2.161594   -0.584251
    135          1           0      -17.048799    1.630562   -1.642201
    136          1           0      -16.869024   -0.071494   -1.148493
    137          1           0      -16.160939    0.397383   -2.655218
    138          1           0      -13.072048    0.881656   -1.116145
    139          1           0      -13.900501    1.902496   -2.256184
    140          1           0      -14.017026    0.089640   -2.378802
 ---------------------------------------------------------------------

 SCF Done:  E(RZINDO/S) =  -474.349906890     A.U. after   17 cycles

 Excitation energies and oscillator strengths:

 Excited State   1:      Singlet-A      1.2315 eV 1006.75 nm  f=0.6212  <S**2>=0.000
     175 ->178         0.18817
     176 ->177         0.66259
 This state for optimization and/or second-order correction.
 Total Energy, E(CIS/TDA) =  -474.304648997
 Copying the excited state density for this state as the 1-particle RhoCI density.

 Excited State   2:      Singlet-A      1.9175 eV  646.59 nm  f=0.0646  <S**2>=0.000
     175 ->177         0.56029
     176 ->178        -0.39901

 Excited State   3:      Singlet-A      2.9649 eV  418.18 nm  f=0.5521  <S**2>=0.000
     169 ->177         0.13051
     169 ->179        -0.14088
     175 ->177         0.27610
     176 ->178         0.46116
     176 ->179         0.28188

 Excited State   4:      Singlet-A      3.0177 eV  410.85 nm  f=0.1939  <S**2>=0.000
     169 ->177         0.30072
     169 ->178        -0.21104
     169 ->179        -0.31544
     169 ->180         0.19343
     169 ->186        -0.15371
     169 ->187        -0.11459
     175 ->177        -0.14721
     176 ->178        -0.23377
     176 ->179        -0.10758

 Excited State   5:      Singlet-A      3.0476 eV  406.83 nm  f=0.0026  <S**2>=0.000
     168 ->177         0.28019
     168 ->179         0.32351
     168 ->180         0.37525
     168 ->183         0.17066
     168 ->186         0.23766
     168 ->187        -0.12987
     168 ->195         0.11137

 The electronic state is 1-A.
 Alpha  occ. eigenvalues --   -1.84309  -1.80802  -1.78947  -1.73188  -1.71360
 Alpha  occ. eigenvalues --   -1.69540  -1.66168  -1.61642  -1.60444  -1.60060
 Alpha  occ. eigenvalues --   -1.57481  -1.51880  -1.51180  -1.48026  -1.45130
 Alpha  occ. eigenvalues --   -1.43750  -1.40577  -1.39439  -1.39305  -1.38067
 Alpha  occ. eigenvalues --   -1.36691  -1.33101  -1.32936  -1.30662  -1.28610
 Alpha  occ. eigenvalues --   -1.27910  -1.24905  -1.22599  -1.20632  -1.18048
 Alpha  occ. eigenvalues --   -1.17585  -1.16666  -1.14805  -1.13242  -1.12591
 Alpha  occ. eigenvalues --   -1.11250  -1.10481  -1.10131  -1.04682  -1.04042
 Alpha  occ. eigenvalues --   -1.03378  -1.01088  -0.98836  -0.97914  -0.97192
 Alpha  occ. eigenvalues --   -0.95838  -0.94434  -0.94081  -0.93033  -0.92170
 Alpha  occ. eigenvalues --   -0.90759  -0.89775  -0.88375  -0.87770  -0.85743
 Alpha  occ. eigenvalues --   -0.84063  -0.83611  -0.83330  -0.81125  -0.80496
 Alpha  occ. eigenvalues --   -0.78859  -0.78531  -0.77464  -0.77144  -0.76779
 Alpha  occ. eigenvalues --   -0.75879  -0.75808  -0.75386  -0.74775  -0.73764
 Alpha  occ. eigenvalues --   -0.73251  -0.72539  -0.72304  -0.71277  -0.70234
 Alpha  occ. eigenvalues --   -0.70128  -0.69639  -0.69469  -0.68577  -0.67569
 Alpha  occ. eigenvalues --   -0.66629  -0.66376  -0.66268  -0.65781  -0.65600
 Alpha  occ. eigenvalues --   -0.65314  -0.65156  -0.64752  -0.63193  -0.62945
 Alpha  occ. eigenvalues --   -0.62894  -0.62016  -0.61910  -0.61697  -0.61633
 Alpha  occ. eigenvalues --   -0.61557  -0.61035  -0.60801  -0.59842  -0.59807
 Alpha  occ. eigenvalues --   -0.59622  -0.59357  -0.59192  -0.58719  -0.58546
 Alpha  occ. eigenvalues --   -0.58043  -0.57581  -0.57316  -0.57280  -0.57024
 Alpha  occ. eigenvalues --   -0.56601  -0.55913  -0.55464  -0.55259  -0.54668
 Alpha  occ. eigenvalues --   -0.54398  -0.54154  -0.52898  -0.52708  -0.52693
 Alpha  occ. eigenvalues --   -0.51745  -0.51719  -0.51673  -0.51455  -0.51254
 Alpha  occ. eigenvalues --   -0.51121  -0.50801  -0.50339  -0.50084  -0.49996
 Alpha  occ. eigenvalues --   -0.49622  -0.49425  -0.49022  -0.48858  -0.48615
 Alpha  occ. eigenvalues --   -0.48454  -0.48179  -0.47805  -0.47644  -0.47591
 Alpha  occ. eigenvalues --   -0.47463  -0.47006  -0.46642  -0.46434  -0.46329
 Alpha  occ. eigenvalues --   -0.45915  -0.45802  -0.45462  -0.45386  -0.45224
 Alpha  occ. eigenvalues --   -0.44952  -0.44865  -0.44691  -0.44411  -0.43280
 Alpha  occ. eigenvalues --   -0.43082  -0.43022  -0.42727  -0.42366  -0.42190
 Alpha  occ. eigenvalues --   -0.41430  -0.40428  -0.40414  -0.38787  -0.38649
 Alpha  occ. eigenvalues --   -0.37691  -0.36660  -0.35075  -0.34834  -0.34568
 Alpha  occ. eigenvalues --   -0.33150  -0.32582  -0.32119  -0.31221  -0.26425
 Alpha  occ. eigenvalues --   -0.21691
 Alpha virt. eigenvalues --   -0.08579  -0.01891  -0.00140   0.01254   0.01899
 Alpha virt. eigenvalues --    0.02914   0.03398   0.03794   0.04937   0.05453
 Alpha virt. eigenvalues --    0.06367   0.06860   0.07216   0.07943   0.08411

 Mulliken charges:
               1
     1  Mg   0.420464
     2  C   -0.016478
     3  C   -0.078014
     4  C   -0.067956
     5  C   -0.061470
     6  N   -0.266712
     7  C    0.117042
     8  C   -0.002484
     9  C    0.004595
    10  C    0.120507
    11  C   -0.051114
    12  C   -0.023052
    13  C   -0.015388
    14  C    0.471592
    15  O   -0.520669
    16  O   -0.269423
    17  N   -0.306159
    18  C    0.113104
    19  C   -0.001307
    20  C   -0.057001
    21  C    0.133054
    22  C   -0.041801
    23  C    0.342693
    24  O   -0.519788
    25  C   -0.025814
    26  N   -0.294348
    27  C    0.158415
    28  C    0.012153
    29  C   -0.005396
    30  C    0.134961
    31  C   -0.048547
    32  C   -0.031273
    33  C   -0.058381
    34  N   -0.353914
    35  C    0.103988
    36  C    0.019176
    37  C   -0.050476
    38  C    0.106156
    39  C   -0.042246
    40  C    0.345037
    41  O   -0.494839
    42  C    0.068244
    43  C    0.496145
    44  O   -0.571159
    45  O   -0.251125
    46  C    0.068202
    47  C    0.106522
    48  C   -0.109769
    49  C    0.002320
    50  C   -0.042110
    51  C   -0.019926
    52  C   -0.027001
    53  C   -0.034927
    54  C   -0.009831
    55  C   -0.062241
    56  C   -0.042544
    57  C   -0.036611
    58  C   -0.032325
    59  C   -0.020753
    60  C   -0.060889
    61  C   -0.045649
    62  C   -0.039756
    63  C   -0.036180
    64  C   -0.009796
    65  C   -0.053076
    66  C   -0.057485
    67  H    0.018454
    68  H    0.040636
    69  H    0.025103
    70  H    0.039668
    71  H    0.037970
    72  H    0.035972
    73  H    0.014376
    74  H    0.022190
    75  H    0.050504
    76  H    0.038540
    77  H    0.048054
    78  H    0.016988
    79  H    0.022171
    80  H    0.025993
    81  H    0.030523
    82  H    0.036799
    83  H    0.025008
    84  H    0.040105
    85  H    0.027711
    86  H    0.024540
    87  H    0.026168
    88  H    0.018638
    89  H    0.028147
    90  H    0.014404
    91  H    0.023072
    92  H    0.027241
    93  H    0.016169
    94  H    0.027825
    95  H    0.029921
    96  H    0.031171
    97  H    0.030292
    98  H    0.057444
    99  H    0.024406
   100  H    0.053666
   101  H    0.050265
   102  H    0.048684
   103  H    0.058021
   104  H    0.023843
   105  H    0.027269
   106  H    0.026877
   107  H    0.031236
   108  H    0.016484
   109  H    0.027566
   110  H    0.014453
   111  H    0.015211
   112  H    0.014998
   113  H    0.034540
   114  H    0.021123
   115  H    0.032487
   116  H    0.014184
   117  H    0.016355
   118  H   -0.001234
   119  H    0.017113
   120  H    0.026369
   121  H    0.027696
   122  H    0.009080
   123  H    0.030122
   124  H    0.020527
   125  H    0.018666
   126  H    0.013331
   127  H    0.020544
   128  H    0.030292
   129  H    0.015624
   130  H    0.021848
   131  H    0.007341
   132  H    0.024305
   133  H    0.018705
   134  H    0.017291
   135  H    0.017564
   136  H    0.012897
   137  H    0.021755
   138  H    0.011935
   139  H    0.013686
   140  H    0.023908
 Sum of Mulliken charges =  -0.00000

 Dipole moment (field-independent basis, Debye):
    X=             -4.2164    Y=              4.3503    Z=             -2.0767  Tot=              6.4044
 N-N= 4.271096051212D+03 E-N= 0.000000000000D+00  KE=-9.217166358635D+03
 Leave Link  601 at Thu Apr 28 21:20:27 2022, MaxMem=  6710886400 cpu:               0.7 elap:               0.0
 (Enter /sw/apps/gaussian-16.0/g16/l9999.exe)
 1\1\GINC-BP1-COMPUTE158\SP\RZINDO CIS\STO-3G\C55H74Mg1N4O6\OF15641\28-
 Apr-2022\0\\#p ZINDO=(nstates=5)\\step_1751_chromophore_1 ZINDO\\0,1\M
 g,0,-2.819,18.068,25.994\C,0,-2.732,15.801,28.696\C,0,-3.373,20.601,28
 .17\C,0,-2.613,20.087,23.353\C,0,-2.632,15.251,23.816\N,0,-3.13,18.162
 ,28.167\C,0,-2.976,17.144,29.062\C,0,-3.411,17.575,30.486\C,0,-3.643,1
 9.17,30.326\C,0,-3.357,19.345,28.817\C,0,-5.079,19.61,30.697\C,0,-2.26
 1,17.16,31.414\C,0,-2.383,17.803,32.884\C,0,-1.788,16.92,34.024\O,0,-2

 Normal termination of Gaussian 16 at Thu Apr 28 21:20:27 2022.
