 Gaussian 16, Revision A.03,
 Gaussian 16:  ES64L-G16RevA.03 25-Dec-2016

 ------------------------------
 #p blyp/Def2SVP td=(nstates=5)
 ------------------------------

 ---------------------------------------------------
 step_1101_chromophore_15 TDDFT with blyp functional
 ---------------------------------------------------
 Symbolic Z-matrix:
 Charge =  0 Multiplicity = 1

                         Standard orientation:
 ---------------------------------------------------------------------
 Center     Atomic      Atomic             Coordinates (Angstroms)
 Number     Number       Type             X           Y           Z
 ---------------------------------------------------------------------
      1         12           0       -4.795551    1.041569    0.103107
      2          6           0       -4.026756   -2.502636    0.712305
      3          6           0       -1.436719    1.576188   -0.268758
      4          6           0       -5.518753    4.246238    0.130663
      5          6           0       -8.204436    0.232214    0.388494
      6          7           0       -3.002478   -0.346242    0.130980
      7          6           0       -2.929010   -1.668769    0.310648
      8          6           0       -1.515437   -2.173954   -0.015954
      9          6           0       -0.666879   -0.885761    0.216156
     10          6           0       -1.766646    0.232939    0.013465
     11          6           0        0.167661   -0.878916    1.470234
     12          6           0       -1.426888   -2.708327   -1.480549
     13          6           0       -0.472406   -3.978901   -1.771356
     14          6           0        0.881079   -4.081842   -1.016332
     15          8           0        1.026728   -4.341569    0.175148
     16          8           0        1.948914   -3.813960   -1.762612
     17          7           0       -3.701598    2.715130   -0.140206
     18          6           0       -2.288702    2.732206   -0.369332
     19          6           0       -1.872588    4.105250   -0.568989
     20          6           0       -2.998677    4.935317   -0.484050
     21          6           0       -4.203908    3.968107   -0.208755
     22          6           0       -0.426015    4.476426   -0.444266
     23          6           0       -3.046823    6.419104   -0.544907
     24          8           0       -4.099838    7.013045   -0.308035
     25          6           0       -1.862986    7.264956   -0.850930
     26          7           0       -6.611932    2.100879    0.366247
     27          6           0       -6.598920    3.409681    0.258806
     28          6           0       -8.035645    3.954373    0.226160
     29          6           0       -8.967527    2.704817    0.308115
     30          6           0       -7.884776    1.548256    0.202419
     31          6           0       -8.463140    4.995324    1.300942
     32          6           0      -10.031594    2.594893   -0.839896
     33          6           0      -11.431108    2.060569   -0.315488
     34          7           0       -5.928647   -0.761639    0.443997
     35          6           0       -7.327510   -0.905458    0.558027
     36          6           0       -7.628350   -2.287042    0.922745
     37          6           0       -6.397999   -2.875451    1.070294
     38          6           0       -5.391224   -1.980057    0.718310
     39          6           0       -8.914360   -2.933831    1.225833
     40          6           0       -5.767099   -4.145898    1.362385
     41          8           0       -6.355432   -5.182703    1.640107
     42          6           0       -4.168919   -3.910262    1.301039
     43          6           0       -3.708180   -4.924587    0.377730
     44          8           0       -3.599213   -4.895011   -0.870128
     45          8           0       -3.337176   -5.958862    1.181721
     46          6           0       -2.934736   -7.195134    0.427786
     47          6           0        3.257955   -3.664948   -1.089530
     48          6           0        4.219645   -3.069645   -2.150521
     49          6           0        5.542638   -3.191518   -2.310424
     50          6           0        6.450960   -3.847790   -1.179207
     51          6           0        6.121961   -2.567909   -3.549607
     52          6           0        6.283926   -1.026647   -3.497066
     53          6           0        7.793328   -0.657614   -3.378171
     54          6           0        8.093189    0.856321   -2.945419
     55          6           0        8.854936    1.636024   -4.099839
     56          6           0        8.781250    0.872065   -1.614479
     57          6           0        9.044328    2.227549   -0.991464
     58          6           0       10.537105    2.673352   -1.042318
     59          6           0       11.038393    2.845368    0.453255
     60          6           0       11.978630    4.087383    0.592185
     61          6           0       11.779511    1.558139    0.970302
     62          6           0       10.837270    0.798242    2.020451
     63          6           0       11.770980    0.089497    3.087070
     64          6           0       11.421614    0.531089    4.474106
     65          6           0       12.473219   -0.058504    5.505333
     66          6           0        9.983237    0.140993    4.842182
     67          1           0       -0.377803    1.837534   -0.206432
     68          1           0       -5.743171    5.314800    0.101915
     69          1           0       -9.253847    0.029136    0.613340
     70          1           0       -1.435420   -3.003222    0.688356
     71          1           0        0.027871   -0.843413   -0.622623
     72          1           0       -0.055327    0.050661    1.993890
     73          1           0        1.241819   -1.003143    1.332995
     74          1           0       -0.180281   -1.642505    2.164955
     75          1           0       -1.018180   -1.912694   -2.102989
     76          1           0       -2.430154   -2.832993   -1.887408
     77          1           0       -0.266237   -4.195156   -2.819263
     78          1           0       -0.959934   -4.924980   -1.536367
     79          1           0       -0.261965    5.104733    0.431195
     80          1           0       -0.242015    5.110884   -1.312060
     81          1           0        0.412673    3.781328   -0.446538
     82          1           0       -1.358574    7.595249    0.057195
     83          1           0       -2.440090    8.099323   -1.249981
     84          1           0       -1.237537    6.911425   -1.671770
     85          1           0       -8.220168    4.434858   -0.733749
     86          1           0       -9.334982    2.489842    1.312097
     87          1           0       -9.206770    4.567606    1.973940
     88          1           0       -8.829502    5.880807    0.780728
     89          1           0       -7.641120    5.247001    1.971100
     90          1           0       -9.704322    1.967183   -1.668692
     91          1           0      -10.231145    3.596043   -1.222358
     92          1           0      -11.199919    1.530179    0.608887
     93          1           0      -11.862408    1.374494   -1.044067
     94          1           0      -12.049727    2.898505    0.006590
     95          1           0       -9.504555   -2.975137    0.309966
     96          1           0       -9.454211   -2.368662    1.985120
     97          1           0       -8.788887   -3.980712    1.502719
     98          1           0       -3.679367   -3.964805    2.272704
     99          1           0       -3.531063   -7.498644   -0.431654
    100          1           0       -3.096016   -8.034958    1.103998
    101          1           0       -1.932482   -7.113315    0.005949
    102          1           0        3.701365   -4.614860   -0.791243
    103          1           0        3.285836   -3.033717   -0.201136
    104          1           0        3.685224   -2.718100   -3.033762
    105          1           0        7.187471   -3.160555   -0.762542
    106          1           0        6.979026   -4.711334   -1.583226
    107          1           0        5.794466   -4.181872   -0.375960
    108          1           0        5.512668   -2.845537   -4.409068
    109          1           0        7.035774   -3.104874   -3.808103
    110          1           0        6.038876   -0.705951   -2.484633
    111          1           0        5.629905   -0.563394   -4.234903
    112          1           0        8.250985   -0.996959   -4.308090
    113          1           0        8.208111   -1.250082   -2.561390
    114          1           0        7.178995    1.428984   -2.791166
    115          1           0        8.300821    2.487976   -4.494496
    116          1           0        9.067488    0.878226   -4.853793
    117          1           0        9.827623    1.955221   -3.725289
    118          1           0        9.761072    0.413161   -1.750793
    119          1           0        8.137072    0.388894   -0.879811
    120          1           0        8.641037    2.196892    0.021501
    121          1           0        8.541019    2.992829   -1.583156
    122          1           0       10.628184    3.587768   -1.628859
    123          1           0       11.181783    1.888555   -1.439163
    124          1           0       10.212597    3.162023    1.090894
    125          1           0       11.407338    4.783544    1.206082
    126          1           0       12.309500    4.623079   -0.298022
    127          1           0       12.884715    3.875802    1.160192
    128          1           0       12.748993    1.777303    1.418317
    129          1           0       11.845345    0.784478    0.204668
    130          1           0       10.235277    0.042441    1.515148
    131          1           0       10.184436    1.517558    2.514249
    132          1           0       12.834741    0.266125    2.928515
    133          1           0       11.674452   -0.994634    3.038366
    134          1           0       11.481788    1.605181    4.646449
    135          1           0       13.090390    0.757191    5.881786
    136          1           0       13.062518   -0.907595    5.157123
    137          1           0       11.910479   -0.360896    6.388123
    138          1           0        9.628495   -0.641141    4.170574
    139          1           0        9.345571    1.009185    4.674894
    140          1           0       10.012094   -0.090294    5.907041
 ---------------------------------------------------------------------

 SCF Done:  E(RB-LYP) =  -3007.35878803     A.U. after   21 cycles

 Excitation energies and oscillator strengths:

 Excited State   1:      Singlet-A      1.7774 eV  697.55 nm  f=0.3220  <S**2>=0.000
     245 -> 248       -0.17796
     246 -> 247        0.68858
     246 <- 247       -0.15373
 This state for optimization and/or second-order correction.
 Total Energy, E(TD-HF/TD-DFT) =  -3007.29346920
 Copying the excited state density for this state as the 1-particle RhoCI density.

 Excited State   2:      Singlet-A      1.9686 eV  629.82 nm  f=0.0098  <S**2>=0.000
     244 -> 247        0.66719
     245 -> 247        0.20743

 Excited State   3:      Singlet-A      1.9806 eV  625.99 nm  f=0.0649  <S**2>=0.000
     244 -> 247       -0.22863
     245 -> 247        0.61001
     246 -> 248        0.20928
     246 -> 249       -0.11097

 Excited State   4:      Singlet-A      2.1019 eV  589.88 nm  f=0.0014  <S**2>=0.000
     243 -> 247        0.69963

 Excited State   5:      Singlet-A      2.2989 eV  539.31 nm  f=0.0003  <S**2>=0.000
     242 -> 247        0.70629

 The electronic state is 1-A.
 Alpha  occ. eigenvalues --  -46.27043 -18.82531 -18.82370 -18.76746 -18.76459
 Alpha  occ. eigenvalues --  -18.75757 -18.75194 -14.03483 -14.02788 -14.01697
 Alpha  occ. eigenvalues --  -14.00635 -10.03773 -10.03714 -10.00199  -9.99526
 Alpha  occ. eigenvalues --   -9.98659  -9.97314  -9.97012  -9.96700  -9.96595
 Alpha  occ. eigenvalues --   -9.96357  -9.96088  -9.96082  -9.95702  -9.94586
 Alpha  occ. eigenvalues --   -9.94435  -9.94262  -9.94185  -9.93715  -9.93698
 Alpha  occ. eigenvalues --   -9.93559  -9.93513  -9.93383  -9.93345  -9.93275
 Alpha  occ. eigenvalues --   -9.93244  -9.93220  -9.93066  -9.93054  -9.92995
 Alpha  occ. eigenvalues --   -9.92875  -9.92801  -9.92091  -9.92053  -9.92029
 Alpha  occ. eigenvalues --   -9.91903  -9.91896  -9.91881  -9.91867  -9.91769
 Alpha  occ. eigenvalues --   -9.91728  -9.91653  -9.91611  -9.91535  -9.91521
 Alpha  occ. eigenvalues --   -9.91494  -9.91492  -9.91264  -9.91044  -9.90934
 Alpha  occ. eigenvalues --   -9.90901  -9.90846  -9.90651  -9.90614  -9.90437
 Alpha  occ. eigenvalues --   -9.90284  -2.91637  -1.72081  -1.71503  -1.71357
 Alpha  occ. eigenvalues --   -0.98769  -0.97151  -0.91754  -0.91259  -0.88777
 Alpha  occ. eigenvalues --   -0.88588  -0.86373  -0.86050  -0.84760  -0.84250
 Alpha  occ. eigenvalues --   -0.74896  -0.73581  -0.72831  -0.72499  -0.72193
 Alpha  occ. eigenvalues --   -0.71627  -0.71526  -0.70720  -0.70580  -0.70514
 Alpha  occ. eigenvalues --   -0.69809  -0.68815  -0.67911  -0.67317  -0.66722
 Alpha  occ. eigenvalues --   -0.66038  -0.65746  -0.65411  -0.64879  -0.64275
 Alpha  occ. eigenvalues --   -0.63773  -0.62601  -0.62129  -0.61388  -0.60872
 Alpha  occ. eigenvalues --   -0.60667  -0.59954  -0.59752  -0.59680  -0.58872
 Alpha  occ. eigenvalues --   -0.57901  -0.57335  -0.56556  -0.55513  -0.54345
 Alpha  occ. eigenvalues --   -0.53902  -0.53718  -0.52850  -0.52413  -0.51624
 Alpha  occ. eigenvalues --   -0.51498  -0.51107  -0.50733  -0.50426  -0.49844
 Alpha  occ. eigenvalues --   -0.49776  -0.48935  -0.48420  -0.48205  -0.46528
 Alpha  occ. eigenvalues --   -0.46125  -0.45951  -0.45235  -0.44835  -0.44488
 Alpha  occ. eigenvalues --   -0.44056  -0.43070  -0.42793  -0.42467  -0.42025
 Alpha  occ. eigenvalues --   -0.41935  -0.41875  -0.41210  -0.41105  -0.40641
 Alpha  occ. eigenvalues --   -0.40536  -0.40469  -0.40398  -0.40243  -0.40094
 Alpha  occ. eigenvalues --   -0.40057  -0.39475  -0.39336  -0.39191  -0.39062
 Alpha  occ. eigenvalues --   -0.38898  -0.38355  -0.38255  -0.38125  -0.38105
 Alpha  occ. eigenvalues --   -0.37834  -0.37724  -0.37549  -0.37438  -0.37169
 Alpha  occ. eigenvalues --   -0.37007  -0.36818  -0.36543  -0.36440  -0.36295
 Alpha  occ. eigenvalues --   -0.36167  -0.35862  -0.35760  -0.35491  -0.35340
 Alpha  occ. eigenvalues --   -0.35128  -0.34997  -0.34926  -0.34728  -0.34479
 Alpha  occ. eigenvalues --   -0.34438  -0.34399  -0.34183  -0.34073  -0.34002
 Alpha  occ. eigenvalues --   -0.33953  -0.33901  -0.33298  -0.33228  -0.33222
 Alpha  occ. eigenvalues --   -0.32851  -0.32570  -0.32398  -0.32251  -0.32132
 Alpha  occ. eigenvalues --   -0.31960  -0.31807  -0.31699  -0.31523  -0.31448
 Alpha  occ. eigenvalues --   -0.31108  -0.30835  -0.30759  -0.30592  -0.30463
 Alpha  occ. eigenvalues --   -0.30323  -0.30261  -0.29960  -0.29816  -0.29610
 Alpha  occ. eigenvalues --   -0.29526  -0.29380  -0.29149  -0.28800  -0.28564
 Alpha  occ. eigenvalues --   -0.28124  -0.28065  -0.27826  -0.27711  -0.27515
 Alpha  occ. eigenvalues --   -0.27310  -0.27288  -0.27140  -0.26703  -0.26635
 Alpha  occ. eigenvalues --   -0.26553  -0.26315  -0.26287  -0.25913  -0.25213
 Alpha  occ. eigenvalues --   -0.25146  -0.24669  -0.24145  -0.23727  -0.23405
 Alpha  occ. eigenvalues --   -0.23008  -0.22210  -0.21953  -0.21062  -0.20917
 Alpha  occ. eigenvalues --   -0.20429  -0.20142  -0.19309  -0.18815  -0.17349
 Alpha  occ. eigenvalues --   -0.15843
 Alpha virt. eigenvalues --   -0.11695  -0.07122  -0.06216  -0.04985  -0.02676
 Alpha virt. eigenvalues --   -0.02366  -0.01758  -0.01577  -0.01014   0.00007
 Alpha virt. eigenvalues --    0.00702   0.01631   0.01987   0.02757   0.03091

 Mulliken charges:
               1
     1  Mg   0.681051
     2  C    0.033632
     3  C   -0.040042
     4  C   -0.049564
     5  C   -0.056329
     6  N   -0.163133
     7  C   -0.119140
     8  C   -0.015774
     9  C    0.004207
    10  C    0.038274
    11  C    0.168081
    12  C    0.154535
    13  C    0.152254
    14  C    0.038821
    15  O   -0.222466
    16  O   -0.238039
    17  N   -0.349851
    18  C    0.123394
    19  C   -0.118934
    20  C    0.064609
    21  C    0.106175
    22  C    0.159129
    23  C   -0.111443
    24  O   -0.183370
    25  C    0.132975
    26  N   -0.232319
    27  C    0.075268
    28  C    0.010685
    29  C   -0.016590
    30  C    0.034086
    31  C    0.134061
    32  C    0.098063
    33  C    0.049833
    34  N   -0.252051
    35  C    0.080237
    36  C   -0.172608
    37  C    0.130486
    38  C    0.027968
    39  C    0.181135
    40  C   -0.062584
    41  O   -0.127325
    42  C    0.063033
    43  C    0.136626
    44  O   -0.219397
    45  O   -0.260661
    46  C    0.217344
    47  C    0.309443
    48  C   -0.114925
    49  C   -0.159241
    50  C    0.116485
    51  C    0.148631
    52  C    0.088380
    53  C    0.075275
    54  C   -0.081695
    55  C    0.108050
    56  C    0.086005
    57  C    0.086205
    58  C    0.092730
    59  C   -0.084029
    60  C    0.084418
    61  C    0.110792
    62  C    0.032757
    63  C    0.106510
    64  C   -0.131139
    65  C    0.104124
    66  C    0.127129
    67  H   -0.056451
    68  H   -0.044779
    69  H   -0.060451
    70  H   -0.018766
    71  H   -0.035139
    72  H   -0.027217
    73  H    0.000134
    74  H   -0.011966
    75  H   -0.026887
    76  H    0.002416
    77  H   -0.023267
    78  H   -0.005377
    79  H    0.009142
    80  H   -0.015194
    81  H   -0.002990
    82  H    0.022608
    83  H   -0.006992
    84  H   -0.001362
    85  H   -0.020986
    86  H   -0.008212
    87  H   -0.018157
    88  H   -0.000526
    89  H   -0.007295
    90  H   -0.011244
    91  H   -0.018631
    92  H   -0.011856
    93  H    0.003315
    94  H   -0.002059
    95  H   -0.009742
    96  H    0.002732
    97  H    0.002093
    98  H    0.025515
    99  H    0.010589
   100  H    0.015903
   101  H    0.022236
   102  H    0.009818
   103  H    0.012773
   104  H   -0.032105
   105  H    0.007484
   106  H    0.002121
   107  H   -0.018895
   108  H   -0.032645
   109  H   -0.047175
   110  H   -0.023589
   111  H   -0.015436
   112  H   -0.025086
   113  H   -0.031969
   114  H   -0.043618
   115  H   -0.003860
   116  H   -0.022783
   117  H   -0.021551
   118  H   -0.031742
   119  H   -0.033144
   120  H   -0.024938
   121  H   -0.039532
   122  H   -0.026079
   123  H   -0.022803
   124  H   -0.024458
   125  H   -0.026076
   126  H   -0.013842
   127  H   -0.028509
   128  H   -0.014793
   129  H   -0.023319
   130  H   -0.021913
   131  H   -0.018932
   132  H   -0.030412
   133  H   -0.038057
   134  H   -0.041556
   135  H   -0.017728
   136  H   -0.008681
   137  H   -0.037771
   138  H   -0.015729
   139  H   -0.018198
   140  H   -0.016657
 Sum of Mulliken charges =  -0.00000

 Dipole moment (field-independent basis, Debye):
    X=              3.2129    Y=              1.9738    Z=             -1.1206  Tot=              3.9338
 Quadrupole moment (field-independent basis, Debye-Ang):
   XX=           -383.8095   YY=           -427.3979   ZZ=           -406.6201
   XY=            -14.2381   XZ=             -0.1792   YZ=              7.8934

 Normal termination of Gaussian 16 at Wed May  4 00:06:48 2022.
