 Gaussian 16, Revision A.03,
 Gaussian 16:  ES64L-G16RevA.03 25-Dec-2016

 -----------------------------------
 #p cam-b3lyp/Def2SVP td=(nstates=5)
 -----------------------------------

 --------------------------------------------------------
 step_1101_chromophore_15 TDDFT with cam-b3lyp functional
 --------------------------------------------------------
 Symbolic Z-matrix:
 Charge =  0 Multiplicity = 1

                         Standard orientation:
 ---------------------------------------------------------------------
 Center     Atomic      Atomic             Coordinates (Angstroms)
 Number     Number       Type             X           Y           Z
 ---------------------------------------------------------------------
      1         12           0       -4.795551    1.041569    0.103107
      2          6           0       -4.026756   -2.502636    0.712305
      3          6           0       -1.436719    1.576188   -0.268758
      4          6           0       -5.518753    4.246238    0.130663
      5          6           0       -8.204436    0.232214    0.388494
      6          7           0       -3.002478   -0.346242    0.130980
      7          6           0       -2.929010   -1.668769    0.310648
      8          6           0       -1.515437   -2.173954   -0.015954
      9          6           0       -0.666879   -0.885761    0.216156
     10          6           0       -1.766646    0.232939    0.013465
     11          6           0        0.167661   -0.878916    1.470234
     12          6           0       -1.426888   -2.708327   -1.480549
     13          6           0       -0.472406   -3.978901   -1.771356
     14          6           0        0.881079   -4.081842   -1.016332
     15          8           0        1.026728   -4.341569    0.175148
     16          8           0        1.948914   -3.813960   -1.762612
     17          7           0       -3.701598    2.715130   -0.140206
     18          6           0       -2.288702    2.732206   -0.369332
     19          6           0       -1.872588    4.105250   -0.568989
     20          6           0       -2.998677    4.935317   -0.484050
     21          6           0       -4.203908    3.968107   -0.208755
     22          6           0       -0.426015    4.476426   -0.444266
     23          6           0       -3.046823    6.419104   -0.544907
     24          8           0       -4.099838    7.013045   -0.308035
     25          6           0       -1.862986    7.264956   -0.850930
     26          7           0       -6.611932    2.100879    0.366247
     27          6           0       -6.598920    3.409681    0.258806
     28          6           0       -8.035645    3.954373    0.226160
     29          6           0       -8.967527    2.704817    0.308115
     30          6           0       -7.884776    1.548256    0.202419
     31          6           0       -8.463140    4.995324    1.300942
     32          6           0      -10.031594    2.594893   -0.839896
     33          6           0      -11.431108    2.060569   -0.315488
     34          7           0       -5.928647   -0.761639    0.443997
     35          6           0       -7.327510   -0.905458    0.558027
     36          6           0       -7.628350   -2.287042    0.922745
     37          6           0       -6.397999   -2.875451    1.070294
     38          6           0       -5.391224   -1.980057    0.718310
     39          6           0       -8.914360   -2.933831    1.225833
     40          6           0       -5.767099   -4.145898    1.362385
     41          8           0       -6.355432   -5.182703    1.640107
     42          6           0       -4.168919   -3.910262    1.301039
     43          6           0       -3.708180   -4.924587    0.377730
     44          8           0       -3.599213   -4.895011   -0.870128
     45          8           0       -3.337176   -5.958862    1.181721
     46          6           0       -2.934736   -7.195134    0.427786
     47          6           0        3.257955   -3.664948   -1.089530
     48          6           0        4.219645   -3.069645   -2.150521
     49          6           0        5.542638   -3.191518   -2.310424
     50          6           0        6.450960   -3.847790   -1.179207
     51          6           0        6.121961   -2.567909   -3.549607
     52          6           0        6.283926   -1.026647   -3.497066
     53          6           0        7.793328   -0.657614   -3.378171
     54          6           0        8.093189    0.856321   -2.945419
     55          6           0        8.854936    1.636024   -4.099839
     56          6           0        8.781250    0.872065   -1.614479
     57          6           0        9.044328    2.227549   -0.991464
     58          6           0       10.537105    2.673352   -1.042318
     59          6           0       11.038393    2.845368    0.453255
     60          6           0       11.978630    4.087383    0.592185
     61          6           0       11.779511    1.558139    0.970302
     62          6           0       10.837270    0.798242    2.020451
     63          6           0       11.770980    0.089497    3.087070
     64          6           0       11.421614    0.531089    4.474106
     65          6           0       12.473219   -0.058504    5.505333
     66          6           0        9.983237    0.140993    4.842182
     67          1           0       -0.377803    1.837534   -0.206432
     68          1           0       -5.743171    5.314800    0.101915
     69          1           0       -9.253847    0.029136    0.613340
     70          1           0       -1.435420   -3.003222    0.688356
     71          1           0        0.027871   -0.843413   -0.622623
     72          1           0       -0.055327    0.050661    1.993890
     73          1           0        1.241819   -1.003143    1.332995
     74          1           0       -0.180281   -1.642505    2.164955
     75          1           0       -1.018180   -1.912694   -2.102989
     76          1           0       -2.430154   -2.832993   -1.887408
     77          1           0       -0.266237   -4.195156   -2.819263
     78          1           0       -0.959934   -4.924980   -1.536367
     79          1           0       -0.261965    5.104733    0.431195
     80          1           0       -0.242015    5.110884   -1.312060
     81          1           0        0.412673    3.781328   -0.446538
     82          1           0       -1.358574    7.595249    0.057195
     83          1           0       -2.440090    8.099323   -1.249981
     84          1           0       -1.237537    6.911425   -1.671770
     85          1           0       -8.220168    4.434858   -0.733749
     86          1           0       -9.334982    2.489842    1.312097
     87          1           0       -9.206770    4.567606    1.973940
     88          1           0       -8.829502    5.880807    0.780728
     89          1           0       -7.641120    5.247001    1.971100
     90          1           0       -9.704322    1.967183   -1.668692
     91          1           0      -10.231145    3.596043   -1.222358
     92          1           0      -11.199919    1.530179    0.608887
     93          1           0      -11.862408    1.374494   -1.044067
     94          1           0      -12.049727    2.898505    0.006590
     95          1           0       -9.504555   -2.975137    0.309966
     96          1           0       -9.454211   -2.368662    1.985120
     97          1           0       -8.788887   -3.980712    1.502719
     98          1           0       -3.679367   -3.964805    2.272704
     99          1           0       -3.531063   -7.498644   -0.431654
    100          1           0       -3.096016   -8.034958    1.103998
    101          1           0       -1.932482   -7.113315    0.005949
    102          1           0        3.701365   -4.614860   -0.791243
    103          1           0        3.285836   -3.033717   -0.201136
    104          1           0        3.685224   -2.718100   -3.033762
    105          1           0        7.187471   -3.160555   -0.762542
    106          1           0        6.979026   -4.711334   -1.583226
    107          1           0        5.794466   -4.181872   -0.375960
    108          1           0        5.512668   -2.845537   -4.409068
    109          1           0        7.035774   -3.104874   -3.808103
    110          1           0        6.038876   -0.705951   -2.484633
    111          1           0        5.629905   -0.563394   -4.234903
    112          1           0        8.250985   -0.996959   -4.308090
    113          1           0        8.208111   -1.250082   -2.561390
    114          1           0        7.178995    1.428984   -2.791166
    115          1           0        8.300821    2.487976   -4.494496
    116          1           0        9.067488    0.878226   -4.853793
    117          1           0        9.827623    1.955221   -3.725289
    118          1           0        9.761072    0.413161   -1.750793
    119          1           0        8.137072    0.388894   -0.879811
    120          1           0        8.641037    2.196892    0.021501
    121          1           0        8.541019    2.992829   -1.583156
    122          1           0       10.628184    3.587768   -1.628859
    123          1           0       11.181783    1.888555   -1.439163
    124          1           0       10.212597    3.162023    1.090894
    125          1           0       11.407338    4.783544    1.206082
    126          1           0       12.309500    4.623079   -0.298022
    127          1           0       12.884715    3.875802    1.160192
    128          1           0       12.748993    1.777303    1.418317
    129          1           0       11.845345    0.784478    0.204668
    130          1           0       10.235277    0.042441    1.515148
    131          1           0       10.184436    1.517558    2.514249
    132          1           0       12.834741    0.266125    2.928515
    133          1           0       11.674452   -0.994634    3.038366
    134          1           0       11.481788    1.605181    4.646449
    135          1           0       13.090390    0.757191    5.881786
    136          1           0       13.062518   -0.907595    5.157123
    137          1           0       11.910479   -0.360896    6.388123
    138          1           0        9.628495   -0.641141    4.170574
    139          1           0        9.345571    1.009185    4.674894
    140          1           0       10.012094   -0.090294    5.907041
 ---------------------------------------------------------------------

 SCF Done:  E(RCAM-B3LYP) =  -3007.14292469     A.U. after   18 cycles

 Excitation energies and oscillator strengths:

 Excited State   1:      Singlet-A      1.6785 eV  738.65 nm  f=0.4003  <S**2>=0.000
     245 -> 248       -0.17496
     246 -> 247        0.68569
     245 <- 248       -0.10609
 This state for optimization and/or second-order correction.
 Total Energy, E(TD-HF/TD-DFT) =  -3007.08124022
 Copying the excited state density for this state as the 1-particle RhoCI density.

 Excited State   2:      Singlet-A      2.2060 eV  562.02 nm  f=0.1080  <S**2>=0.000
     245 -> 247        0.63767
     246 -> 248        0.28926

 Excited State   3:      Singlet-A      3.3762 eV  367.23 nm  f=0.0114  <S**2>=0.000
     242 -> 247       -0.11632
     244 -> 247        0.66486
     246 -> 248       -0.16257

 Excited State   4:      Singlet-A      3.4734 eV  356.95 nm  f=0.5033  <S**2>=0.000
     242 -> 247       -0.27490
     244 -> 247        0.10531
     245 -> 247       -0.24803
     246 -> 248        0.57762
     245 <- 247        0.10036

 Excited State   5:      Singlet-A      3.5724 eV  347.06 nm  f=0.0053  <S**2>=0.000
     239 -> 247        0.31925
     239 -> 249       -0.20121
     239 -> 250       -0.11792
     240 -> 247        0.45041
     240 -> 248        0.11137
     240 -> 249       -0.26309
     240 -> 250       -0.15004

 The electronic state is 1-A.
 Alpha  occ. eigenvalues --  -46.88526 -19.25396 -19.25358 -19.19839 -19.19386
 Alpha  occ. eigenvalues --  -19.18719 -19.18660 -14.42426 -14.41442 -14.40317
 Alpha  occ. eigenvalues --  -14.38856 -10.39237 -10.38955 -10.35397 -10.35009
 Alpha  occ. eigenvalues --  -10.32781 -10.31699 -10.31391 -10.31371 -10.31103
 Alpha  occ. eigenvalues --  -10.30967 -10.30620 -10.30213 -10.29572 -10.29477
 Alpha  occ. eigenvalues --  -10.28894 -10.28585 -10.28139 -10.28095 -10.28084
 Alpha  occ. eigenvalues --  -10.27578 -10.27571 -10.27532 -10.27491 -10.27224
 Alpha  occ. eigenvalues --  -10.27176 -10.27126 -10.27116 -10.26989 -10.26761
 Alpha  occ. eigenvalues --  -10.26625 -10.26519 -10.26209 -10.25901 -10.25873
 Alpha  occ. eigenvalues --  -10.25592 -10.25583 -10.25574 -10.25533 -10.25529
 Alpha  occ. eigenvalues --  -10.25520 -10.25390 -10.25329 -10.25322 -10.25307
 Alpha  occ. eigenvalues --  -10.25291 -10.25143 -10.25011 -10.24715 -10.24625
 Alpha  occ. eigenvalues --  -10.24593 -10.24505 -10.24298 -10.24233 -10.24069
 Alpha  occ. eigenvalues --  -10.23936  -3.17027  -1.91947  -1.91463  -1.91343
 Alpha  occ. eigenvalues --   -1.17205  -1.15680  -1.09965  -1.09911  -1.06586
 Alpha  occ. eigenvalues --   -1.06494  -1.04077  -1.03659  -1.02204  -1.01753
 Alpha  occ. eigenvalues --   -0.91871  -0.90486  -0.89667  -0.89446  -0.88954
 Alpha  occ. eigenvalues --   -0.88291  -0.88108  -0.87368  -0.87158  -0.87053
 Alpha  occ. eigenvalues --   -0.86131  -0.85107  -0.84186  -0.83449  -0.82834
 Alpha  occ. eigenvalues --   -0.82271  -0.81913  -0.81232  -0.80764  -0.80143
 Alpha  occ. eigenvalues --   -0.79531  -0.78592  -0.77674  -0.76742  -0.76281
 Alpha  occ. eigenvalues --   -0.76026  -0.75341  -0.75107  -0.74918  -0.74146
 Alpha  occ. eigenvalues --   -0.72868  -0.72284  -0.71390  -0.70326  -0.68840
 Alpha  occ. eigenvalues --   -0.68581  -0.68350  -0.67280  -0.66847  -0.65609
 Alpha  occ. eigenvalues --   -0.65569  -0.65363  -0.64810  -0.64213  -0.63926
 Alpha  occ. eigenvalues --   -0.63718  -0.62903  -0.62321  -0.61861  -0.60253
 Alpha  occ. eigenvalues --   -0.59641  -0.59462  -0.58720  -0.58330  -0.57801
 Alpha  occ. eigenvalues --   -0.57473  -0.56280  -0.56025  -0.55613  -0.55281
 Alpha  occ. eigenvalues --   -0.55034  -0.54695  -0.54269  -0.54053  -0.53772
 Alpha  occ. eigenvalues --   -0.53557  -0.53309  -0.53279  -0.53229  -0.52905
 Alpha  occ. eigenvalues --   -0.52629  -0.52207  -0.52050  -0.51847  -0.51480
 Alpha  occ. eigenvalues --   -0.51369  -0.50745  -0.50642  -0.50464  -0.50396
 Alpha  occ. eigenvalues --   -0.50283  -0.49994  -0.49817  -0.49756  -0.49636
 Alpha  occ. eigenvalues --   -0.49472  -0.49169  -0.49022  -0.48667  -0.48560
 Alpha  occ. eigenvalues --   -0.48285  -0.48205  -0.48164  -0.47662  -0.47351
 Alpha  occ. eigenvalues --   -0.47191  -0.47029  -0.46762  -0.46641  -0.46560
 Alpha  occ. eigenvalues --   -0.46401  -0.46232  -0.46208  -0.45937  -0.45853
 Alpha  occ. eigenvalues --   -0.45711  -0.45643  -0.45057  -0.44873  -0.44834
 Alpha  occ. eigenvalues --   -0.44449  -0.44438  -0.44102  -0.43942  -0.43777
 Alpha  occ. eigenvalues --   -0.43604  -0.43417  -0.43259  -0.43037  -0.42958
 Alpha  occ. eigenvalues --   -0.42700  -0.42514  -0.42332  -0.42113  -0.41931
 Alpha  occ. eigenvalues --   -0.41818  -0.41625  -0.41444  -0.41207  -0.40784
 Alpha  occ. eigenvalues --   -0.40659  -0.40642  -0.40487  -0.39903  -0.39587
 Alpha  occ. eigenvalues --   -0.39088  -0.38971  -0.38891  -0.38663  -0.38407
 Alpha  occ. eigenvalues --   -0.38258  -0.38145  -0.38012  -0.37605  -0.37517
 Alpha  occ. eigenvalues --   -0.37366  -0.37337  -0.36918  -0.36862  -0.36701
 Alpha  occ. eigenvalues --   -0.36304  -0.35433  -0.34589  -0.34462  -0.33768
 Alpha  occ. eigenvalues --   -0.33764  -0.33173  -0.32910  -0.31683  -0.31469
 Alpha  occ. eigenvalues --   -0.30870  -0.30393  -0.29920  -0.29422  -0.24098
 Alpha  occ. eigenvalues --   -0.21074
 Alpha virt. eigenvalues --   -0.08803  -0.01799   0.00109   0.02036   0.03696
 Alpha virt. eigenvalues --    0.05034   0.05351   0.05564   0.05886   0.06054
 Alpha virt. eigenvalues --    0.07958   0.08052   0.08728   0.09036   0.09348

 Mulliken charges:
               1
     1  Mg   0.813621
     2  C    0.013672
     3  C   -0.051442
     4  C   -0.074579
     5  C   -0.061930
     6  N   -0.230093
     7  C   -0.071540
     8  C   -0.069359
     9  C   -0.048087
    10  C    0.050572
    11  C    0.108671
    12  C    0.101472
    13  C    0.089823
    14  C    0.115294
    15  O   -0.263896
    16  O   -0.303060
    17  N   -0.438494
    18  C    0.133856
    19  C   -0.117404
    20  C   -0.006844
    21  C    0.141821
    22  C    0.093647
    23  C   -0.031634
    24  O   -0.222543
    25  C    0.048010
    26  N   -0.307877
    27  C    0.101016
    28  C   -0.047676
    29  C   -0.072343
    30  C    0.056173
    31  C    0.074682
    32  C    0.042029
    33  C   -0.007272
    34  N   -0.337074
    35  C    0.083868
    36  C   -0.170900
    37  C    0.050461
    38  C    0.058230
    39  C    0.123051
    40  C    0.034599
    41  O   -0.168191
    42  C   -0.016333
    43  C    0.223914
    44  O   -0.258184
    45  O   -0.323048
    46  C    0.179426
    47  C    0.282330
    48  C   -0.135023
    49  C   -0.183711
    50  C    0.064679
    51  C    0.082712
    52  C    0.032917
    53  C    0.028469
    54  C   -0.136646
    55  C    0.051452
    56  C    0.037349
    57  C    0.028224
    58  C    0.041458
    59  C   -0.142076
    60  C    0.030561
    61  C    0.060302
    62  C   -0.015230
    63  C    0.050170
    64  C   -0.187771
    65  C    0.044780
    66  C    0.064688
    67  H   -0.022663
    68  H   -0.005194
    69  H   -0.027600
    70  H    0.015007
    71  H    0.000245
    72  H   -0.001174
    73  H    0.023612
    74  H    0.014429
    75  H    0.001504
    76  H    0.036911
    77  H    0.012373
    78  H    0.023144
    79  H    0.036997
    80  H    0.010653
    81  H    0.028013
    82  H    0.053110
    83  H    0.029992
    84  H    0.028619
    85  H    0.014227
    86  H    0.025245
    87  H    0.007378
    88  H    0.023301
    89  H    0.018200
    90  H    0.018549
    91  H    0.008289
    92  H    0.006826
    93  H    0.027053
    94  H    0.020757
    95  H    0.015360
    96  H    0.025633
    97  H    0.031448
    98  H    0.068532
    99  H    0.035446
   100  H    0.040475
   101  H    0.042584
   102  H    0.035612
   103  H    0.039561
   104  H    0.002002
   105  H    0.028389
   106  H    0.025693
   107  H    0.003744
   108  H    0.000496
   109  H   -0.015423
   110  H    0.003379
   111  H    0.012856
   112  H    0.001537
   113  H   -0.004995
   114  H   -0.011302
   115  H    0.019667
   116  H    0.002069
   117  H    0.000615
   118  H   -0.006444
   119  H   -0.005537
   120  H    0.002685
   121  H   -0.009606
   122  H    0.003098
   123  H    0.002842
   124  H    0.006202
   125  H   -0.002508
   126  H    0.009677
   127  H   -0.004265
   128  H    0.012371
   129  H    0.003687
   130  H    0.003477
   131  H    0.005230
   132  H   -0.002044
   133  H   -0.008808
   134  H   -0.009161
   135  H    0.006764
   136  H    0.015018
   137  H   -0.013123
   138  H    0.008223
   139  H    0.005422
   140  H    0.007874
 Sum of Mulliken charges =  -0.00000

 Dipole moment (field-independent basis, Debye):
    X=              4.0806    Y=              2.8115    Z=             -1.3557  Tot=              5.1375
 Quadrupole moment (field-independent basis, Debye-Ang):
   XX=           -387.7194   YY=           -421.3990   ZZ=           -406.5935
   XY=            -16.2481   XZ=              0.8745   YZ=              7.6247

 Normal termination of Gaussian 16 at Tue May  3 23:06:30 2022.
