 Gaussian 16, Revision A.03,
 Gaussian 16:  ES64L-G16RevA.03 25-Dec-2016

 ---------------------------------
 #p PBE1PBE/Def2SVP td=(nstates=5)
 ---------------------------------

 ------------------------------------------------------
 step_1101_chromophore_15 TDDFT with PBE1PBE functional
 ------------------------------------------------------
 Symbolic Z-matrix:
 Charge =  0 Multiplicity = 1

                         Standard orientation:
 ---------------------------------------------------------------------
 Center     Atomic      Atomic             Coordinates (Angstroms)
 Number     Number       Type             X           Y           Z
 ---------------------------------------------------------------------
      1         12           0       -4.795551    1.041569    0.103107
      2          6           0       -4.026756   -2.502636    0.712305
      3          6           0       -1.436719    1.576188   -0.268758
      4          6           0       -5.518753    4.246238    0.130663
      5          6           0       -8.204436    0.232214    0.388494
      6          7           0       -3.002478   -0.346242    0.130980
      7          6           0       -2.929010   -1.668769    0.310648
      8          6           0       -1.515437   -2.173954   -0.015954
      9          6           0       -0.666879   -0.885761    0.216156
     10          6           0       -1.766646    0.232939    0.013465
     11          6           0        0.167661   -0.878916    1.470234
     12          6           0       -1.426888   -2.708327   -1.480549
     13          6           0       -0.472406   -3.978901   -1.771356
     14          6           0        0.881079   -4.081842   -1.016332
     15          8           0        1.026728   -4.341569    0.175148
     16          8           0        1.948914   -3.813960   -1.762612
     17          7           0       -3.701598    2.715130   -0.140206
     18          6           0       -2.288702    2.732206   -0.369332
     19          6           0       -1.872588    4.105250   -0.568989
     20          6           0       -2.998677    4.935317   -0.484050
     21          6           0       -4.203908    3.968107   -0.208755
     22          6           0       -0.426015    4.476426   -0.444266
     23          6           0       -3.046823    6.419104   -0.544907
     24          8           0       -4.099838    7.013045   -0.308035
     25          6           0       -1.862986    7.264956   -0.850930
     26          7           0       -6.611932    2.100879    0.366247
     27          6           0       -6.598920    3.409681    0.258806
     28          6           0       -8.035645    3.954373    0.226160
     29          6           0       -8.967527    2.704817    0.308115
     30          6           0       -7.884776    1.548256    0.202419
     31          6           0       -8.463140    4.995324    1.300942
     32          6           0      -10.031594    2.594893   -0.839896
     33          6           0      -11.431108    2.060569   -0.315488
     34          7           0       -5.928647   -0.761639    0.443997
     35          6           0       -7.327510   -0.905458    0.558027
     36          6           0       -7.628350   -2.287042    0.922745
     37          6           0       -6.397999   -2.875451    1.070294
     38          6           0       -5.391224   -1.980057    0.718310
     39          6           0       -8.914360   -2.933831    1.225833
     40          6           0       -5.767099   -4.145898    1.362385
     41          8           0       -6.355432   -5.182703    1.640107
     42          6           0       -4.168919   -3.910262    1.301039
     43          6           0       -3.708180   -4.924587    0.377730
     44          8           0       -3.599213   -4.895011   -0.870128
     45          8           0       -3.337176   -5.958862    1.181721
     46          6           0       -2.934736   -7.195134    0.427786
     47          6           0        3.257955   -3.664948   -1.089530
     48          6           0        4.219645   -3.069645   -2.150521
     49          6           0        5.542638   -3.191518   -2.310424
     50          6           0        6.450960   -3.847790   -1.179207
     51          6           0        6.121961   -2.567909   -3.549607
     52          6           0        6.283926   -1.026647   -3.497066
     53          6           0        7.793328   -0.657614   -3.378171
     54          6           0        8.093189    0.856321   -2.945419
     55          6           0        8.854936    1.636024   -4.099839
     56          6           0        8.781250    0.872065   -1.614479
     57          6           0        9.044328    2.227549   -0.991464
     58          6           0       10.537105    2.673352   -1.042318
     59          6           0       11.038393    2.845368    0.453255
     60          6           0       11.978630    4.087383    0.592185
     61          6           0       11.779511    1.558139    0.970302
     62          6           0       10.837270    0.798242    2.020451
     63          6           0       11.770980    0.089497    3.087070
     64          6           0       11.421614    0.531089    4.474106
     65          6           0       12.473219   -0.058504    5.505333
     66          6           0        9.983237    0.140993    4.842182
     67          1           0       -0.377803    1.837534   -0.206432
     68          1           0       -5.743171    5.314800    0.101915
     69          1           0       -9.253847    0.029136    0.613340
     70          1           0       -1.435420   -3.003222    0.688356
     71          1           0        0.027871   -0.843413   -0.622623
     72          1           0       -0.055327    0.050661    1.993890
     73          1           0        1.241819   -1.003143    1.332995
     74          1           0       -0.180281   -1.642505    2.164955
     75          1           0       -1.018180   -1.912694   -2.102989
     76          1           0       -2.430154   -2.832993   -1.887408
     77          1           0       -0.266237   -4.195156   -2.819263
     78          1           0       -0.959934   -4.924980   -1.536367
     79          1           0       -0.261965    5.104733    0.431195
     80          1           0       -0.242015    5.110884   -1.312060
     81          1           0        0.412673    3.781328   -0.446538
     82          1           0       -1.358574    7.595249    0.057195
     83          1           0       -2.440090    8.099323   -1.249981
     84          1           0       -1.237537    6.911425   -1.671770
     85          1           0       -8.220168    4.434858   -0.733749
     86          1           0       -9.334982    2.489842    1.312097
     87          1           0       -9.206770    4.567606    1.973940
     88          1           0       -8.829502    5.880807    0.780728
     89          1           0       -7.641120    5.247001    1.971100
     90          1           0       -9.704322    1.967183   -1.668692
     91          1           0      -10.231145    3.596043   -1.222358
     92          1           0      -11.199919    1.530179    0.608887
     93          1           0      -11.862408    1.374494   -1.044067
     94          1           0      -12.049727    2.898505    0.006590
     95          1           0       -9.504555   -2.975137    0.309966
     96          1           0       -9.454211   -2.368662    1.985120
     97          1           0       -8.788887   -3.980712    1.502719
     98          1           0       -3.679367   -3.964805    2.272704
     99          1           0       -3.531063   -7.498644   -0.431654
    100          1           0       -3.096016   -8.034958    1.103998
    101          1           0       -1.932482   -7.113315    0.005949
    102          1           0        3.701365   -4.614860   -0.791243
    103          1           0        3.285836   -3.033717   -0.201136
    104          1           0        3.685224   -2.718100   -3.033762
    105          1           0        7.187471   -3.160555   -0.762542
    106          1           0        6.979026   -4.711334   -1.583226
    107          1           0        5.794466   -4.181872   -0.375960
    108          1           0        5.512668   -2.845537   -4.409068
    109          1           0        7.035774   -3.104874   -3.808103
    110          1           0        6.038876   -0.705951   -2.484633
    111          1           0        5.629905   -0.563394   -4.234903
    112          1           0        8.250985   -0.996959   -4.308090
    113          1           0        8.208111   -1.250082   -2.561390
    114          1           0        7.178995    1.428984   -2.791166
    115          1           0        8.300821    2.487976   -4.494496
    116          1           0        9.067488    0.878226   -4.853793
    117          1           0        9.827623    1.955221   -3.725289
    118          1           0        9.761072    0.413161   -1.750793
    119          1           0        8.137072    0.388894   -0.879811
    120          1           0        8.641037    2.196892    0.021501
    121          1           0        8.541019    2.992829   -1.583156
    122          1           0       10.628184    3.587768   -1.628859
    123          1           0       11.181783    1.888555   -1.439163
    124          1           0       10.212597    3.162023    1.090894
    125          1           0       11.407338    4.783544    1.206082
    126          1           0       12.309500    4.623079   -0.298022
    127          1           0       12.884715    3.875802    1.160192
    128          1           0       12.748993    1.777303    1.418317
    129          1           0       11.845345    0.784478    0.204668
    130          1           0       10.235277    0.042441    1.515148
    131          1           0       10.184436    1.517558    2.514249
    132          1           0       12.834741    0.266125    2.928515
    133          1           0       11.674452   -0.994634    3.038366
    134          1           0       11.481788    1.605181    4.646449
    135          1           0       13.090390    0.757191    5.881786
    136          1           0       13.062518   -0.907595    5.157123
    137          1           0       11.910479   -0.360896    6.388123
    138          1           0        9.628495   -0.641141    4.170574
    139          1           0        9.345571    1.009185    4.674894
    140          1           0       10.012094   -0.090294    5.907041
 ---------------------------------------------------------------------

 SCF Done:  E(RPBE1PBE) =  -3005.33025616     A.U. after   15 cycles

 Excitation energies and oscillator strengths:

 Excited State   1:      Singlet-A      1.8251 eV  679.31 nm  f=0.3899  <S**2>=0.000
     245 -> 248       -0.16731
     246 -> 247        0.69281
     246 <- 247       -0.11100
 This state for optimization and/or second-order correction.
 Total Energy, E(TD-HF/TD-DFT) =  -3005.26318346
 Copying the excited state density for this state as the 1-particle RhoCI density.

 Excited State   2:      Singlet-A      2.2035 eV  562.67 nm  f=0.1046  <S**2>=0.000
     245 -> 247        0.64954
     246 -> 248        0.25772

 Excited State   3:      Singlet-A      3.0239 eV  410.02 nm  f=0.0004  <S**2>=0.000
     242 -> 247       -0.14908
     243 -> 247        0.67016
     246 -> 248       -0.11079

 Excited State   4:      Singlet-A      3.0737 eV  403.37 nm  f=0.0001  <S**2>=0.000
     240 -> 247        0.60680
     240 -> 249       -0.15375
     241 -> 247        0.18157
     242 -> 247        0.20970

 Excited State   5:      Singlet-A      3.1027 eV  399.60 nm  f=0.0015  <S**2>=0.000
     241 -> 247       -0.37791
     242 -> 247        0.53781
     242 -> 249        0.12358
     243 -> 247        0.16331

 The electronic state is 1-A.
 Alpha  occ. eigenvalues --  -46.91936 -19.26075 -19.26019 -19.20086 -19.19782
 Alpha  occ. eigenvalues --  -19.18960 -19.18749 -14.41861 -14.41038 -14.39916
 Alpha  occ. eigenvalues --  -14.38670 -10.36221 -10.36015 -10.32713 -10.31925
 Alpha  occ. eigenvalues --  -10.30202 -10.29313 -10.28875 -10.28864 -10.28610
 Alpha  occ. eigenvalues --  -10.28604 -10.28179 -10.28164 -10.27628 -10.26825
 Alpha  occ. eigenvalues --  -10.26570 -10.26460 -10.26083 -10.25605 -10.25600
 Alpha  occ. eigenvalues --  -10.25492 -10.25327 -10.25045 -10.25027 -10.24958
 Alpha  occ. eigenvalues --  -10.24936 -10.24915 -10.24832 -10.24814 -10.24403
 Alpha  occ. eigenvalues --  -10.24238 -10.24147 -10.23626 -10.23587 -10.23345
 Alpha  occ. eigenvalues --  -10.23157 -10.23126 -10.23102 -10.23101 -10.23093
 Alpha  occ. eigenvalues --  -10.23053 -10.23019 -10.22968 -10.22888 -10.22876
 Alpha  occ. eigenvalues --  -10.22756 -10.22714 -10.22601 -10.22170 -10.22128
 Alpha  occ. eigenvalues --  -10.22095 -10.22027 -10.21883 -10.21714 -10.21618
 Alpha  occ. eigenvalues --  -10.21480  -3.14019  -1.86881  -1.86373  -1.86258
 Alpha  occ. eigenvalues --   -1.12054  -1.10436  -1.04812  -1.04501  -1.01455
 Alpha  occ. eigenvalues --   -1.01285  -0.98676  -0.98295  -0.96919  -0.96424
 Alpha  occ. eigenvalues --   -0.86295  -0.84583  -0.83770  -0.83636  -0.83048
 Alpha  occ. eigenvalues --   -0.82535  -0.82406  -0.81632  -0.81450  -0.81252
 Alpha  occ. eigenvalues --   -0.80592  -0.79299  -0.78445  -0.77730  -0.77065
 Alpha  occ. eigenvalues --   -0.76377  -0.76065  -0.75594  -0.75001  -0.74401
 Alpha  occ. eigenvalues --   -0.73713  -0.72711  -0.71968  -0.71131  -0.70493
 Alpha  occ. eigenvalues --   -0.70304  -0.69415  -0.69267  -0.69222  -0.68296
 Alpha  occ. eigenvalues --   -0.67331  -0.66656  -0.65856  -0.64634  -0.63243
 Alpha  occ. eigenvalues --   -0.62974  -0.62645  -0.61784  -0.61047  -0.60046
 Alpha  occ. eigenvalues --   -0.60017  -0.59556  -0.59369  -0.58749  -0.58316
 Alpha  occ. eigenvalues --   -0.58042  -0.57049  -0.56500  -0.56491  -0.54692
 Alpha  occ. eigenvalues --   -0.54267  -0.53871  -0.53264  -0.52774  -0.52397
 Alpha  occ. eigenvalues --   -0.52101  -0.50830  -0.50414  -0.50188  -0.49885
 Alpha  occ. eigenvalues --   -0.49522  -0.49041  -0.48816  -0.48610  -0.48274
 Alpha  occ. eigenvalues --   -0.48074  -0.47892  -0.47697  -0.47524  -0.47381
 Alpha  occ. eigenvalues --   -0.47089  -0.46762  -0.46666  -0.46390  -0.46009
 Alpha  occ. eigenvalues --   -0.45965  -0.45348  -0.45237  -0.45191  -0.44883
 Alpha  occ. eigenvalues --   -0.44796  -0.44647  -0.44375  -0.44342  -0.44195
 Alpha  occ. eigenvalues --   -0.44156  -0.43726  -0.43604  -0.43272  -0.43163
 Alpha  occ. eigenvalues --   -0.42884  -0.42830  -0.42794  -0.42254  -0.41977
 Alpha  occ. eigenvalues --   -0.41826  -0.41718  -0.41390  -0.41339  -0.41184
 Alpha  occ. eigenvalues --   -0.41093  -0.40930  -0.40792  -0.40592  -0.40500
 Alpha  occ. eigenvalues --   -0.40464  -0.40331  -0.39915  -0.39634  -0.39503
 Alpha  occ. eigenvalues --   -0.39215  -0.39152  -0.38898  -0.38712  -0.38487
 Alpha  occ. eigenvalues --   -0.38430  -0.38218  -0.38052  -0.37873  -0.37739
 Alpha  occ. eigenvalues --   -0.37517  -0.37281  -0.37181  -0.36825  -0.36725
 Alpha  occ. eigenvalues --   -0.36572  -0.36517  -0.36164  -0.35950  -0.35668
 Alpha  occ. eigenvalues --   -0.35531  -0.35430  -0.35344  -0.34685  -0.34425
 Alpha  occ. eigenvalues --   -0.34051  -0.33849  -0.33792  -0.33642  -0.33261
 Alpha  occ. eigenvalues --   -0.33184  -0.32901  -0.32812  -0.32621  -0.32308
 Alpha  occ. eigenvalues --   -0.32169  -0.32144  -0.31947  -0.31837  -0.31635
 Alpha  occ. eigenvalues --   -0.31195  -0.30552  -0.29579  -0.29266  -0.29032
 Alpha  occ. eigenvalues --   -0.28752  -0.28579  -0.27922  -0.27152  -0.26074
 Alpha  occ. eigenvalues --   -0.26004  -0.25932  -0.25252  -0.25181  -0.21024
 Alpha  occ. eigenvalues --   -0.18736
 Alpha virt. eigenvalues --   -0.11279  -0.05375  -0.04022  -0.02399   0.00314
 Alpha virt. eigenvalues --    0.00839   0.01153   0.01234   0.01497   0.02575
 Alpha virt. eigenvalues --    0.03661   0.04698   0.04925   0.05653   0.06088

 Mulliken charges:
               1
     1  Mg   0.964276
     2  C    0.008193
     3  C   -0.043963
     4  C   -0.063452
     5  C   -0.057803
     6  N   -0.335216
     7  C    0.012008
     8  C   -0.144665
     9  C   -0.125414
    10  C    0.079044
    11  C    0.052814
    12  C    0.056955
    13  C    0.014091
    14  C    0.183641
    15  O   -0.295715
    16  O   -0.336293
    17  N   -0.549727
    18  C    0.154488
    19  C   -0.143877
    20  C   -0.063788
    21  C    0.182197
    22  C    0.033865
    23  C    0.016312
    24  O   -0.259518
    25  C   -0.023270
    26  N   -0.413090
    27  C    0.130457
    28  C   -0.122565
    29  C   -0.154082
    30  C    0.097035
    31  C    0.017822
    32  C   -0.014385
    33  C   -0.080133
    34  N   -0.459553
    35  C    0.111385
    36  C   -0.194797
    37  C   -0.000054
    38  C    0.113164
    39  C    0.067679
    40  C    0.129915
    41  O   -0.211247
    42  C   -0.133009
    43  C    0.316566
    44  O   -0.292420
    45  O   -0.354369
    46  C    0.122036
    47  C    0.240562
    48  C   -0.139386
    49  C   -0.232751
    50  C    0.001716
    51  C    0.020676
    52  C   -0.034132
    53  C   -0.027208
    54  C   -0.217537
    55  C   -0.009384
    56  C   -0.024529
    57  C   -0.030511
    58  C   -0.012188
    59  C   -0.230134
    60  C   -0.024222
    61  C    0.009387
    62  C   -0.076860
    63  C   -0.006383
    64  C   -0.280398
    65  C   -0.015132
    66  C    0.003493
    67  H    0.008970
    68  H    0.027165
    69  H    0.007289
    70  H    0.054464
    71  H    0.037667
    72  H    0.027667
    73  H    0.050094
    74  H    0.041496
    75  H    0.035193
    76  H    0.068175
    77  H    0.044022
    78  H    0.058839
    79  H    0.064042
    80  H    0.038760
    81  H    0.052142
    82  H    0.078860
    83  H    0.056564
    84  H    0.054388
    85  H    0.051554
    86  H    0.061587
    87  H    0.034381
    88  H    0.049992
    89  H    0.045850
    90  H    0.050064
    91  H    0.042191
    92  H    0.033794
    93  H    0.054495
    94  H    0.049066
    95  H    0.045218
    96  H    0.053761
    97  H    0.059810
    98  H    0.102369
    99  H    0.056931
   100  H    0.062062
   101  H    0.064941
   102  H    0.062038
   103  H    0.066154
   104  H    0.031876
   105  H    0.055196
   106  H    0.053143
   107  H    0.030854
   108  H    0.033335
   109  H    0.017126
   110  H    0.039727
   111  H    0.043338
   112  H    0.033318
   113  H    0.030060
   114  H    0.026479
   115  H    0.046126
   116  H    0.029931
   117  H    0.031248
   118  H    0.027466
   119  H    0.027861
   120  H    0.033817
   121  H    0.024353
   122  H    0.034285
   123  H    0.033507
   124  H    0.042537
   125  H    0.025210
   126  H    0.036000
   127  H    0.022973
   128  H    0.042562
   129  H    0.036476
   130  H    0.036215
   131  H    0.037455
   132  H    0.030206
   133  H    0.024438
   134  H    0.029346
   135  H    0.034816
   136  H    0.041350
   137  H    0.014382
   138  H    0.036045
   139  H    0.033022
   140  H    0.035254
 Sum of Mulliken charges =  -0.00000

 Dipole moment (field-independent basis, Debye):
    X=              3.6798    Y=              2.4808    Z=             -1.2517  Tot=              4.6111
 Quadrupole moment (field-independent basis, Debye-Ang):
   XX=           -378.4289   YY=           -419.8557   ZZ=           -404.0739
   XY=            -15.4827   XZ=              0.5204   YZ=              7.8257

 Normal termination of Gaussian 16 at Tue May  3 23:22:21 2022.
