 Gaussian 16, Revision A.03,
 Gaussian 16:  ES64L-G16RevA.03 25-Dec-2016

 --------------------------------
 #p wB97XD/Def2SVP td=(nstates=5)
 --------------------------------

 -----------------------------------------------------
 step_1101_chromophore_15 TDDFT with wB97XD functional
 -----------------------------------------------------
 Symbolic Z-matrix:
 Charge =  0 Multiplicity = 1

                         Standard orientation:
 ---------------------------------------------------------------------
 Center     Atomic      Atomic             Coordinates (Angstroms)
 Number     Number       Type             X           Y           Z
 ---------------------------------------------------------------------
      1         12           0       -4.795551    1.041569    0.103107
      2          6           0       -4.026756   -2.502636    0.712305
      3          6           0       -1.436719    1.576188   -0.268758
      4          6           0       -5.518753    4.246238    0.130663
      5          6           0       -8.204436    0.232214    0.388494
      6          7           0       -3.002478   -0.346242    0.130980
      7          6           0       -2.929010   -1.668769    0.310648
      8          6           0       -1.515437   -2.173954   -0.015954
      9          6           0       -0.666879   -0.885761    0.216156
     10          6           0       -1.766646    0.232939    0.013465
     11          6           0        0.167661   -0.878916    1.470234
     12          6           0       -1.426888   -2.708327   -1.480549
     13          6           0       -0.472406   -3.978901   -1.771356
     14          6           0        0.881079   -4.081842   -1.016332
     15          8           0        1.026728   -4.341569    0.175148
     16          8           0        1.948914   -3.813960   -1.762612
     17          7           0       -3.701598    2.715130   -0.140206
     18          6           0       -2.288702    2.732206   -0.369332
     19          6           0       -1.872588    4.105250   -0.568989
     20          6           0       -2.998677    4.935317   -0.484050
     21          6           0       -4.203908    3.968107   -0.208755
     22          6           0       -0.426015    4.476426   -0.444266
     23          6           0       -3.046823    6.419104   -0.544907
     24          8           0       -4.099838    7.013045   -0.308035
     25          6           0       -1.862986    7.264956   -0.850930
     26          7           0       -6.611932    2.100879    0.366247
     27          6           0       -6.598920    3.409681    0.258806
     28          6           0       -8.035645    3.954373    0.226160
     29          6           0       -8.967527    2.704817    0.308115
     30          6           0       -7.884776    1.548256    0.202419
     31          6           0       -8.463140    4.995324    1.300942
     32          6           0      -10.031594    2.594893   -0.839896
     33          6           0      -11.431108    2.060569   -0.315488
     34          7           0       -5.928647   -0.761639    0.443997
     35          6           0       -7.327510   -0.905458    0.558027
     36          6           0       -7.628350   -2.287042    0.922745
     37          6           0       -6.397999   -2.875451    1.070294
     38          6           0       -5.391224   -1.980057    0.718310
     39          6           0       -8.914360   -2.933831    1.225833
     40          6           0       -5.767099   -4.145898    1.362385
     41          8           0       -6.355432   -5.182703    1.640107
     42          6           0       -4.168919   -3.910262    1.301039
     43          6           0       -3.708180   -4.924587    0.377730
     44          8           0       -3.599213   -4.895011   -0.870128
     45          8           0       -3.337176   -5.958862    1.181721
     46          6           0       -2.934736   -7.195134    0.427786
     47          6           0        3.257955   -3.664948   -1.089530
     48          6           0        4.219645   -3.069645   -2.150521
     49          6           0        5.542638   -3.191518   -2.310424
     50          6           0        6.450960   -3.847790   -1.179207
     51          6           0        6.121961   -2.567909   -3.549607
     52          6           0        6.283926   -1.026647   -3.497066
     53          6           0        7.793328   -0.657614   -3.378171
     54          6           0        8.093189    0.856321   -2.945419
     55          6           0        8.854936    1.636024   -4.099839
     56          6           0        8.781250    0.872065   -1.614479
     57          6           0        9.044328    2.227549   -0.991464
     58          6           0       10.537105    2.673352   -1.042318
     59          6           0       11.038393    2.845368    0.453255
     60          6           0       11.978630    4.087383    0.592185
     61          6           0       11.779511    1.558139    0.970302
     62          6           0       10.837270    0.798242    2.020451
     63          6           0       11.770980    0.089497    3.087070
     64          6           0       11.421614    0.531089    4.474106
     65          6           0       12.473219   -0.058504    5.505333
     66          6           0        9.983237    0.140993    4.842182
     67          1           0       -0.377803    1.837534   -0.206432
     68          1           0       -5.743171    5.314800    0.101915
     69          1           0       -9.253847    0.029136    0.613340
     70          1           0       -1.435420   -3.003222    0.688356
     71          1           0        0.027871   -0.843413   -0.622623
     72          1           0       -0.055327    0.050661    1.993890
     73          1           0        1.241819   -1.003143    1.332995
     74          1           0       -0.180281   -1.642505    2.164955
     75          1           0       -1.018180   -1.912694   -2.102989
     76          1           0       -2.430154   -2.832993   -1.887408
     77          1           0       -0.266237   -4.195156   -2.819263
     78          1           0       -0.959934   -4.924980   -1.536367
     79          1           0       -0.261965    5.104733    0.431195
     80          1           0       -0.242015    5.110884   -1.312060
     81          1           0        0.412673    3.781328   -0.446538
     82          1           0       -1.358574    7.595249    0.057195
     83          1           0       -2.440090    8.099323   -1.249981
     84          1           0       -1.237537    6.911425   -1.671770
     85          1           0       -8.220168    4.434858   -0.733749
     86          1           0       -9.334982    2.489842    1.312097
     87          1           0       -9.206770    4.567606    1.973940
     88          1           0       -8.829502    5.880807    0.780728
     89          1           0       -7.641120    5.247001    1.971100
     90          1           0       -9.704322    1.967183   -1.668692
     91          1           0      -10.231145    3.596043   -1.222358
     92          1           0      -11.199919    1.530179    0.608887
     93          1           0      -11.862408    1.374494   -1.044067
     94          1           0      -12.049727    2.898505    0.006590
     95          1           0       -9.504555   -2.975137    0.309966
     96          1           0       -9.454211   -2.368662    1.985120
     97          1           0       -8.788887   -3.980712    1.502719
     98          1           0       -3.679367   -3.964805    2.272704
     99          1           0       -3.531063   -7.498644   -0.431654
    100          1           0       -3.096016   -8.034958    1.103998
    101          1           0       -1.932482   -7.113315    0.005949
    102          1           0        3.701365   -4.614860   -0.791243
    103          1           0        3.285836   -3.033717   -0.201136
    104          1           0        3.685224   -2.718100   -3.033762
    105          1           0        7.187471   -3.160555   -0.762542
    106          1           0        6.979026   -4.711334   -1.583226
    107          1           0        5.794466   -4.181872   -0.375960
    108          1           0        5.512668   -2.845537   -4.409068
    109          1           0        7.035774   -3.104874   -3.808103
    110          1           0        6.038876   -0.705951   -2.484633
    111          1           0        5.629905   -0.563394   -4.234903
    112          1           0        8.250985   -0.996959   -4.308090
    113          1           0        8.208111   -1.250082   -2.561390
    114          1           0        7.178995    1.428984   -2.791166
    115          1           0        8.300821    2.487976   -4.494496
    116          1           0        9.067488    0.878226   -4.853793
    117          1           0        9.827623    1.955221   -3.725289
    118          1           0        9.761072    0.413161   -1.750793
    119          1           0        8.137072    0.388894   -0.879811
    120          1           0        8.641037    2.196892    0.021501
    121          1           0        8.541019    2.992829   -1.583156
    122          1           0       10.628184    3.587768   -1.628859
    123          1           0       11.181783    1.888555   -1.439163
    124          1           0       10.212597    3.162023    1.090894
    125          1           0       11.407338    4.783544    1.206082
    126          1           0       12.309500    4.623079   -0.298022
    127          1           0       12.884715    3.875802    1.160192
    128          1           0       12.748993    1.777303    1.418317
    129          1           0       11.845345    0.784478    0.204668
    130          1           0       10.235277    0.042441    1.515148
    131          1           0       10.184436    1.517558    2.514249
    132          1           0       12.834741    0.266125    2.928515
    133          1           0       11.674452   -0.994634    3.038366
    134          1           0       11.481788    1.605181    4.646449
    135          1           0       13.090390    0.757191    5.881786
    136          1           0       13.062518   -0.907595    5.157123
    137          1           0       11.910479   -0.360896    6.388123
    138          1           0        9.628495   -0.641141    4.170574
    139          1           0        9.345571    1.009185    4.674894
    140          1           0       10.012094   -0.090294    5.907041
 ---------------------------------------------------------------------

 SCF Done:  E(RwB97XD) =  -3007.83927067     A.U. after   19 cycles

 Excitation energies and oscillator strengths:

 Excited State   1:      Singlet-A      1.6255 eV  762.76 nm  f=0.3985  <S**2>=0.000
     245 -> 248       -0.18029
     246 -> 247        0.68356
     245 <- 248       -0.11518
 This state for optimization and/or second-order correction.
 Total Energy, E(TD-HF/TD-DFT) =  -3007.77953609
 Copying the excited state density for this state as the 1-particle RhoCI density.

 Excited State   2:      Singlet-A      2.1527 eV  575.94 nm  f=0.1049  <S**2>=0.000
     245 -> 247        0.63575
     246 -> 248        0.29229

 Excited State   3:      Singlet-A      3.4100 eV  363.59 nm  f=0.0188  <S**2>=0.000
     242 -> 247       -0.13766
     244 -> 247        0.64897
     246 -> 248       -0.18217

 Excited State   4:      Singlet-A      3.4857 eV  355.69 nm  f=0.4943  <S**2>=0.000
     242 -> 247       -0.29384
     244 -> 247        0.10444
     245 -> 247       -0.24073
     246 -> 248        0.56362
     245 <- 247        0.10409

 Excited State   5:      Singlet-A      3.5814 eV  346.19 nm  f=0.0051  <S**2>=0.000
     239 -> 247       -0.13984
     239 -> 249        0.10289
     240 -> 247        0.52168
     240 -> 248        0.13237
     240 -> 249       -0.34083
     240 -> 250       -0.18661

 The electronic state is 1-A.
 Alpha  occ. eigenvalues --  -46.94868 -19.30619 -19.30558 -19.24767 -19.24387
 Alpha  occ. eigenvalues --  -19.23809 -19.23598 -14.47030 -14.46017 -14.44964
 Alpha  occ. eigenvalues --  -14.43443 -10.43043 -10.42754 -10.39383 -10.39017
 Alpha  occ. eigenvalues --  -10.36692 -10.35793 -10.35507 -10.35250 -10.35105
 Alpha  occ. eigenvalues --  -10.34960 -10.34639 -10.34198 -10.33694 -10.33552
 Alpha  occ. eigenvalues --  -10.32892 -10.32745 -10.32266 -10.32199 -10.32093
 Alpha  occ. eigenvalues --  -10.31624 -10.31583 -10.31567 -10.31425 -10.31243
 Alpha  occ. eigenvalues --  -10.31234 -10.31148 -10.31126 -10.31020 -10.30608
 Alpha  occ. eigenvalues --  -10.30606 -10.30450 -10.30130 -10.29903 -10.29902
 Alpha  occ. eigenvalues --  -10.29540 -10.29512 -10.29487 -10.29477 -10.29435
 Alpha  occ. eigenvalues --  -10.29404 -10.29390 -10.29255 -10.29252 -10.29250
 Alpha  occ. eigenvalues --  -10.29154 -10.28976 -10.28964 -10.28560 -10.28547
 Alpha  occ. eigenvalues --  -10.28521 -10.28426 -10.28125 -10.28053 -10.27909
 Alpha  occ. eigenvalues --  -10.27902  -3.20804  -1.94416  -1.93914  -1.93787
 Alpha  occ. eigenvalues --   -1.19395  -1.17821  -1.12231  -1.12105  -1.08770
 Alpha  occ. eigenvalues --   -1.08648  -1.06074  -1.05657  -1.04253  -1.03781
 Alpha  occ. eigenvalues --   -0.93815  -0.92275  -0.91458  -0.91427  -0.90726
 Alpha  occ. eigenvalues --   -0.90140  -0.89976  -0.89325  -0.89006  -0.88928
 Alpha  occ. eigenvalues --   -0.88047  -0.86970  -0.86085  -0.85336  -0.84727
 Alpha  occ. eigenvalues --   -0.84202  -0.83769  -0.83143  -0.82673  -0.82046
 Alpha  occ. eigenvalues --   -0.81388  -0.80594  -0.79556  -0.78652  -0.78141
 Alpha  occ. eigenvalues --   -0.77942  -0.77130  -0.76936  -0.76840  -0.75982
 Alpha  occ. eigenvalues --   -0.74820  -0.74225  -0.73375  -0.72251  -0.70754
 Alpha  occ. eigenvalues --   -0.70552  -0.70273  -0.69297  -0.68716  -0.67520
 Alpha  occ. eigenvalues --   -0.67496  -0.67230  -0.66836  -0.66183  -0.65748
 Alpha  occ. eigenvalues --   -0.65706  -0.64739  -0.64152  -0.63841  -0.62292
 Alpha  occ. eigenvalues --   -0.61617  -0.61385  -0.60686  -0.60251  -0.59780
 Alpha  occ. eigenvalues --   -0.59473  -0.58263  -0.57894  -0.57560  -0.57241
 Alpha  occ. eigenvalues --   -0.56945  -0.56542  -0.56177  -0.56001  -0.55698
 Alpha  occ. eigenvalues --   -0.55507  -0.55271  -0.55197  -0.55136  -0.54826
 Alpha  occ. eigenvalues --   -0.54495  -0.54152  -0.53956  -0.53746  -0.53370
 Alpha  occ. eigenvalues --   -0.53249  -0.52695  -0.52591  -0.52367  -0.52274
 Alpha  occ. eigenvalues --   -0.52232  -0.51929  -0.51723  -0.51664  -0.51542
 Alpha  occ. eigenvalues --   -0.51395  -0.51064  -0.50915  -0.50653  -0.50475
 Alpha  occ. eigenvalues --   -0.50165  -0.50124  -0.50074  -0.49644  -0.49260
 Alpha  occ. eigenvalues --   -0.49083  -0.48986  -0.48638  -0.48576  -0.48477
 Alpha  occ. eigenvalues --   -0.48326  -0.48119  -0.48085  -0.47777  -0.47774
 Alpha  occ. eigenvalues --   -0.47636  -0.47545  -0.46931  -0.46789  -0.46728
 Alpha  occ. eigenvalues --   -0.46349  -0.46331  -0.46047  -0.45855  -0.45638
 Alpha  occ. eigenvalues --   -0.45546  -0.45315  -0.45221  -0.44925  -0.44841
 Alpha  occ. eigenvalues --   -0.44645  -0.44481  -0.44272  -0.43984  -0.43913
 Alpha  occ. eigenvalues --   -0.43693  -0.43573  -0.43378  -0.43077  -0.42664
 Alpha  occ. eigenvalues --   -0.42550  -0.42527  -0.42368  -0.41771  -0.41475
 Alpha  occ. eigenvalues --   -0.40967  -0.40837  -0.40795  -0.40547  -0.40262
 Alpha  occ. eigenvalues --   -0.40166  -0.39980  -0.39868  -0.39528  -0.39372
 Alpha  occ. eigenvalues --   -0.39214  -0.39191  -0.39026  -0.38895  -0.38692
 Alpha  occ. eigenvalues --   -0.38212  -0.37372  -0.36451  -0.36348  -0.35759
 Alpha  occ. eigenvalues --   -0.35618  -0.35261  -0.34959  -0.33857  -0.33488
 Alpha  occ. eigenvalues --   -0.32810  -0.32626  -0.31943  -0.31551  -0.26027
 Alpha  occ. eigenvalues --   -0.22880
 Alpha virt. eigenvalues --   -0.07158   0.00128   0.02137   0.04151   0.06695
 Alpha virt. eigenvalues --    0.07290   0.07756   0.07956   0.08232   0.08702
 Alpha virt. eigenvalues --    0.10441   0.11478   0.11715   0.12359   0.12798

 Mulliken charges:
               1
     1  Mg   0.953755
     2  C    0.004535
     3  C   -0.059096
     4  C   -0.084742
     5  C   -0.070561
     6  N   -0.298784
     7  C   -0.026661
     8  C   -0.115312
     9  C   -0.095921
    10  C    0.066404
    11  C    0.060701
    12  C    0.062207
    13  C    0.033672
    14  C    0.170394
    15  O   -0.292593
    16  O   -0.334542
    17  N   -0.521754
    18  C    0.149638
    19  C   -0.130589
    20  C   -0.054510
    21  C    0.172339
    22  C    0.045255
    23  C    0.014605
    24  O   -0.252488
    25  C   -0.015796
    26  N   -0.381516
    27  C    0.122080
    28  C   -0.099858
    29  C   -0.121375
    30  C    0.082816
    31  C    0.027738
    32  C   -0.004641
    33  C   -0.061235
    34  N   -0.422555
    35  C    0.096870
    36  C   -0.187786
    37  C    0.005681
    38  C    0.093060
    39  C    0.077360
    40  C    0.107602
    41  O   -0.203122
    42  C   -0.090052
    43  C    0.290407
    44  O   -0.285475
    45  O   -0.353891
    46  C    0.137882
    47  C    0.254067
    48  C   -0.150722
    49  C   -0.216747
    50  C    0.017830
    51  C    0.035599
    52  C   -0.014151
    53  C   -0.007739
    54  C   -0.193484
    55  C    0.005077
    56  C   -0.000442
    57  C   -0.016199
    58  C    0.002159
    59  C   -0.197574
    60  C   -0.012771
    61  C    0.023956
    62  C   -0.057860
    63  C    0.009098
    64  C   -0.249785
    65  C   -0.003203
    66  C    0.015310
    67  H    0.001704
    68  H    0.021794
    69  H   -0.001349
    70  H    0.039755
    71  H    0.026318
    72  H    0.020332
    73  H    0.046473
    74  H    0.036668
    75  H    0.025338
    76  H    0.062179
    77  H    0.040019
    78  H    0.048848
    79  H    0.059929
    80  H    0.031646
    81  H    0.051453
    82  H    0.077370
    83  H    0.055344
    84  H    0.050615
    85  H    0.041188
    86  H    0.048211
    87  H    0.028860
    88  H    0.045381
    89  H    0.039611
    90  H    0.043060
    91  H    0.032738
    92  H    0.024432
    93  H    0.049862
    94  H    0.043251
    95  H    0.038575
    96  H    0.047698
    97  H    0.055183
    98  H    0.098317
    99  H    0.052605
   100  H    0.059296
   101  H    0.060782
   102  H    0.055667
   103  H    0.061724
   104  H    0.027727
   105  H    0.049519
   106  H    0.047808
   107  H    0.024533
   108  H    0.026700
   109  H    0.008943
   110  H    0.024226
   111  H    0.038840
   112  H    0.023979
   113  H    0.016192
   114  H    0.014381
   115  H    0.041814
   116  H    0.023298
   117  H    0.021533
   118  H    0.013311
   119  H    0.018406
   120  H    0.025037
   121  H    0.015101
   122  H    0.027618
   123  H    0.021240
   124  H    0.028352
   125  H    0.019345
   126  H    0.030495
   127  H    0.016430
   128  H    0.032416
   129  H    0.026617
   130  H    0.027974
   131  H    0.023231
   132  H    0.020375
   133  H    0.015295
   134  H    0.018489
   135  H    0.029197
   136  H    0.036131
   137  H    0.007082
   138  H    0.029135
   139  H    0.026897
   140  H    0.028887
 Sum of Mulliken charges =  -0.00000

 Dipole moment (field-independent basis, Debye):
    X=              4.2230    Y=              3.0192    Z=             -1.3760  Tot=              5.3706
 Quadrupole moment (field-independent basis, Debye-Ang):
   XX=           -383.3370   YY=           -416.7883   ZZ=           -403.7071
   XY=            -16.6497   XZ=              1.0157   YZ=              7.4900

 Normal termination of Gaussian 16 at Tue May  3 23:53:54 2022.
