 Gaussian 16, Revision A.03,
 Gaussian 16:  ES64L-G16RevA.03 25-Dec-2016

 --------------------
 #p ZINDO=(nstates=5)
 --------------------

 ------------------------------
 step_1101_chromophore_15 ZINDO
 ------------------------------
 Symbolic Z-matrix:
 Charge =  0 Multiplicity = 1

                         Standard orientation:
 ---------------------------------------------------------------------
 Center     Atomic      Atomic             Coordinates (Angstroms)
 Number     Number       Type             X           Y           Z
 ---------------------------------------------------------------------
      1         12           0       -4.795551    1.041569    0.103107
      2          6           0       -4.026756   -2.502636    0.712305
      3          6           0       -1.436719    1.576188   -0.268758
      4          6           0       -5.518753    4.246238    0.130663
      5          6           0       -8.204436    0.232214    0.388494
      6          7           0       -3.002478   -0.346242    0.130980
      7          6           0       -2.929010   -1.668769    0.310648
      8          6           0       -1.515437   -2.173954   -0.015954
      9          6           0       -0.666879   -0.885761    0.216156
     10          6           0       -1.766646    0.232939    0.013465
     11          6           0        0.167661   -0.878916    1.470234
     12          6           0       -1.426888   -2.708327   -1.480549
     13          6           0       -0.472406   -3.978901   -1.771356
     14          6           0        0.881079   -4.081842   -1.016332
     15          8           0        1.026728   -4.341569    0.175148
     16          8           0        1.948914   -3.813960   -1.762612
     17          7           0       -3.701598    2.715130   -0.140206
     18          6           0       -2.288702    2.732206   -0.369332
     19          6           0       -1.872588    4.105250   -0.568989
     20          6           0       -2.998677    4.935317   -0.484050
     21          6           0       -4.203908    3.968107   -0.208755
     22          6           0       -0.426015    4.476426   -0.444266
     23          6           0       -3.046823    6.419104   -0.544907
     24          8           0       -4.099838    7.013045   -0.308035
     25          6           0       -1.862986    7.264956   -0.850930
     26          7           0       -6.611932    2.100879    0.366247
     27          6           0       -6.598920    3.409681    0.258806
     28          6           0       -8.035645    3.954373    0.226160
     29          6           0       -8.967527    2.704817    0.308115
     30          6           0       -7.884776    1.548256    0.202419
     31          6           0       -8.463140    4.995324    1.300942
     32          6           0      -10.031594    2.594893   -0.839896
     33          6           0      -11.431108    2.060569   -0.315488
     34          7           0       -5.928647   -0.761639    0.443997
     35          6           0       -7.327510   -0.905458    0.558027
     36          6           0       -7.628350   -2.287042    0.922745
     37          6           0       -6.397999   -2.875451    1.070294
     38          6           0       -5.391224   -1.980057    0.718310
     39          6           0       -8.914360   -2.933831    1.225833
     40          6           0       -5.767099   -4.145898    1.362385
     41          8           0       -6.355432   -5.182703    1.640107
     42          6           0       -4.168919   -3.910262    1.301039
     43          6           0       -3.708180   -4.924587    0.377730
     44          8           0       -3.599213   -4.895011   -0.870128
     45          8           0       -3.337176   -5.958862    1.181721
     46          6           0       -2.934736   -7.195134    0.427786
     47          6           0        3.257955   -3.664948   -1.089530
     48          6           0        4.219645   -3.069645   -2.150521
     49          6           0        5.542638   -3.191518   -2.310424
     50          6           0        6.450960   -3.847790   -1.179207
     51          6           0        6.121961   -2.567909   -3.549607
     52          6           0        6.283926   -1.026647   -3.497066
     53          6           0        7.793328   -0.657614   -3.378171
     54          6           0        8.093189    0.856321   -2.945419
     55          6           0        8.854936    1.636024   -4.099839
     56          6           0        8.781250    0.872065   -1.614479
     57          6           0        9.044328    2.227549   -0.991464
     58          6           0       10.537105    2.673352   -1.042318
     59          6           0       11.038393    2.845368    0.453255
     60          6           0       11.978630    4.087383    0.592185
     61          6           0       11.779511    1.558139    0.970302
     62          6           0       10.837270    0.798242    2.020451
     63          6           0       11.770980    0.089497    3.087070
     64          6           0       11.421614    0.531089    4.474106
     65          6           0       12.473219   -0.058504    5.505333
     66          6           0        9.983237    0.140993    4.842182
     67          1           0       -0.377803    1.837534   -0.206432
     68          1           0       -5.743171    5.314800    0.101915
     69          1           0       -9.253847    0.029136    0.613340
     70          1           0       -1.435420   -3.003222    0.688356
     71          1           0        0.027871   -0.843413   -0.622623
     72          1           0       -0.055327    0.050661    1.993890
     73          1           0        1.241819   -1.003143    1.332995
     74          1           0       -0.180281   -1.642505    2.164955
     75          1           0       -1.018180   -1.912694   -2.102989
     76          1           0       -2.430154   -2.832993   -1.887408
     77          1           0       -0.266237   -4.195156   -2.819263
     78          1           0       -0.959934   -4.924980   -1.536367
     79          1           0       -0.261965    5.104733    0.431195
     80          1           0       -0.242015    5.110884   -1.312060
     81          1           0        0.412673    3.781328   -0.446538
     82          1           0       -1.358574    7.595249    0.057195
     83          1           0       -2.440090    8.099323   -1.249981
     84          1           0       -1.237537    6.911425   -1.671770
     85          1           0       -8.220168    4.434858   -0.733749
     86          1           0       -9.334982    2.489842    1.312097
     87          1           0       -9.206770    4.567606    1.973940
     88          1           0       -8.829502    5.880807    0.780728
     89          1           0       -7.641120    5.247001    1.971100
     90          1           0       -9.704322    1.967183   -1.668692
     91          1           0      -10.231145    3.596043   -1.222358
     92          1           0      -11.199919    1.530179    0.608887
     93          1           0      -11.862408    1.374494   -1.044067
     94          1           0      -12.049727    2.898505    0.006590
     95          1           0       -9.504555   -2.975137    0.309966
     96          1           0       -9.454211   -2.368662    1.985120
     97          1           0       -8.788887   -3.980712    1.502719
     98          1           0       -3.679367   -3.964805    2.272704
     99          1           0       -3.531063   -7.498644   -0.431654
    100          1           0       -3.096016   -8.034958    1.103998
    101          1           0       -1.932482   -7.113315    0.005949
    102          1           0        3.701365   -4.614860   -0.791243
    103          1           0        3.285836   -3.033717   -0.201136
    104          1           0        3.685224   -2.718100   -3.033762
    105          1           0        7.187471   -3.160555   -0.762542
    106          1           0        6.979026   -4.711334   -1.583226
    107          1           0        5.794466   -4.181872   -0.375960
    108          1           0        5.512668   -2.845537   -4.409068
    109          1           0        7.035774   -3.104874   -3.808103
    110          1           0        6.038876   -0.705951   -2.484633
    111          1           0        5.629905   -0.563394   -4.234903
    112          1           0        8.250985   -0.996959   -4.308090
    113          1           0        8.208111   -1.250082   -2.561390
    114          1           0        7.178995    1.428984   -2.791166
    115          1           0        8.300821    2.487976   -4.494496
    116          1           0        9.067488    0.878226   -4.853793
    117          1           0        9.827623    1.955221   -3.725289
    118          1           0        9.761072    0.413161   -1.750793
    119          1           0        8.137072    0.388894   -0.879811
    120          1           0        8.641037    2.196892    0.021501
    121          1           0        8.541019    2.992829   -1.583156
    122          1           0       10.628184    3.587768   -1.628859
    123          1           0       11.181783    1.888555   -1.439163
    124          1           0       10.212597    3.162023    1.090894
    125          1           0       11.407338    4.783544    1.206082
    126          1           0       12.309500    4.623079   -0.298022
    127          1           0       12.884715    3.875802    1.160192
    128          1           0       12.748993    1.777303    1.418317
    129          1           0       11.845345    0.784478    0.204668
    130          1           0       10.235277    0.042441    1.515148
    131          1           0       10.184436    1.517558    2.514249
    132          1           0       12.834741    0.266125    2.928515
    133          1           0       11.674452   -0.994634    3.038366
    134          1           0       11.481788    1.605181    4.646449
    135          1           0       13.090390    0.757191    5.881786
    136          1           0       13.062518   -0.907595    5.157123
    137          1           0       11.910479   -0.360896    6.388123
    138          1           0        9.628495   -0.641141    4.170574
    139          1           0        9.345571    1.009185    4.674894
    140          1           0       10.012094   -0.090294    5.907041
 ---------------------------------------------------------------------

 SCF Done:  E(RZINDO/S) =  -473.988951863     A.U. after   19 cycles

 Excitation energies and oscillator strengths:

 Excited State   1:      Singlet-A      1.2556 eV  987.44 nm  f=0.6153  <S**2>=0.000
     175 ->178         0.18586
     176 ->177         0.66496
 This state for optimization and/or second-order correction.
 Total Energy, E(CIS/TDA) =  -473.942809009
 Copying the excited state density for this state as the 1-particle RhoCI density.

 Excited State   2:      Singlet-A      1.8993 eV  652.80 nm  f=0.0497  <S**2>=0.000
     175 ->177         0.54954
     176 ->178        -0.41805

 Excited State   3:      Singlet-A      2.8823 eV  430.15 nm  f=0.0000  <S**2>=0.000
     168 ->177         0.35744
     168 ->179        -0.40939
     168 ->180         0.25119
     168 ->183        -0.12396
     168 ->186        -0.22533
     168 ->187        -0.11495

 Excited State   4:      Singlet-A      2.9739 eV  416.90 nm  f=0.4891  <S**2>=0.000
     175 ->177         0.26038
     176 ->178         0.35549
     176 ->179         0.51774

 Excited State   5:      Singlet-A      2.9933 eV  414.21 nm  f=0.1138  <S**2>=0.000
     169 ->179         0.10650
     169 ->180         0.11095
     170 ->177        -0.27279
     170 ->179        -0.26951
     170 ->180        -0.31506
     170 ->183         0.12378
     170 ->186        -0.16267
     175 ->177         0.12190
     176 ->178         0.16605
     176 ->179        -0.16041

 The electronic state is 1-A.
 Alpha  occ. eigenvalues --   -1.82057  -1.80606  -1.78673  -1.73308  -1.71920
 Alpha  occ. eigenvalues --   -1.69919  -1.65693  -1.61049  -1.60743  -1.56105
 Alpha  occ. eigenvalues --   -1.55911  -1.50406  -1.47814  -1.47233  -1.45927
 Alpha  occ. eigenvalues --   -1.42414  -1.40933  -1.39818  -1.38309  -1.37341
 Alpha  occ. eigenvalues --   -1.35845  -1.32894  -1.31936  -1.31166  -1.28740
 Alpha  occ. eigenvalues --   -1.27333  -1.24808  -1.21669  -1.19871  -1.17792
 Alpha  occ. eigenvalues --   -1.17408  -1.16756  -1.15641  -1.14774  -1.13301
 Alpha  occ. eigenvalues --   -1.11185  -1.11004  -1.10785  -1.04909  -1.03770
 Alpha  occ. eigenvalues --   -1.01938  -1.00943  -0.99091  -0.97070  -0.96642
 Alpha  occ. eigenvalues --   -0.95921  -0.94671  -0.94078  -0.92658  -0.92043
 Alpha  occ. eigenvalues --   -0.90788  -0.89785  -0.88409  -0.88033  -0.86943
 Alpha  occ. eigenvalues --   -0.85751  -0.85495  -0.83348  -0.81941  -0.80902
 Alpha  occ. eigenvalues --   -0.79874  -0.78474  -0.77615  -0.76777  -0.75780
 Alpha  occ. eigenvalues --   -0.75435  -0.75011  -0.74150  -0.73535  -0.73157
 Alpha  occ. eigenvalues --   -0.72675  -0.72054  -0.71432  -0.70826  -0.70412
 Alpha  occ. eigenvalues --   -0.69796  -0.69069  -0.68276  -0.68078  -0.67630
 Alpha  occ. eigenvalues --   -0.67356  -0.67208  -0.66401  -0.65986  -0.65862
 Alpha  occ. eigenvalues --   -0.65300  -0.64976  -0.64445  -0.64183  -0.63689
 Alpha  occ. eigenvalues --   -0.63101  -0.62899  -0.62514  -0.62223  -0.62132
 Alpha  occ. eigenvalues --   -0.61805  -0.61190  -0.60412  -0.59956  -0.59613
 Alpha  occ. eigenvalues --   -0.59439  -0.58987  -0.58843  -0.58733  -0.58715
 Alpha  occ. eigenvalues --   -0.58347  -0.57962  -0.57435  -0.57052  -0.56568
 Alpha  occ. eigenvalues --   -0.56134  -0.55866  -0.55425  -0.54594  -0.54233
 Alpha  occ. eigenvalues --   -0.54124  -0.53742  -0.52846  -0.52574  -0.52337
 Alpha  occ. eigenvalues --   -0.52210  -0.52132  -0.51785  -0.51650  -0.51352
 Alpha  occ. eigenvalues --   -0.50795  -0.50679  -0.50342  -0.50164  -0.50148
 Alpha  occ. eigenvalues --   -0.49706  -0.49594  -0.49360  -0.49259  -0.49145
 Alpha  occ. eigenvalues --   -0.48685  -0.48145  -0.48033  -0.47625  -0.47453
 Alpha  occ. eigenvalues --   -0.47304  -0.47032  -0.47009  -0.46963  -0.46825
 Alpha  occ. eigenvalues --   -0.46511  -0.45753  -0.45698  -0.45489  -0.45299
 Alpha  occ. eigenvalues --   -0.45229  -0.45197  -0.44860  -0.44843  -0.44081
 Alpha  occ. eigenvalues --   -0.43853  -0.43564  -0.42499  -0.42445  -0.41847
 Alpha  occ. eigenvalues --   -0.41724  -0.41332  -0.40955  -0.38753  -0.38270
 Alpha  occ. eigenvalues --   -0.38191  -0.36628  -0.35761  -0.34605  -0.34298
 Alpha  occ. eigenvalues --   -0.33928  -0.32483  -0.32318  -0.32143  -0.26540
 Alpha  occ. eigenvalues --   -0.21705
 Alpha virt. eigenvalues --   -0.08542  -0.01963  -0.00816   0.00811   0.02432
 Alpha virt. eigenvalues --    0.02926   0.03154   0.03284   0.04685   0.04885
 Alpha virt. eigenvalues --    0.05836   0.06246   0.06607   0.07549   0.08089

 Mulliken charges:
               1
     1  Mg   0.420913
     2  C   -0.054109
     3  C   -0.079275
     4  C   -0.070903
     5  C   -0.050663
     6  N   -0.266480
     7  C    0.123024
     8  C    0.006733
     9  C    0.011547
    10  C    0.136163
    11  C   -0.044125
    12  C   -0.008923
    13  C   -0.000318
    14  C    0.468840
    15  O   -0.541055
    16  O   -0.256573
    17  N   -0.323526
    18  C    0.100289
    19  C    0.037155
    20  C   -0.042754
    21  C    0.155229
    22  C   -0.043055
    23  C    0.334304
    24  O   -0.532199
    25  C   -0.039280
    26  N   -0.265621
    27  C    0.184843
    28  C    0.002037
    29  C   -0.010657
    30  C    0.073655
    31  C   -0.052861
    32  C   -0.033219
    33  C   -0.066449
    34  N   -0.330631
    35  C    0.064128
    36  C    0.031414
    37  C   -0.049520
    38  C    0.092953
    39  C   -0.035032
    40  C    0.330206
    41  O   -0.518479
    42  C    0.071989
    43  C    0.498427
    44  O   -0.550884
    45  O   -0.257283
    46  C    0.067870
    47  C    0.106512
    48  C   -0.097363
    49  C   -0.009725
    50  C   -0.046602
    51  C   -0.016554
    52  C   -0.036920
    53  C   -0.037915
    54  C   -0.016146
    55  C   -0.065435
    56  C   -0.027646
    57  C   -0.042665
    58  C   -0.039625
    59  C   -0.020005
    60  C   -0.069455
    61  C   -0.042399
    62  C   -0.049911
    63  C   -0.029960
    64  C   -0.012386
    65  C   -0.070917
    66  C   -0.060261
    67  H    0.028898
    68  H    0.036874
    69  H    0.024874
    70  H    0.038776
    71  H    0.022199
    72  H    0.014233
    73  H    0.030328
    74  H    0.023104
    75  H    0.014106
    76  H    0.044325
    77  H    0.033735
    78  H    0.045441
    79  H    0.029175
    80  H    0.020348
    81  H    0.033731
    82  H    0.053435
    83  H    0.038507
    84  H    0.034136
    85  H    0.031568
    86  H    0.043604
    87  H    0.021330
    88  H    0.025978
    89  H    0.022606
    90  H    0.029909
    91  H    0.015800
    92  H    0.015827
    93  H    0.028853
    94  H    0.024596
    95  H    0.025279
    96  H    0.029204
    97  H    0.036004
    98  H    0.069385
    99  H    0.044506
   100  H    0.033086
   101  H    0.044817
   102  H    0.050550
   103  H    0.055178
   104  H    0.024165
   105  H    0.029303
   106  H    0.029141
   107  H    0.024146
   108  H    0.016878
   109  H    0.014019
   110  H    0.017347
   111  H    0.037585
   112  H    0.021639
   113  H    0.018796
   114  H    0.016696
   115  H    0.026694
   116  H    0.019469
   117  H    0.018939
   118  H    0.022038
   119  H    0.014513
   120  H    0.023139
   121  H    0.013897
   122  H    0.023980
   123  H    0.025023
   124  H    0.028677
   125  H    0.009219
   126  H    0.021796
   127  H    0.014279
   128  H    0.033873
   129  H    0.022442
   130  H    0.021404
   131  H    0.025842
   132  H    0.015026
   133  H    0.016572
   134  H    0.019523
   135  H    0.016050
   136  H    0.026541
   137  H    0.012045
   138  H    0.024584
   139  H    0.012824
   140  H    0.025125
 Sum of Mulliken charges =  -0.00000

 Dipole moment (field-independent basis, Debye):
    X=              6.8692    Y=              4.9411    Z=             -1.7940  Tot=              8.6498
 N-N= 4.325940814721D+03 E-N= 0.000000000000D+00  KE=-9.326265943608D+03
 Leave Link  601 at Wed May  4 00:06:55 2022, MaxMem=  6710886400 cpu:               0.8 elap:               0.0
 (Enter /sw/apps/gaussian-16.0/g16/l9999.exe)
 1\1\GINC-BP1-COMPUTE122\SP\RZINDO CIS\STO-3G\C55H74Mg1N4O6\OF15641\04-
 May-2022\0\\#p ZINDO=(nstates=5)\\step_1101_chromophore_15 ZINDO\\0,1\
 Mg,0,47.146,35.191,28.517\C,0,45.401,33.374,31.196\C,0,47.462,37.823,3
 0.68\C,0,48.178,36.923,25.923\C,0,46.828,32.317,26.518\N,0,46.571,35.4
 75,30.692\C,0,45.978,34.64,31.551\C,0,46.041,35.208,32.977\C,0,46.177,
 36.736,32.694\C,0,46.79,36.713,31.236\C,0,44.941,37.555,32.96\C,0,47.2
 53,34.623,33.769\C,0,47.068,34.347,35.35\C,0,46.238,35.356,36.19\O,0,4

 Normal termination of Gaussian 16 at Wed May  4 00:06:55 2022.
