 Gaussian 16, Revision A.03,
 Gaussian 16:  ES64L-G16RevA.03 25-Dec-2016

 ------------------------------
 #p blyp/Def2SVP td=(nstates=5)
 ------------------------------

 --------------------------------------------------
 step_151_chromophore_15 TDDFT with blyp functional
 --------------------------------------------------
 Symbolic Z-matrix:
 Charge =  0 Multiplicity = 1

                         Standard orientation:
 ---------------------------------------------------------------------
 Center     Atomic      Atomic             Coordinates (Angstroms)
 Number     Number       Type             X           Y           Z
 ---------------------------------------------------------------------
      1         12           0       -4.764447    1.051228    0.032988
      2          6           0       -4.349663   -2.372173    0.779279
      3          6           0       -1.359419    1.422536   -0.037019
      4          6           0       -5.286207    4.419600   -0.060845
      5          6           0       -8.258927    0.510492    0.623564
      6          7           0       -3.067896   -0.277033    0.316056
      7          6           0       -3.198255   -1.683911    0.381444
      8          6           0       -1.747121   -2.345960    0.025703
      9          6           0       -0.860658   -1.094125    0.416103
     10          6           0       -1.800953    0.112527    0.161512
     11          6           0       -0.378960   -1.130447    1.909977
     12          6           0       -1.711944   -2.562282   -1.562150
     13          6           0       -0.725376   -3.697685   -1.941905
     14          6           0        0.398209   -3.992691   -0.905508
     15          8           0        0.394526   -4.884137   -0.066266
     16          8           0        1.511615   -3.203108   -1.028280
     17          7           0       -3.478554    2.693990   -0.112859
     18          6           0       -2.105054    2.630429   -0.266079
     19          6           0       -1.594602    3.895265   -0.595679
     20          6           0       -2.719667    4.752138   -0.410690
     21          6           0       -3.887960    3.971616   -0.210554
     22          6           0       -0.096791    4.214173   -0.772170
     23          6           0       -2.770307    6.255207   -0.551361
     24          8           0       -3.797522    6.871959   -0.573619
     25          6           0       -1.424238    6.925966   -0.443625
     26          7           0       -6.471955    2.335557    0.206626
     27          6           0       -6.458917    3.707028    0.123598
     28          6           0       -7.922135    4.268787    0.022558
     29          6           0       -8.829733    2.919741    0.132942
     30          6           0       -7.790439    1.848990    0.335809
     31          6           0       -8.270464    5.319907    1.075948
     32          6           0       -9.798159    2.677672   -1.123650
     33          6           0      -11.325863    2.432783   -0.913983
     34          7           0       -6.027877   -0.553200    0.654554
     35          6           0       -7.395531   -0.625453    0.737529
     36          6           0       -7.840349   -2.022956    0.912310
     37          6           0       -6.664148   -2.700417    1.119351
     38          6           0       -5.609544   -1.792989    0.862908
     39          6           0       -9.218899   -2.542897    0.898216
     40          6           0       -6.163148   -4.019964    1.303069
     41          8           0       -6.697800   -5.069667    1.508740
     42          6           0       -4.592007   -3.832637    1.104800
     43          6           0       -4.206681   -4.737725    0.069034
     44          8           0       -4.254893   -4.540845   -1.131109
     45          8           0       -3.762506   -5.886606    0.537569
     46          6           0       -2.779390   -6.688450   -0.267110
     47          6           0        2.652725   -3.565866   -0.170184
     48          6           0        3.872053   -3.084898   -1.010545
     49          6           0        5.120249   -3.549543   -1.250386
     50          6           0        5.647487   -4.758269   -0.476576
     51          6           0        5.957442   -2.902044   -2.262577
     52          6           0        7.000259   -1.973180   -1.671097
     53          6           0        7.087277   -0.658556   -2.403731
     54          6           0        7.730676    0.479646   -1.550839
     55          6           0        6.936860    1.807478   -1.553196
     56          6           0        9.191333    0.780086   -2.091297
     57          6           0       10.243674    0.509648   -1.024821
     58          6           0       11.662537    0.837250   -1.637587
     59          6           0       12.239891    2.037597   -0.863493
     60          6           0       13.125686    2.954683   -1.721105
     61          6           0       12.981143    1.670734    0.458173
     62          6           0       12.360202    2.408931    1.760313
     63          6           0       11.239171    1.493107    2.339308
     64          6           0       11.523649    1.170899    3.837000
     65          6           0       12.667828    0.246410    4.080863
     66          6           0       10.192680    0.677873    4.378354
     67          1           0       -0.274168    1.510296   -0.113828
     68          1           0       -5.449191    5.482938   -0.246419
     69          1           0       -9.341205    0.364621    0.603141
     70          1           0       -1.528172   -3.220102    0.638005
     71          1           0        0.031686   -0.907157   -0.181115
     72          1           0        0.687243   -0.900991    1.913420
     73          1           0       -0.508570   -2.146522    2.282173
     74          1           0       -0.887539   -0.346945    2.471242
     75          1           0       -1.348602   -1.728274   -2.163848
     76          1           0       -2.740338   -2.748590   -1.871079
     77          1           0       -0.244528   -3.297155   -2.834805
     78          1           0       -1.432765   -4.502004   -2.145475
     79          1           0        0.541189    3.331130   -0.730516
     80          1           0        0.394361    4.881496   -0.064175
     81          1           0        0.060024    4.667249   -1.750996
     82          1           0       -1.621656    7.995370   -0.370281
     83          1           0       -0.872964    6.693014   -1.354188
     84          1           0       -0.843017    6.637177    0.432421
     85          1           0       -8.033166    4.618404   -1.003370
     86          1           0       -9.414529    2.866544    1.051478
     87          1           0       -8.566415    6.263205    0.615821
     88          1           0       -7.315445    5.518454    1.563405
     89          1           0       -9.032990    4.921846    1.744080
     90          1           0       -9.460534    1.848307   -1.746180
     91          1           0       -9.744880    3.572473   -1.745222
     92          1           0      -11.978037    3.034072   -1.547075
     93          1           0      -11.693891    2.695514    0.078221
     94          1           0      -11.521241    1.374611   -1.086617
     95          1           0       -9.894865   -1.967587    0.265300
     96          1           0       -9.669472   -2.659403    1.883048
     97          1           0       -9.254868   -3.521434    0.419861
     98          1           0       -4.045149   -3.981770    2.035993
     99          1           0       -3.189421   -7.688463   -0.125217
    100          1           0       -1.783004   -6.650354    0.173173
    101          1           0       -2.606057   -6.425765   -1.310490
    102          1           0        2.837429   -4.631745   -0.037409
    103          1           0        2.639949   -3.035542    0.781307
    104          1           0        3.510208   -2.191171   -1.519371
    105          1           0        5.502848   -5.634816   -1.107596
    106          1           0        5.096151   -4.804751    0.462069
    107          1           0        6.697588   -4.683471   -0.193578
    108          1           0        5.349363   -2.359616   -2.987576
    109          1           0        6.418383   -3.739819   -2.785827
    110          1           0        7.957564   -2.472086   -1.824050
    111          1           0        6.833898   -1.990981   -0.594190
    112          1           0        6.083119   -0.317051   -2.655894
    113          1           0        7.653288   -0.846358   -3.316597
    114          1           0        7.772329    0.159790   -0.510016
    115          1           0        7.516556    2.529203   -0.977134
    116          1           0        5.966634    1.651338   -1.081851
    117          1           0        6.873928    2.106676   -2.599354
    118          1           0        9.349640    1.808164   -2.414499
    119          1           0        9.325940    0.056546   -2.895281
    120          1           0       10.143345   -0.543414   -0.762645
    121          1           0        9.878247    1.121414   -0.200109
    122          1           0       11.558744    0.943115   -2.717236
    123          1           0       12.272838   -0.053564   -1.495561
    124          1           0       11.290342    2.533110   -0.662735
    125          1           0       12.438566    3.516569   -2.354650
    126          1           0       13.666085    2.357920   -2.456811
    127          1           0       13.865456    3.553217   -1.191029
    128          1           0       14.004300    2.045551    0.480569
    129          1           0       13.029670    0.616261    0.730783
    130          1           0       11.896425    3.356417    1.482861
    131          1           0       13.121871    2.582913    2.520610
    132          1           0       11.096541    0.557178    1.800117
    133          1           0       10.304382    2.046926    2.248327
    134          1           0       11.634856    2.001096    4.533412
    135          1           0       13.588072    0.802767    4.262509
    136          1           0       12.768634   -0.320512    3.155396
    137          1           0       12.380810   -0.359916    4.939427
    138          1           0       10.101891   -0.406139    4.440050
    139          1           0        9.267180    0.985529    3.892182
    140          1           0       10.101946    1.019843    5.409284
 ---------------------------------------------------------------------

 SCF Done:  E(RB-LYP) =  -3007.37011339     A.U. after   20 cycles

 Excitation energies and oscillator strengths:

 Excited State   1:      Singlet-A      1.7634 eV  703.11 nm  f=0.2745  <S**2>=0.000
     244 -> 247       -0.18688
     245 -> 248       -0.17959
     246 -> 247        0.67225
     246 <- 247       -0.15446
 This state for optimization and/or second-order correction.
 Total Energy, E(TD-HF/TD-DFT) =  -3007.30531074
 Copying the excited state density for this state as the 1-particle RhoCI density.

 Excited State   2:      Singlet-A      1.8547 eV  668.49 nm  f=0.0253  <S**2>=0.000
     244 -> 247        0.67337
     245 -> 247        0.10716
     246 -> 247        0.17830

 Excited State   3:      Singlet-A      2.0021 eV  619.27 nm  f=0.1041  <S**2>=0.000
     243 -> 247       -0.10320
     244 -> 247       -0.10293
     245 -> 247        0.64238
     246 -> 248        0.23413

 Excited State   4:      Singlet-A      2.1417 eV  578.91 nm  f=0.0022  <S**2>=0.000
     243 -> 247        0.69828

 Excited State   5:      Singlet-A      2.3498 eV  527.65 nm  f=0.0001  <S**2>=0.000
     241 -> 247        0.70634

 The electronic state is 1-A.
 Alpha  occ. eigenvalues --  -46.27054 -18.83041 -18.80758 -18.77348 -18.76589
 Alpha  occ. eigenvalues --  -18.75474 -18.75079 -14.03184 -14.03115 -14.01128
 Alpha  occ. eigenvalues --  -14.00401 -10.05052 -10.02613  -9.99923  -9.98995
 Alpha  occ. eigenvalues --   -9.98701  -9.97206  -9.97189  -9.96866  -9.96117
 Alpha  occ. eigenvalues --   -9.96083  -9.95911  -9.95278  -9.95077  -9.94800
 Alpha  occ. eigenvalues --   -9.94288  -9.94051  -9.93992  -9.93977  -9.93698
 Alpha  occ. eigenvalues --   -9.93659  -9.93416  -9.93354  -9.93255  -9.93209
 Alpha  occ. eigenvalues --   -9.93209  -9.93182  -9.93109  -9.93035  -9.92893
 Alpha  occ. eigenvalues --   -9.92770  -9.92446  -9.92152  -9.92111  -9.92103
 Alpha  occ. eigenvalues --   -9.92057  -9.91974  -9.91824  -9.91612  -9.91606
 Alpha  occ. eigenvalues --   -9.91604  -9.91595  -9.91414  -9.91384  -9.91378
 Alpha  occ. eigenvalues --   -9.91370  -9.91336  -9.91233  -9.91214  -9.91117
 Alpha  occ. eigenvalues --   -9.90976  -9.90929  -9.90852  -9.90846  -9.90818
 Alpha  occ. eigenvalues --   -9.90167  -2.91605  -1.72035  -1.71442  -1.71356
 Alpha  occ. eigenvalues --   -0.98760  -0.98055  -0.93346  -0.92671  -0.90010
 Alpha  occ. eigenvalues --   -0.88523  -0.87128  -0.85727  -0.84779  -0.83896
 Alpha  occ. eigenvalues --   -0.76013  -0.74485  -0.73196  -0.72455  -0.72057
 Alpha  occ. eigenvalues --   -0.71690  -0.71205  -0.71124  -0.70527  -0.69902
 Alpha  occ. eigenvalues --   -0.69528  -0.68977  -0.68208  -0.67390  -0.66902
 Alpha  occ. eigenvalues --   -0.66468  -0.65734  -0.65304  -0.64800  -0.64554
 Alpha  occ. eigenvalues --   -0.64356  -0.62619  -0.61914  -0.61807  -0.61198
 Alpha  occ. eigenvalues --   -0.60806  -0.60703  -0.59748  -0.59327  -0.58551
 Alpha  occ. eigenvalues --   -0.58192  -0.57804  -0.56162  -0.55107  -0.54479
 Alpha  occ. eigenvalues --   -0.54174  -0.53134  -0.52364  -0.52154  -0.51364
 Alpha  occ. eigenvalues --   -0.51182  -0.50956  -0.50397  -0.50096  -0.50048
 Alpha  occ. eigenvalues --   -0.49991  -0.49505  -0.48942  -0.47959  -0.46456
 Alpha  occ. eigenvalues --   -0.46325  -0.46106  -0.45741  -0.45163  -0.44886
 Alpha  occ. eigenvalues --   -0.43928  -0.43259  -0.43018  -0.42849  -0.42507
 Alpha  occ. eigenvalues --   -0.42126  -0.41936  -0.41546  -0.41351  -0.40897
 Alpha  occ. eigenvalues --   -0.40824  -0.40427  -0.39994  -0.39975  -0.39840
 Alpha  occ. eigenvalues --   -0.39701  -0.39543  -0.39483  -0.39377  -0.39258
 Alpha  occ. eigenvalues --   -0.39165  -0.39058  -0.38708  -0.38338  -0.38103
 Alpha  occ. eigenvalues --   -0.37969  -0.37860  -0.37677  -0.37538  -0.37224
 Alpha  occ. eigenvalues --   -0.37157  -0.36951  -0.36860  -0.36658  -0.36397
 Alpha  occ. eigenvalues --   -0.36234  -0.36083  -0.35933  -0.35812  -0.35605
 Alpha  occ. eigenvalues --   -0.35502  -0.35368  -0.35015  -0.34938  -0.34864
 Alpha  occ. eigenvalues --   -0.34678  -0.34449  -0.34347  -0.34008  -0.33950
 Alpha  occ. eigenvalues --   -0.33676  -0.33406  -0.33228  -0.33204  -0.33135
 Alpha  occ. eigenvalues --   -0.33127  -0.32942  -0.32619  -0.32508  -0.32426
 Alpha  occ. eigenvalues --   -0.32350  -0.32250  -0.32122  -0.31979  -0.31768
 Alpha  occ. eigenvalues --   -0.31416  -0.31366  -0.30990  -0.30766  -0.30668
 Alpha  occ. eigenvalues --   -0.30465  -0.30401  -0.30023  -0.29930  -0.29684
 Alpha  occ. eigenvalues --   -0.29470  -0.29289  -0.29208  -0.29147  -0.28803
 Alpha  occ. eigenvalues --   -0.28712  -0.28309  -0.28099  -0.27750  -0.27552
 Alpha  occ. eigenvalues --   -0.27413  -0.27275  -0.27176  -0.26984  -0.26645
 Alpha  occ. eigenvalues --   -0.26227  -0.26072  -0.25905  -0.25901  -0.25785
 Alpha  occ. eigenvalues --   -0.25165  -0.24097  -0.23640  -0.23401  -0.23121
 Alpha  occ. eigenvalues --   -0.23091  -0.22210  -0.22101  -0.21323  -0.20821
 Alpha  occ. eigenvalues --   -0.20374  -0.20205  -0.19482  -0.18461  -0.17264
 Alpha  occ. eigenvalues --   -0.15798
 Alpha virt. eigenvalues --   -0.11739  -0.06521  -0.06102  -0.04123  -0.03867
 Alpha virt. eigenvalues --   -0.02463  -0.02000  -0.01716  -0.01097   0.00750
 Alpha virt. eigenvalues --    0.01376   0.01845   0.02021   0.02490   0.02695

 Mulliken charges:
               1
     1  Mg   0.690720
     2  C    0.052211
     3  C   -0.045790
     4  C   -0.027318
     5  C   -0.076436
     6  N   -0.220675
     7  C   -0.079575
     8  C   -0.043639
     9  C   -0.021278
    10  C    0.006899
    11  C    0.140387
    12  C    0.076733
    13  C    0.166742
    14  C    0.087321
    15  O   -0.202681
    16  O   -0.273636
    17  N   -0.274664
    18  C    0.126455
    19  C   -0.106019
    20  C    0.001558
    21  C    0.073026
    22  C    0.155990
    23  C   -0.082810
    24  O   -0.135153
    25  C    0.128419
    26  N   -0.251792
    27  C    0.013628
    28  C    0.013869
    29  C    0.018094
    30  C    0.025567
    31  C    0.154673
    32  C    0.080346
    33  C    0.041067
    34  N   -0.206448
    35  C    0.110733
    36  C   -0.171714
    37  C    0.107925
    38  C    0.044764
    39  C    0.168933
    40  C   -0.061915
    41  O   -0.085031
    42  C    0.062615
    43  C    0.083008
    44  O   -0.197267
    45  O   -0.245891
    46  C    0.198905
    47  C    0.320422
    48  C   -0.163431
    49  C   -0.160534
    50  C    0.129737
    51  C    0.184744
    52  C    0.069835
    53  C    0.115258
    54  C   -0.074212
    55  C    0.101356
    56  C    0.078686
    57  C   -0.005339
    58  C    0.128787
    59  C   -0.043015
    60  C    0.118185
    61  C    0.102244
    62  C    0.059487
    63  C    0.057924
    64  C   -0.089891
    65  C    0.143650
    66  C    0.087266
    67  H   -0.076219
    68  H   -0.038279
    69  H   -0.054595
    70  H    0.000226
    71  H   -0.038011
    72  H   -0.013800
    73  H   -0.001116
    74  H    0.004578
    75  H   -0.016511
    76  H    0.015113
    77  H   -0.012941
    78  H    0.008119
    79  H   -0.023337
    80  H   -0.000637
    81  H   -0.003355
    82  H   -0.016893
    83  H   -0.000851
    84  H    0.014710
    85  H   -0.011742
    86  H   -0.018566
    87  H   -0.006358
    88  H   -0.003874
    89  H   -0.004592
    90  H   -0.011275
    91  H   -0.019243
    92  H   -0.007214
    93  H   -0.013739
    94  H   -0.000010
    95  H   -0.017931
    96  H    0.012777
    97  H    0.002134
    98  H   -0.000341
    99  H    0.018532
   100  H    0.024799
   101  H    0.030958
   102  H    0.009788
   103  H    0.010598
   104  H   -0.035472
   105  H    0.012185
   106  H   -0.005154
   107  H   -0.008563
   108  H   -0.029865
   109  H   -0.041569
   110  H   -0.037642
   111  H   -0.021889
   112  H   -0.039385
   113  H   -0.024161
   114  H   -0.036673
   115  H   -0.014928
   116  H   -0.013835
   117  H   -0.008511
   118  H   -0.030611
   119  H   -0.038424
   120  H   -0.032105
   121  H   -0.002852
   122  H   -0.034870
   123  H   -0.043170
   124  H   -0.033270
   125  H   -0.025789
   126  H   -0.024925
   127  H   -0.006655
   128  H   -0.041265
   129  H   -0.029284
   130  H   -0.025837
   131  H   -0.028324
   132  H   -0.011341
   133  H   -0.029407
   134  H   -0.041379
   135  H   -0.009614
   136  H   -0.019732
   137  H   -0.016167
   138  H   -0.035369
   139  H   -0.025442
   140  H   -0.031622
 Sum of Mulliken charges =  -0.00000

 Dipole moment (field-independent basis, Debye):
    X=              3.6616    Y=              1.3843    Z=             -1.4215  Tot=              4.1647
 Quadrupole moment (field-independent basis, Debye-Ang):
   XX=           -373.1283   YY=           -439.9851   ZZ=           -405.3615
   XY=            -24.8795   XZ=              5.0862   YZ=              7.9521

 Normal termination of Gaussian 16 at Wed May  4 09:15:32 2022.
