 Gaussian 16, Revision A.03,
 Gaussian 16:  ES64L-G16RevA.03 25-Dec-2016

 -----------------------------------
 #p cam-b3lyp/Def2SVP td=(nstates=5)
 -----------------------------------

 -------------------------------------------------------
 step_151_chromophore_15 TDDFT with cam-b3lyp functional
 -------------------------------------------------------
 Symbolic Z-matrix:
 Charge =  0 Multiplicity = 1

                         Standard orientation:
 ---------------------------------------------------------------------
 Center     Atomic      Atomic             Coordinates (Angstroms)
 Number     Number       Type             X           Y           Z
 ---------------------------------------------------------------------
      1         12           0       -4.764447    1.051228    0.032988
      2          6           0       -4.349663   -2.372173    0.779279
      3          6           0       -1.359419    1.422536   -0.037019
      4          6           0       -5.286207    4.419600   -0.060845
      5          6           0       -8.258927    0.510492    0.623564
      6          7           0       -3.067896   -0.277033    0.316056
      7          6           0       -3.198255   -1.683911    0.381444
      8          6           0       -1.747121   -2.345960    0.025703
      9          6           0       -0.860658   -1.094125    0.416103
     10          6           0       -1.800953    0.112527    0.161512
     11          6           0       -0.378960   -1.130447    1.909977
     12          6           0       -1.711944   -2.562282   -1.562150
     13          6           0       -0.725376   -3.697685   -1.941905
     14          6           0        0.398209   -3.992691   -0.905508
     15          8           0        0.394526   -4.884137   -0.066266
     16          8           0        1.511615   -3.203108   -1.028280
     17          7           0       -3.478554    2.693990   -0.112859
     18          6           0       -2.105054    2.630429   -0.266079
     19          6           0       -1.594602    3.895265   -0.595679
     20          6           0       -2.719667    4.752138   -0.410690
     21          6           0       -3.887960    3.971616   -0.210554
     22          6           0       -0.096791    4.214173   -0.772170
     23          6           0       -2.770307    6.255207   -0.551361
     24          8           0       -3.797522    6.871959   -0.573619
     25          6           0       -1.424238    6.925966   -0.443625
     26          7           0       -6.471955    2.335557    0.206626
     27          6           0       -6.458917    3.707028    0.123598
     28          6           0       -7.922135    4.268787    0.022558
     29          6           0       -8.829733    2.919741    0.132942
     30          6           0       -7.790439    1.848990    0.335809
     31          6           0       -8.270464    5.319907    1.075948
     32          6           0       -9.798159    2.677672   -1.123650
     33          6           0      -11.325863    2.432783   -0.913983
     34          7           0       -6.027877   -0.553200    0.654554
     35          6           0       -7.395531   -0.625453    0.737529
     36          6           0       -7.840349   -2.022956    0.912310
     37          6           0       -6.664148   -2.700417    1.119351
     38          6           0       -5.609544   -1.792989    0.862908
     39          6           0       -9.218899   -2.542897    0.898216
     40          6           0       -6.163148   -4.019964    1.303069
     41          8           0       -6.697800   -5.069667    1.508740
     42          6           0       -4.592007   -3.832637    1.104800
     43          6           0       -4.206681   -4.737725    0.069034
     44          8           0       -4.254893   -4.540845   -1.131109
     45          8           0       -3.762506   -5.886606    0.537569
     46          6           0       -2.779390   -6.688450   -0.267110
     47          6           0        2.652725   -3.565866   -0.170184
     48          6           0        3.872053   -3.084898   -1.010545
     49          6           0        5.120249   -3.549543   -1.250386
     50          6           0        5.647487   -4.758269   -0.476576
     51          6           0        5.957442   -2.902044   -2.262577
     52          6           0        7.000259   -1.973180   -1.671097
     53          6           0        7.087277   -0.658556   -2.403731
     54          6           0        7.730676    0.479646   -1.550839
     55          6           0        6.936860    1.807478   -1.553196
     56          6           0        9.191333    0.780086   -2.091297
     57          6           0       10.243674    0.509648   -1.024821
     58          6           0       11.662537    0.837250   -1.637587
     59          6           0       12.239891    2.037597   -0.863493
     60          6           0       13.125686    2.954683   -1.721105
     61          6           0       12.981143    1.670734    0.458173
     62          6           0       12.360202    2.408931    1.760313
     63          6           0       11.239171    1.493107    2.339308
     64          6           0       11.523649    1.170899    3.837000
     65          6           0       12.667828    0.246410    4.080863
     66          6           0       10.192680    0.677873    4.378354
     67          1           0       -0.274168    1.510296   -0.113828
     68          1           0       -5.449191    5.482938   -0.246419
     69          1           0       -9.341205    0.364621    0.603141
     70          1           0       -1.528172   -3.220102    0.638005
     71          1           0        0.031686   -0.907157   -0.181115
     72          1           0        0.687243   -0.900991    1.913420
     73          1           0       -0.508570   -2.146522    2.282173
     74          1           0       -0.887539   -0.346945    2.471242
     75          1           0       -1.348602   -1.728274   -2.163848
     76          1           0       -2.740338   -2.748590   -1.871079
     77          1           0       -0.244528   -3.297155   -2.834805
     78          1           0       -1.432765   -4.502004   -2.145475
     79          1           0        0.541189    3.331130   -0.730516
     80          1           0        0.394361    4.881496   -0.064175
     81          1           0        0.060024    4.667249   -1.750996
     82          1           0       -1.621656    7.995370   -0.370281
     83          1           0       -0.872964    6.693014   -1.354188
     84          1           0       -0.843017    6.637177    0.432421
     85          1           0       -8.033166    4.618404   -1.003370
     86          1           0       -9.414529    2.866544    1.051478
     87          1           0       -8.566415    6.263205    0.615821
     88          1           0       -7.315445    5.518454    1.563405
     89          1           0       -9.032990    4.921846    1.744080
     90          1           0       -9.460534    1.848307   -1.746180
     91          1           0       -9.744880    3.572473   -1.745222
     92          1           0      -11.978037    3.034072   -1.547075
     93          1           0      -11.693891    2.695514    0.078221
     94          1           0      -11.521241    1.374611   -1.086617
     95          1           0       -9.894865   -1.967587    0.265300
     96          1           0       -9.669472   -2.659403    1.883048
     97          1           0       -9.254868   -3.521434    0.419861
     98          1           0       -4.045149   -3.981770    2.035993
     99          1           0       -3.189421   -7.688463   -0.125217
    100          1           0       -1.783004   -6.650354    0.173173
    101          1           0       -2.606057   -6.425765   -1.310490
    102          1           0        2.837429   -4.631745   -0.037409
    103          1           0        2.639949   -3.035542    0.781307
    104          1           0        3.510208   -2.191171   -1.519371
    105          1           0        5.502848   -5.634816   -1.107596
    106          1           0        5.096151   -4.804751    0.462069
    107          1           0        6.697588   -4.683471   -0.193578
    108          1           0        5.349363   -2.359616   -2.987576
    109          1           0        6.418383   -3.739819   -2.785827
    110          1           0        7.957564   -2.472086   -1.824050
    111          1           0        6.833898   -1.990981   -0.594190
    112          1           0        6.083119   -0.317051   -2.655894
    113          1           0        7.653288   -0.846358   -3.316597
    114          1           0        7.772329    0.159790   -0.510016
    115          1           0        7.516556    2.529203   -0.977134
    116          1           0        5.966634    1.651338   -1.081851
    117          1           0        6.873928    2.106676   -2.599354
    118          1           0        9.349640    1.808164   -2.414499
    119          1           0        9.325940    0.056546   -2.895281
    120          1           0       10.143345   -0.543414   -0.762645
    121          1           0        9.878247    1.121414   -0.200109
    122          1           0       11.558744    0.943115   -2.717236
    123          1           0       12.272838   -0.053564   -1.495561
    124          1           0       11.290342    2.533110   -0.662735
    125          1           0       12.438566    3.516569   -2.354650
    126          1           0       13.666085    2.357920   -2.456811
    127          1           0       13.865456    3.553217   -1.191029
    128          1           0       14.004300    2.045551    0.480569
    129          1           0       13.029670    0.616261    0.730783
    130          1           0       11.896425    3.356417    1.482861
    131          1           0       13.121871    2.582913    2.520610
    132          1           0       11.096541    0.557178    1.800117
    133          1           0       10.304382    2.046926    2.248327
    134          1           0       11.634856    2.001096    4.533412
    135          1           0       13.588072    0.802767    4.262509
    136          1           0       12.768634   -0.320512    3.155396
    137          1           0       12.380810   -0.359916    4.939427
    138          1           0       10.101891   -0.406139    4.440050
    139          1           0        9.267180    0.985529    3.892182
    140          1           0       10.101946    1.019843    5.409284
 ---------------------------------------------------------------------

 SCF Done:  E(RCAM-B3LYP) =  -3007.16887487     A.U. after   17 cycles

 Excitation energies and oscillator strengths:

 Excited State   1:      Singlet-A      1.6543 eV  749.48 nm  f=0.3844  <S**2>=0.000
     245 -> 248       -0.16985
     246 -> 247        0.68932
     245 <- 248       -0.10841
 This state for optimization and/or second-order correction.
 Total Energy, E(TD-HF/TD-DFT) =  -3007.10808180
 Copying the excited state density for this state as the 1-particle RhoCI density.

 Excited State   2:      Singlet-A      2.1888 eV  566.46 nm  f=0.1481  <S**2>=0.000
     245 -> 247        0.65191
     246 -> 248        0.26434

 Excited State   3:      Singlet-A      3.2708 eV  379.06 nm  f=0.0013  <S**2>=0.000
     244 -> 247        0.68447

 Excited State   4:      Singlet-A      3.5483 eV  349.42 nm  f=0.2063  <S**2>=0.000
     239 -> 247        0.25683
     239 -> 249       -0.17943
     240 -> 247       -0.15133
     241 -> 247       -0.40154
     245 -> 247       -0.13705
     246 -> 248        0.41401

 Excited State   5:      Singlet-A      3.6133 eV  343.14 nm  f=0.1458  <S**2>=0.000
     239 -> 247        0.34190
     239 -> 249       -0.18832
     242 -> 247        0.42206
     242 -> 249        0.13286
     242 -> 251        0.16765
     245 -> 247        0.11665
     246 -> 248       -0.27391

 The electronic state is 1-A.
 Alpha  occ. eigenvalues --  -46.88571 -19.25975 -19.23835 -19.20400 -19.20102
 Alpha  occ. eigenvalues --  -19.18414 -19.18330 -14.42077 -14.41955 -14.39732
 Alpha  occ. eigenvalues --  -14.38596 -10.40427 -10.38096 -10.35534 -10.33863
 Alpha  occ. eigenvalues --  -10.32825 -10.32041 -10.31605 -10.31407 -10.30588
 Alpha  occ. eigenvalues --  -10.30331 -10.30268 -10.29284 -10.29101 -10.28930
 Alpha  occ. eigenvalues --  -10.28853 -10.28579 -10.28037 -10.27988 -10.27967
 Alpha  occ. eigenvalues --  -10.27781 -10.27668 -10.27638 -10.27606 -10.27363
 Alpha  occ. eigenvalues --  -10.27145 -10.27110 -10.27030 -10.26931 -10.26923
 Alpha  occ. eigenvalues --  -10.26448 -10.26410 -10.25945 -10.25839 -10.25812
 Alpha  occ. eigenvalues --  -10.25738 -10.25728 -10.25619 -10.25380 -10.25312
 Alpha  occ. eigenvalues --  -10.25253 -10.25252 -10.25238 -10.25194 -10.25098
 Alpha  occ. eigenvalues --  -10.25088 -10.25045 -10.24971 -10.24950 -10.24910
 Alpha  occ. eigenvalues --  -10.24782 -10.24656 -10.24533 -10.24461 -10.24383
 Alpha  occ. eigenvalues --  -10.23738  -3.17022  -1.91930  -1.91436  -1.91357
 Alpha  occ. eigenvalues --   -1.17264  -1.16830  -1.12106  -1.10881  -1.07903
 Alpha  occ. eigenvalues --   -1.06623  -1.05076  -1.03124  -1.02310  -1.01376
 Alpha  occ. eigenvalues --   -0.93400  -0.91393  -0.90006  -0.89178  -0.88816
 Alpha  occ. eigenvalues --   -0.88483  -0.87896  -0.87794  -0.86995  -0.86363
 Alpha  occ. eigenvalues --   -0.85949  -0.85270  -0.84482  -0.83671  -0.82991
 Alpha  occ. eigenvalues --   -0.82511  -0.81791  -0.81164  -0.80658  -0.80361
 Alpha  occ. eigenvalues --   -0.80263  -0.78322  -0.77450  -0.77359  -0.76604
 Alpha  occ. eigenvalues --   -0.76311  -0.76081  -0.74983  -0.74570  -0.73738
 Alpha  occ. eigenvalues --   -0.73323  -0.72868  -0.70982  -0.69887  -0.69224
 Alpha  occ. eigenvalues --   -0.68792  -0.67600  -0.66734  -0.66511  -0.65560
 Alpha  occ. eigenvalues --   -0.65404  -0.65026  -0.64282  -0.64086  -0.64045
 Alpha  occ. eigenvalues --   -0.63961  -0.63464  -0.62839  -0.61730  -0.60205
 Alpha  occ. eigenvalues --   -0.59836  -0.59646  -0.59289  -0.58957  -0.58435
 Alpha  occ. eigenvalues --   -0.57255  -0.56522  -0.56185  -0.55838  -0.55804
 Alpha  occ. eigenvalues --   -0.55414  -0.54992  -0.54664  -0.54110  -0.53912
 Alpha  occ. eigenvalues --   -0.53599  -0.53378  -0.53053  -0.52837  -0.52652
 Alpha  occ. eigenvalues --   -0.52327  -0.52239  -0.52041  -0.51981  -0.51866
 Alpha  occ. eigenvalues --   -0.51740  -0.51635  -0.51467  -0.50902  -0.50608
 Alpha  occ. eigenvalues --   -0.50402  -0.50267  -0.50042  -0.49877  -0.49790
 Alpha  occ. eigenvalues --   -0.49651  -0.49235  -0.49128  -0.48870  -0.48808
 Alpha  occ. eigenvalues --   -0.48639  -0.48259  -0.48179  -0.47828  -0.47771
 Alpha  occ. eigenvalues --   -0.47517  -0.47445  -0.47076  -0.46971  -0.46776
 Alpha  occ. eigenvalues --   -0.46569  -0.46413  -0.46119  -0.45963  -0.45680
 Alpha  occ. eigenvalues --   -0.45342  -0.45256  -0.45181  -0.45112  -0.44811
 Alpha  occ. eigenvalues --   -0.44775  -0.44682  -0.44640  -0.44380  -0.44024
 Alpha  occ. eigenvalues --   -0.43899  -0.43767  -0.43645  -0.43538  -0.43390
 Alpha  occ. eigenvalues --   -0.43103  -0.42760  -0.42532  -0.42141  -0.42086
 Alpha  occ. eigenvalues --   -0.41769  -0.41729  -0.41357  -0.41175  -0.41083
 Alpha  occ. eigenvalues --   -0.40776  -0.40744  -0.40332  -0.40263  -0.40182
 Alpha  occ. eigenvalues --   -0.39797  -0.39296  -0.39192  -0.38571  -0.38459
 Alpha  occ. eigenvalues --   -0.38359  -0.38139  -0.38015  -0.37840  -0.37569
 Alpha  occ. eigenvalues --   -0.37422  -0.37040  -0.36755  -0.36560  -0.36409
 Alpha  occ. eigenvalues --   -0.36131  -0.35367  -0.34458  -0.34390  -0.33938
 Alpha  occ. eigenvalues --   -0.33616  -0.33437  -0.32736  -0.31599  -0.31549
 Alpha  occ. eigenvalues --   -0.30695  -0.30251  -0.30006  -0.29270  -0.23982
 Alpha  occ. eigenvalues --   -0.21113
 Alpha virt. eigenvalues --   -0.08992  -0.01269   0.00394   0.02540   0.03087
 Alpha virt. eigenvalues --    0.03868   0.05455   0.05791   0.06180   0.07138
 Alpha virt. eigenvalues --    0.08014   0.08263   0.08468   0.08777   0.09092

 Mulliken charges:
               1
     1  Mg   0.821353
     2  C    0.019580
     3  C   -0.054914
     4  C   -0.042164
     5  C   -0.083032
     6  N   -0.287775
     7  C   -0.031948
     8  C   -0.101872
     9  C   -0.067392
    10  C    0.018418
    11  C    0.086401
    12  C    0.034900
    13  C    0.101803
    14  C    0.159630
    15  O   -0.244503
    16  O   -0.337198
    17  N   -0.362156
    18  C    0.129310
    19  C   -0.115663
    20  C   -0.066821
    21  C    0.095456
    22  C    0.098738
    23  C   -0.000090
    24  O   -0.179707
    25  C    0.040543
    26  N   -0.325019
    27  C    0.029768
    28  C   -0.034445
    29  C   -0.040480
    30  C    0.052093
    31  C    0.092837
    32  C    0.023322
    33  C   -0.017954
    34  N   -0.294352
    35  C    0.115557
    36  C   -0.163825
    37  C    0.033283
    38  C    0.081921
    39  C    0.114827
    40  C    0.036417
    41  O   -0.121173
    42  C   -0.017360
    43  C    0.170252
    44  O   -0.236107
    45  O   -0.308999
    46  C    0.164211
    47  C    0.293631
    48  C   -0.178098
    49  C   -0.189299
    50  C    0.070794
    51  C    0.123134
    52  C    0.017032
    53  C    0.058577
    54  C   -0.132942
    55  C    0.048428
    56  C    0.031780
    57  C   -0.052169
    58  C    0.073203
    59  C   -0.098193
    60  C    0.060489
    61  C    0.046800
    62  C    0.008825
    63  C    0.001984
    64  C   -0.146930
    65  C    0.082200
    66  C    0.026024
    67  H   -0.041654
    68  H    0.001426
    69  H   -0.019611
    70  H    0.031174
    71  H   -0.003057
    72  H    0.009034
    73  H    0.020455
    74  H    0.030716
    75  H    0.014000
    76  H    0.048243
    77  H    0.022668
    78  H    0.036636
    79  H    0.003813
    80  H    0.024258
    81  H    0.021626
    82  H    0.018167
    83  H    0.025719
    84  H    0.042140
    85  H    0.022220
    86  H    0.014864
    87  H    0.018436
    88  H    0.022396
    89  H    0.018604
    90  H    0.017987
    91  H    0.009591
    92  H    0.017822
    93  H    0.009406
    94  H    0.020142
    95  H    0.008541
    96  H    0.041280
    97  H    0.030991
    98  H    0.044995
    99  H    0.043491
   100  H    0.048347
   101  H    0.052918
   102  H    0.038279
   103  H    0.035883
   104  H   -0.003515
   105  H    0.036535
   106  H    0.017516
   107  H    0.016149
   108  H    0.001901
   109  H   -0.010605
   110  H   -0.009966
   111  H    0.006538
   112  H   -0.010650
   113  H    0.004440
   114  H   -0.005351
   115  H    0.007690
   116  H    0.009955
   117  H    0.013677
   118  H   -0.003921
   119  H   -0.010846
   120  H   -0.005302
   121  H    0.017380
   122  H   -0.003976
   123  H   -0.012663
   124  H   -0.003991
   125  H   -0.001439
   126  H   -0.000793
   127  H    0.017196
   128  H   -0.010443
   129  H   -0.003436
   130  H    0.002137
   131  H   -0.000068
   132  H    0.013194
   133  H   -0.001336
   134  H   -0.009055
   135  H    0.013960
   136  H    0.002227
   137  H    0.009383
   138  H   -0.009960
   139  H    0.000620
   140  H   -0.006067
 Sum of Mulliken charges =  -0.00000

 Dipole moment (field-independent basis, Debye):
    X=              3.4978    Y=              1.0027    Z=             -1.4771  Tot=              3.9271
 Quadrupole moment (field-independent basis, Debye-Ang):
   XX=           -369.4603   YY=           -438.2861   ZZ=           -405.2445
   XY=            -22.9157   XZ=              4.9194   YZ=              7.8324

 Normal termination of Gaussian 16 at Wed May  4 08:16:32 2022.
