 Gaussian 16, Revision A.03,
 Gaussian 16:  ES64L-G16RevA.03 25-Dec-2016

 ---------------------------------
 #p PBE1PBE/Def2SVP td=(nstates=5)
 ---------------------------------

 -----------------------------------------------------
 step_151_chromophore_15 TDDFT with PBE1PBE functional
 -----------------------------------------------------
 Symbolic Z-matrix:
 Charge =  0 Multiplicity = 1

                         Standard orientation:
 ---------------------------------------------------------------------
 Center     Atomic      Atomic             Coordinates (Angstroms)
 Number     Number       Type             X           Y           Z
 ---------------------------------------------------------------------
      1         12           0       -4.764447    1.051228    0.032988
      2          6           0       -4.349663   -2.372173    0.779279
      3          6           0       -1.359419    1.422536   -0.037019
      4          6           0       -5.286207    4.419600   -0.060845
      5          6           0       -8.258927    0.510492    0.623564
      6          7           0       -3.067896   -0.277033    0.316056
      7          6           0       -3.198255   -1.683911    0.381444
      8          6           0       -1.747121   -2.345960    0.025703
      9          6           0       -0.860658   -1.094125    0.416103
     10          6           0       -1.800953    0.112527    0.161512
     11          6           0       -0.378960   -1.130447    1.909977
     12          6           0       -1.711944   -2.562282   -1.562150
     13          6           0       -0.725376   -3.697685   -1.941905
     14          6           0        0.398209   -3.992691   -0.905508
     15          8           0        0.394526   -4.884137   -0.066266
     16          8           0        1.511615   -3.203108   -1.028280
     17          7           0       -3.478554    2.693990   -0.112859
     18          6           0       -2.105054    2.630429   -0.266079
     19          6           0       -1.594602    3.895265   -0.595679
     20          6           0       -2.719667    4.752138   -0.410690
     21          6           0       -3.887960    3.971616   -0.210554
     22          6           0       -0.096791    4.214173   -0.772170
     23          6           0       -2.770307    6.255207   -0.551361
     24          8           0       -3.797522    6.871959   -0.573619
     25          6           0       -1.424238    6.925966   -0.443625
     26          7           0       -6.471955    2.335557    0.206626
     27          6           0       -6.458917    3.707028    0.123598
     28          6           0       -7.922135    4.268787    0.022558
     29          6           0       -8.829733    2.919741    0.132942
     30          6           0       -7.790439    1.848990    0.335809
     31          6           0       -8.270464    5.319907    1.075948
     32          6           0       -9.798159    2.677672   -1.123650
     33          6           0      -11.325863    2.432783   -0.913983
     34          7           0       -6.027877   -0.553200    0.654554
     35          6           0       -7.395531   -0.625453    0.737529
     36          6           0       -7.840349   -2.022956    0.912310
     37          6           0       -6.664148   -2.700417    1.119351
     38          6           0       -5.609544   -1.792989    0.862908
     39          6           0       -9.218899   -2.542897    0.898216
     40          6           0       -6.163148   -4.019964    1.303069
     41          8           0       -6.697800   -5.069667    1.508740
     42          6           0       -4.592007   -3.832637    1.104800
     43          6           0       -4.206681   -4.737725    0.069034
     44          8           0       -4.254893   -4.540845   -1.131109
     45          8           0       -3.762506   -5.886606    0.537569
     46          6           0       -2.779390   -6.688450   -0.267110
     47          6           0        2.652725   -3.565866   -0.170184
     48          6           0        3.872053   -3.084898   -1.010545
     49          6           0        5.120249   -3.549543   -1.250386
     50          6           0        5.647487   -4.758269   -0.476576
     51          6           0        5.957442   -2.902044   -2.262577
     52          6           0        7.000259   -1.973180   -1.671097
     53          6           0        7.087277   -0.658556   -2.403731
     54          6           0        7.730676    0.479646   -1.550839
     55          6           0        6.936860    1.807478   -1.553196
     56          6           0        9.191333    0.780086   -2.091297
     57          6           0       10.243674    0.509648   -1.024821
     58          6           0       11.662537    0.837250   -1.637587
     59          6           0       12.239891    2.037597   -0.863493
     60          6           0       13.125686    2.954683   -1.721105
     61          6           0       12.981143    1.670734    0.458173
     62          6           0       12.360202    2.408931    1.760313
     63          6           0       11.239171    1.493107    2.339308
     64          6           0       11.523649    1.170899    3.837000
     65          6           0       12.667828    0.246410    4.080863
     66          6           0       10.192680    0.677873    4.378354
     67          1           0       -0.274168    1.510296   -0.113828
     68          1           0       -5.449191    5.482938   -0.246419
     69          1           0       -9.341205    0.364621    0.603141
     70          1           0       -1.528172   -3.220102    0.638005
     71          1           0        0.031686   -0.907157   -0.181115
     72          1           0        0.687243   -0.900991    1.913420
     73          1           0       -0.508570   -2.146522    2.282173
     74          1           0       -0.887539   -0.346945    2.471242
     75          1           0       -1.348602   -1.728274   -2.163848
     76          1           0       -2.740338   -2.748590   -1.871079
     77          1           0       -0.244528   -3.297155   -2.834805
     78          1           0       -1.432765   -4.502004   -2.145475
     79          1           0        0.541189    3.331130   -0.730516
     80          1           0        0.394361    4.881496   -0.064175
     81          1           0        0.060024    4.667249   -1.750996
     82          1           0       -1.621656    7.995370   -0.370281
     83          1           0       -0.872964    6.693014   -1.354188
     84          1           0       -0.843017    6.637177    0.432421
     85          1           0       -8.033166    4.618404   -1.003370
     86          1           0       -9.414529    2.866544    1.051478
     87          1           0       -8.566415    6.263205    0.615821
     88          1           0       -7.315445    5.518454    1.563405
     89          1           0       -9.032990    4.921846    1.744080
     90          1           0       -9.460534    1.848307   -1.746180
     91          1           0       -9.744880    3.572473   -1.745222
     92          1           0      -11.978037    3.034072   -1.547075
     93          1           0      -11.693891    2.695514    0.078221
     94          1           0      -11.521241    1.374611   -1.086617
     95          1           0       -9.894865   -1.967587    0.265300
     96          1           0       -9.669472   -2.659403    1.883048
     97          1           0       -9.254868   -3.521434    0.419861
     98          1           0       -4.045149   -3.981770    2.035993
     99          1           0       -3.189421   -7.688463   -0.125217
    100          1           0       -1.783004   -6.650354    0.173173
    101          1           0       -2.606057   -6.425765   -1.310490
    102          1           0        2.837429   -4.631745   -0.037409
    103          1           0        2.639949   -3.035542    0.781307
    104          1           0        3.510208   -2.191171   -1.519371
    105          1           0        5.502848   -5.634816   -1.107596
    106          1           0        5.096151   -4.804751    0.462069
    107          1           0        6.697588   -4.683471   -0.193578
    108          1           0        5.349363   -2.359616   -2.987576
    109          1           0        6.418383   -3.739819   -2.785827
    110          1           0        7.957564   -2.472086   -1.824050
    111          1           0        6.833898   -1.990981   -0.594190
    112          1           0        6.083119   -0.317051   -2.655894
    113          1           0        7.653288   -0.846358   -3.316597
    114          1           0        7.772329    0.159790   -0.510016
    115          1           0        7.516556    2.529203   -0.977134
    116          1           0        5.966634    1.651338   -1.081851
    117          1           0        6.873928    2.106676   -2.599354
    118          1           0        9.349640    1.808164   -2.414499
    119          1           0        9.325940    0.056546   -2.895281
    120          1           0       10.143345   -0.543414   -0.762645
    121          1           0        9.878247    1.121414   -0.200109
    122          1           0       11.558744    0.943115   -2.717236
    123          1           0       12.272838   -0.053564   -1.495561
    124          1           0       11.290342    2.533110   -0.662735
    125          1           0       12.438566    3.516569   -2.354650
    126          1           0       13.666085    2.357920   -2.456811
    127          1           0       13.865456    3.553217   -1.191029
    128          1           0       14.004300    2.045551    0.480569
    129          1           0       13.029670    0.616261    0.730783
    130          1           0       11.896425    3.356417    1.482861
    131          1           0       13.121871    2.582913    2.520610
    132          1           0       11.096541    0.557178    1.800117
    133          1           0       10.304382    2.046926    2.248327
    134          1           0       11.634856    2.001096    4.533412
    135          1           0       13.588072    0.802767    4.262509
    136          1           0       12.768634   -0.320512    3.155396
    137          1           0       12.380810   -0.359916    4.939427
    138          1           0       10.101891   -0.406139    4.440050
    139          1           0        9.267180    0.985529    3.892182
    140          1           0       10.101946    1.019843    5.409284
 ---------------------------------------------------------------------

 SCF Done:  E(RPBE1PBE) =  -3005.35587783     A.U. after   15 cycles

 Excitation energies and oscillator strengths:

 Excited State   1:      Singlet-A      1.8108 eV  684.68 nm  f=0.3683  <S**2>=0.000
     245 -> 248       -0.16624
     246 -> 247        0.69704
     246 <- 247       -0.11773
 This state for optimization and/or second-order correction.
 Total Energy, E(TD-HF/TD-DFT) =  -3005.28933051
 Copying the excited state density for this state as the 1-particle RhoCI density.

 Excited State   2:      Singlet-A      2.2010 eV  563.32 nm  f=0.1406  <S**2>=0.000
     245 -> 247        0.66058
     246 -> 248        0.24364

 Excited State   3:      Singlet-A      2.9399 eV  421.72 nm  f=0.0045  <S**2>=0.000
     244 -> 247        0.69167

 Excited State   4:      Singlet-A      2.9540 eV  419.72 nm  f=0.0001  <S**2>=0.000
     243 -> 247        0.68611

 Excited State   5:      Singlet-A      3.1212 eV  397.23 nm  f=0.0002  <S**2>=0.000
     240 -> 247        0.36003
     240 -> 249       -0.11667
     241 -> 247        0.56999
     241 -> 249       -0.12513

 The electronic state is 1-A.
 Alpha  occ. eigenvalues --  -46.91989 -19.26627 -19.24360 -19.20636 -19.20120
 Alpha  occ. eigenvalues --  -19.18783 -19.18443 -14.41598 -14.41520 -14.39256
 Alpha  occ. eigenvalues --  -14.38400 -10.37471 -10.34929 -10.32476 -10.31136
 Alpha  occ. eigenvalues --  -10.30236 -10.29728 -10.29231 -10.28575 -10.28208
 Alpha  occ. eigenvalues --  -10.28133 -10.28083 -10.27200 -10.26940 -10.26894
 Alpha  occ. eigenvalues --  -10.26326 -10.25979 -10.25843 -10.25839 -10.25524
 Alpha  occ. eigenvalues --  -10.25501 -10.25490 -10.25312 -10.25208 -10.25150
 Alpha  occ. eigenvalues --  -10.24821 -10.24739 -10.24670 -10.24640 -10.24530
 Alpha  occ. eigenvalues --  -10.23835 -10.23756 -10.23665 -10.23513 -10.23484
 Alpha  occ. eigenvalues --  -10.23278 -10.23262 -10.23232 -10.23216 -10.22888
 Alpha  occ. eigenvalues --  -10.22853 -10.22794 -10.22748 -10.22725 -10.22684
 Alpha  occ. eigenvalues --  -10.22631 -10.22611 -10.22505 -10.22474 -10.22397
 Alpha  occ. eigenvalues --  -10.22362 -10.22261 -10.22111 -10.21823 -10.21770
 Alpha  occ. eigenvalues --  -10.21145  -3.14022  -1.86871  -1.86354  -1.86279
 Alpha  occ. eigenvalues --   -1.12043  -1.11493  -1.06694  -1.05785  -1.02733
 Alpha  occ. eigenvalues --   -1.01314  -0.99611  -0.97939  -0.96957  -0.95997
 Alpha  occ. eigenvalues --   -0.87639  -0.85547  -0.84097  -0.83299  -0.82980
 Alpha  occ. eigenvalues --   -0.82729  -0.82131  -0.81928  -0.81362  -0.80699
 Alpha  occ. eigenvalues --   -0.80337  -0.79503  -0.78700  -0.77892  -0.77267
 Alpha  occ. eigenvalues --   -0.76703  -0.76038  -0.75376  -0.74984  -0.74584
 Alpha  occ. eigenvalues --   -0.74517  -0.72648  -0.71764  -0.71667  -0.70787
 Alpha  occ. eigenvalues --   -0.70555  -0.70179  -0.69367  -0.68734  -0.67913
 Alpha  occ. eigenvalues --   -0.67698  -0.67177  -0.65432  -0.64185  -0.63613
 Alpha  occ. eigenvalues --   -0.63159  -0.61890  -0.61163  -0.60742  -0.60042
 Alpha  occ. eigenvalues --   -0.59605  -0.59486  -0.58855  -0.58652  -0.58420
 Alpha  occ. eigenvalues --   -0.58192  -0.57633  -0.57010  -0.56248  -0.54684
 Alpha  occ. eigenvalues --   -0.54457  -0.54152  -0.53793  -0.53246  -0.52927
 Alpha  occ. eigenvalues --   -0.51848  -0.51016  -0.50731  -0.50289  -0.50193
 Alpha  occ. eigenvalues --   -0.49937  -0.49567  -0.49159  -0.48545  -0.48419
 Alpha  occ. eigenvalues --   -0.48109  -0.47853  -0.47535  -0.47427  -0.47257
 Alpha  occ. eigenvalues --   -0.46836  -0.46713  -0.46572  -0.46430  -0.46404
 Alpha  occ. eigenvalues --   -0.46266  -0.46117  -0.45885  -0.45558  -0.45146
 Alpha  occ. eigenvalues --   -0.45009  -0.44903  -0.44626  -0.44449  -0.44389
 Alpha  occ. eigenvalues --   -0.44290  -0.43806  -0.43733  -0.43499  -0.43381
 Alpha  occ. eigenvalues --   -0.43260  -0.42884  -0.42812  -0.42464  -0.42376
 Alpha  occ. eigenvalues --   -0.42217  -0.42141  -0.41761  -0.41641  -0.41491
 Alpha  occ. eigenvalues --   -0.41201  -0.40992  -0.40857  -0.40761  -0.40328
 Alpha  occ. eigenvalues --   -0.39963  -0.39931  -0.39871  -0.39821  -0.39526
 Alpha  occ. eigenvalues --   -0.39436  -0.39327  -0.39311  -0.39159  -0.38804
 Alpha  occ. eigenvalues --   -0.38706  -0.38538  -0.38452  -0.38354  -0.38184
 Alpha  occ. eigenvalues --   -0.37921  -0.37493  -0.37294  -0.37043  -0.37000
 Alpha  occ. eigenvalues --   -0.36613  -0.36475  -0.36219  -0.36017  -0.35840
 Alpha  occ. eigenvalues --   -0.35563  -0.35537  -0.35182  -0.35124  -0.34992
 Alpha  occ. eigenvalues --   -0.34725  -0.34172  -0.33992  -0.33413  -0.33357
 Alpha  occ. eigenvalues --   -0.33311  -0.33085  -0.32812  -0.32690  -0.32561
 Alpha  occ. eigenvalues --   -0.32342  -0.31929  -0.31532  -0.31506  -0.31345
 Alpha  occ. eigenvalues --   -0.31200  -0.30188  -0.29482  -0.29250  -0.29095
 Alpha  occ. eigenvalues --   -0.28496  -0.28399  -0.28092  -0.27132  -0.26504
 Alpha  occ. eigenvalues --   -0.26153  -0.25316  -0.25208  -0.25069  -0.20929
 Alpha  occ. eigenvalues --   -0.18747
 Alpha virt. eigenvalues --   -0.11399  -0.04831  -0.03804  -0.01437  -0.00768
 Alpha virt. eigenvalues --   -0.00161   0.00963   0.01316   0.01768   0.03835
 Alpha virt. eigenvalues --    0.04084   0.04651   0.04934   0.05452   0.05570

 Mulliken charges:
               1
     1  Mg   0.966511
     2  C    0.003333
     3  C   -0.050150
     4  C   -0.038600
     5  C   -0.063411
     6  N   -0.385545
     7  C    0.046815
     8  C   -0.182907
     9  C   -0.138720
    10  C    0.057082
    11  C    0.032480
    12  C   -0.000095
    13  C    0.024327
    14  C    0.221356
    15  O   -0.277779
    16  O   -0.368192
    17  N   -0.480976
    18  C    0.154170
    19  C   -0.136039
    20  C   -0.127278
    21  C    0.142633
    22  C    0.037146
    23  C    0.058849
    24  O   -0.218587
    25  C   -0.038862
    26  N   -0.425599
    27  C    0.065192
    28  C   -0.111628
    29  C   -0.111543
    30  C    0.085025
    31  C    0.033547
    32  C   -0.036058
    33  C   -0.087945
    34  N   -0.421577
    35  C    0.125826
    36  C   -0.178921
    37  C   -0.007941
    38  C    0.126649
    39  C    0.063308
    40  C    0.125292
    41  O   -0.171074
    42  C   -0.126938
    43  C    0.270469
    44  O   -0.274226
    45  O   -0.345396
    46  C    0.108603
    47  C    0.249905
    48  C   -0.177248
    49  C   -0.246786
    50  C    0.009959
    51  C    0.060299
    52  C   -0.043167
    53  C    0.000172
    54  C   -0.214609
    55  C   -0.016420
    56  C   -0.018929
    57  C   -0.123467
    58  C    0.024072
    59  C   -0.186303
    60  C   -0.000682
    61  C   -0.009568
    62  C   -0.052661
    63  C   -0.058677
    64  C   -0.237686
    65  C    0.021257
    66  C   -0.032320
    67  H   -0.008487
    68  H    0.033896
    69  H    0.012518
    70  H    0.066684
    71  H    0.032899
    72  H    0.036758
    73  H    0.048408
    74  H    0.058158
    75  H    0.044193
    76  H    0.080895
    77  H    0.055903
    78  H    0.072559
    79  H    0.032552
    80  H    0.051593
    81  H    0.050974
    82  H    0.047075
    83  H    0.054161
    84  H    0.069257
    85  H    0.058791
    86  H    0.051267
    87  H    0.046085
    88  H    0.050376
    89  H    0.046023
    90  H    0.050173
    91  H    0.041876
    92  H    0.045217
    93  H    0.036571
    94  H    0.046921
    95  H    0.033807
    96  H    0.067418
    97  H    0.057722
    98  H    0.080872
    99  H    0.065094
   100  H    0.070485
   101  H    0.072936
   102  H    0.065085
   103  H    0.062698
   104  H    0.026512
   105  H    0.064253
   106  H    0.044555
   107  H    0.043461
   108  H    0.032864
   109  H    0.024135
   110  H    0.024168
   111  H    0.038621
   112  H    0.022390
   113  H    0.036308
   114  H    0.031510
   115  H    0.036538
   116  H    0.038343
   117  H    0.041958
   118  H    0.028433
   119  H    0.023184
   120  H    0.028769
   121  H    0.052664
   122  H    0.026875
   123  H    0.020511
   124  H    0.035117
   125  H    0.026993
   126  H    0.027647
   127  H    0.043807
   128  H    0.022431
   129  H    0.029054
   130  H    0.034760
   131  H    0.032255
   132  H    0.046262
   133  H    0.030756
   134  H    0.028974
   135  H    0.040969
   136  H    0.030719
   137  H    0.037358
   138  H    0.018035
   139  H    0.027645
   140  H    0.021990
 Sum of Mulliken charges =  -0.00000

 Dipole moment (field-independent basis, Debye):
    X=              3.6845    Y=              1.4094    Z=             -1.5737  Tot=              4.2472
 Quadrupole moment (field-independent basis, Debye-Ang):
   XX=           -365.8482   YY=           -435.0114   ZZ=           -402.8731
   XY=            -25.4180   XZ=              5.5501   YZ=              7.8079

 Normal termination of Gaussian 16 at Wed May  4 08:32:52 2022.
