 Gaussian 16, Revision A.03,
 Gaussian 16:  ES64L-G16RevA.03 25-Dec-2016

 --------------------------------
 #p wB97XD/Def2SVP td=(nstates=5)
 --------------------------------

 ----------------------------------------------------
 step_151_chromophore_15 TDDFT with wB97XD functional
 ----------------------------------------------------
 Symbolic Z-matrix:
 Charge =  0 Multiplicity = 1

                         Standard orientation:
 ---------------------------------------------------------------------
 Center     Atomic      Atomic             Coordinates (Angstroms)
 Number     Number       Type             X           Y           Z
 ---------------------------------------------------------------------
      1         12           0       -4.764447    1.051228    0.032988
      2          6           0       -4.349663   -2.372173    0.779279
      3          6           0       -1.359419    1.422536   -0.037019
      4          6           0       -5.286207    4.419600   -0.060845
      5          6           0       -8.258927    0.510492    0.623564
      6          7           0       -3.067896   -0.277033    0.316056
      7          6           0       -3.198255   -1.683911    0.381444
      8          6           0       -1.747121   -2.345960    0.025703
      9          6           0       -0.860658   -1.094125    0.416103
     10          6           0       -1.800953    0.112527    0.161512
     11          6           0       -0.378960   -1.130447    1.909977
     12          6           0       -1.711944   -2.562282   -1.562150
     13          6           0       -0.725376   -3.697685   -1.941905
     14          6           0        0.398209   -3.992691   -0.905508
     15          8           0        0.394526   -4.884137   -0.066266
     16          8           0        1.511615   -3.203108   -1.028280
     17          7           0       -3.478554    2.693990   -0.112859
     18          6           0       -2.105054    2.630429   -0.266079
     19          6           0       -1.594602    3.895265   -0.595679
     20          6           0       -2.719667    4.752138   -0.410690
     21          6           0       -3.887960    3.971616   -0.210554
     22          6           0       -0.096791    4.214173   -0.772170
     23          6           0       -2.770307    6.255207   -0.551361
     24          8           0       -3.797522    6.871959   -0.573619
     25          6           0       -1.424238    6.925966   -0.443625
     26          7           0       -6.471955    2.335557    0.206626
     27          6           0       -6.458917    3.707028    0.123598
     28          6           0       -7.922135    4.268787    0.022558
     29          6           0       -8.829733    2.919741    0.132942
     30          6           0       -7.790439    1.848990    0.335809
     31          6           0       -8.270464    5.319907    1.075948
     32          6           0       -9.798159    2.677672   -1.123650
     33          6           0      -11.325863    2.432783   -0.913983
     34          7           0       -6.027877   -0.553200    0.654554
     35          6           0       -7.395531   -0.625453    0.737529
     36          6           0       -7.840349   -2.022956    0.912310
     37          6           0       -6.664148   -2.700417    1.119351
     38          6           0       -5.609544   -1.792989    0.862908
     39          6           0       -9.218899   -2.542897    0.898216
     40          6           0       -6.163148   -4.019964    1.303069
     41          8           0       -6.697800   -5.069667    1.508740
     42          6           0       -4.592007   -3.832637    1.104800
     43          6           0       -4.206681   -4.737725    0.069034
     44          8           0       -4.254893   -4.540845   -1.131109
     45          8           0       -3.762506   -5.886606    0.537569
     46          6           0       -2.779390   -6.688450   -0.267110
     47          6           0        2.652725   -3.565866   -0.170184
     48          6           0        3.872053   -3.084898   -1.010545
     49          6           0        5.120249   -3.549543   -1.250386
     50          6           0        5.647487   -4.758269   -0.476576
     51          6           0        5.957442   -2.902044   -2.262577
     52          6           0        7.000259   -1.973180   -1.671097
     53          6           0        7.087277   -0.658556   -2.403731
     54          6           0        7.730676    0.479646   -1.550839
     55          6           0        6.936860    1.807478   -1.553196
     56          6           0        9.191333    0.780086   -2.091297
     57          6           0       10.243674    0.509648   -1.024821
     58          6           0       11.662537    0.837250   -1.637587
     59          6           0       12.239891    2.037597   -0.863493
     60          6           0       13.125686    2.954683   -1.721105
     61          6           0       12.981143    1.670734    0.458173
     62          6           0       12.360202    2.408931    1.760313
     63          6           0       11.239171    1.493107    2.339308
     64          6           0       11.523649    1.170899    3.837000
     65          6           0       12.667828    0.246410    4.080863
     66          6           0       10.192680    0.677873    4.378354
     67          1           0       -0.274168    1.510296   -0.113828
     68          1           0       -5.449191    5.482938   -0.246419
     69          1           0       -9.341205    0.364621    0.603141
     70          1           0       -1.528172   -3.220102    0.638005
     71          1           0        0.031686   -0.907157   -0.181115
     72          1           0        0.687243   -0.900991    1.913420
     73          1           0       -0.508570   -2.146522    2.282173
     74          1           0       -0.887539   -0.346945    2.471242
     75          1           0       -1.348602   -1.728274   -2.163848
     76          1           0       -2.740338   -2.748590   -1.871079
     77          1           0       -0.244528   -3.297155   -2.834805
     78          1           0       -1.432765   -4.502004   -2.145475
     79          1           0        0.541189    3.331130   -0.730516
     80          1           0        0.394361    4.881496   -0.064175
     81          1           0        0.060024    4.667249   -1.750996
     82          1           0       -1.621656    7.995370   -0.370281
     83          1           0       -0.872964    6.693014   -1.354188
     84          1           0       -0.843017    6.637177    0.432421
     85          1           0       -8.033166    4.618404   -1.003370
     86          1           0       -9.414529    2.866544    1.051478
     87          1           0       -8.566415    6.263205    0.615821
     88          1           0       -7.315445    5.518454    1.563405
     89          1           0       -9.032990    4.921846    1.744080
     90          1           0       -9.460534    1.848307   -1.746180
     91          1           0       -9.744880    3.572473   -1.745222
     92          1           0      -11.978037    3.034072   -1.547075
     93          1           0      -11.693891    2.695514    0.078221
     94          1           0      -11.521241    1.374611   -1.086617
     95          1           0       -9.894865   -1.967587    0.265300
     96          1           0       -9.669472   -2.659403    1.883048
     97          1           0       -9.254868   -3.521434    0.419861
     98          1           0       -4.045149   -3.981770    2.035993
     99          1           0       -3.189421   -7.688463   -0.125217
    100          1           0       -1.783004   -6.650354    0.173173
    101          1           0       -2.606057   -6.425765   -1.310490
    102          1           0        2.837429   -4.631745   -0.037409
    103          1           0        2.639949   -3.035542    0.781307
    104          1           0        3.510208   -2.191171   -1.519371
    105          1           0        5.502848   -5.634816   -1.107596
    106          1           0        5.096151   -4.804751    0.462069
    107          1           0        6.697588   -4.683471   -0.193578
    108          1           0        5.349363   -2.359616   -2.987576
    109          1           0        6.418383   -3.739819   -2.785827
    110          1           0        7.957564   -2.472086   -1.824050
    111          1           0        6.833898   -1.990981   -0.594190
    112          1           0        6.083119   -0.317051   -2.655894
    113          1           0        7.653288   -0.846358   -3.316597
    114          1           0        7.772329    0.159790   -0.510016
    115          1           0        7.516556    2.529203   -0.977134
    116          1           0        5.966634    1.651338   -1.081851
    117          1           0        6.873928    2.106676   -2.599354
    118          1           0        9.349640    1.808164   -2.414499
    119          1           0        9.325940    0.056546   -2.895281
    120          1           0       10.143345   -0.543414   -0.762645
    121          1           0        9.878247    1.121414   -0.200109
    122          1           0       11.558744    0.943115   -2.717236
    123          1           0       12.272838   -0.053564   -1.495561
    124          1           0       11.290342    2.533110   -0.662735
    125          1           0       12.438566    3.516569   -2.354650
    126          1           0       13.666085    2.357920   -2.456811
    127          1           0       13.865456    3.553217   -1.191029
    128          1           0       14.004300    2.045551    0.480569
    129          1           0       13.029670    0.616261    0.730783
    130          1           0       11.896425    3.356417    1.482861
    131          1           0       13.121871    2.582913    2.520610
    132          1           0       11.096541    0.557178    1.800117
    133          1           0       10.304382    2.046926    2.248327
    134          1           0       11.634856    2.001096    4.533412
    135          1           0       13.588072    0.802767    4.262509
    136          1           0       12.768634   -0.320512    3.155396
    137          1           0       12.380810   -0.359916    4.939427
    138          1           0       10.101891   -0.406139    4.440050
    139          1           0        9.267180    0.985529    3.892182
    140          1           0       10.101946    1.019843    5.409284
 ---------------------------------------------------------------------

 SCF Done:  E(RwB97XD) =  -3007.86792815     A.U. after   19 cycles

 Excitation energies and oscillator strengths:

 Excited State   1:      Singlet-A      1.5982 eV  775.75 nm  f=0.3832  <S**2>=0.000
     245 -> 248       -0.17515
     246 -> 247        0.68700
     245 <- 248       -0.11728
 This state for optimization and/or second-order correction.
 Total Energy, E(TD-HF/TD-DFT) =  -3007.80919384
 Copying the excited state density for this state as the 1-particle RhoCI density.

 Excited State   2:      Singlet-A      2.1320 eV  581.55 nm  f=0.1442  <S**2>=0.000
     245 -> 247        0.64979
     246 -> 248        0.26760

 Excited State   3:      Singlet-A      3.3087 eV  374.72 nm  f=0.0008  <S**2>=0.000
     241 -> 247       -0.12227
     244 -> 247        0.67349

 Excited State   4:      Singlet-A      3.5574 eV  348.52 nm  f=0.2665  <S**2>=0.000
     239 -> 247       -0.11929
     240 -> 247        0.19528
     240 -> 249       -0.16038
     241 -> 247       -0.40429
     245 -> 247       -0.15424
     246 -> 248        0.45698

 Excited State   5:      Singlet-A      3.6345 eV  341.13 nm  f=0.1883  <S**2>=0.000
     240 -> 247        0.48044
     240 -> 249       -0.28875
     242 -> 247        0.11904
     245 -> 247        0.13279
     246 -> 248       -0.31118

 The electronic state is 1-A.
 Alpha  occ. eigenvalues --  -46.94922 -19.31183 -19.29067 -19.25307 -19.25202
 Alpha  occ. eigenvalues --  -19.23364 -19.23311 -14.46692 -14.46569 -14.44362
 Alpha  occ. eigenvalues --  -14.43166 -10.44250 -10.41929 -10.39587 -10.37746
 Alpha  occ. eigenvalues --  -10.36716 -10.36176 -10.35683 -10.35191 -10.34702
 Alpha  occ. eigenvalues --  -10.34331 -10.34245 -10.33262 -10.33226 -10.32901
 Alpha  occ. eigenvalues --  -10.32897 -10.32784 -10.32063 -10.32005 -10.31956
 Alpha  occ. eigenvalues --  -10.31920 -10.31723 -10.31687 -10.31681 -10.31440
 Alpha  occ. eigenvalues --  -10.31141 -10.31111 -10.31003 -10.30970 -10.30846
 Alpha  occ. eigenvalues --  -10.30336 -10.30281 -10.29987 -10.29790 -10.29725
 Alpha  occ. eigenvalues --  -10.29675 -10.29571 -10.29567 -10.29357 -10.29320
 Alpha  occ. eigenvalues --  -10.29211 -10.29190 -10.29154 -10.29106 -10.29026
 Alpha  occ. eigenvalues --  -10.28980 -10.28921 -10.28877 -10.28819 -10.28803
 Alpha  occ. eigenvalues --  -10.28715 -10.28599 -10.28468 -10.28252 -10.28202
 Alpha  occ. eigenvalues --  -10.27547  -3.20815  -1.94412  -1.93895  -1.93819
 Alpha  occ. eigenvalues --   -1.19417  -1.19027  -1.14407  -1.13031  -1.10081
 Alpha  occ. eigenvalues --   -1.08832  -1.07174  -1.05119  -1.04315  -1.03378
 Alpha  occ. eigenvalues --   -0.95432  -0.93191  -0.91757  -0.90948  -0.90652
 Alpha  occ. eigenvalues --   -0.90450  -0.89829  -0.89575  -0.88888  -0.88276
 Alpha  occ. eigenvalues --   -0.87855  -0.87126  -0.86331  -0.85605  -0.84880
 Alpha  occ. eigenvalues --   -0.84351  -0.83716  -0.83026  -0.82590  -0.82208
 Alpha  occ. eigenvalues --   -0.82180  -0.80266  -0.79388  -0.79263  -0.78453
 Alpha  occ. eigenvalues --   -0.78237  -0.77855  -0.76916  -0.76396  -0.75565
 Alpha  occ. eigenvalues --   -0.75313  -0.74801  -0.72953  -0.71806  -0.71234
 Alpha  occ. eigenvalues --   -0.70725  -0.69490  -0.68666  -0.68371  -0.67545
 Alpha  occ. eigenvalues --   -0.67254  -0.66968  -0.66287  -0.66076  -0.65922
 Alpha  occ. eigenvalues --   -0.65840  -0.65283  -0.64643  -0.63740  -0.62220
 Alpha  occ. eigenvalues --   -0.61797  -0.61612  -0.61265  -0.60927  -0.60401
 Alpha  occ. eigenvalues --   -0.59229  -0.58440  -0.58148  -0.57773  -0.57676
 Alpha  occ. eigenvalues --   -0.57359  -0.56928  -0.56570  -0.55967  -0.55884
 Alpha  occ. eigenvalues --   -0.55511  -0.55291  -0.54933  -0.54783  -0.54605
 Alpha  occ. eigenvalues --   -0.54234  -0.54110  -0.53979  -0.53832  -0.53758
 Alpha  occ. eigenvalues --   -0.53654  -0.53494  -0.53429  -0.52837  -0.52596
 Alpha  occ. eigenvalues --   -0.52304  -0.52177  -0.51931  -0.51784  -0.51709
 Alpha  occ. eigenvalues --   -0.51592  -0.51110  -0.51021  -0.50774  -0.50709
 Alpha  occ. eigenvalues --   -0.50532  -0.50162  -0.50066  -0.49761  -0.49638
 Alpha  occ. eigenvalues --   -0.49431  -0.49376  -0.49042  -0.48891  -0.48703
 Alpha  occ. eigenvalues --   -0.48548  -0.48243  -0.48014  -0.47897  -0.47542
 Alpha  occ. eigenvalues --   -0.47219  -0.47165  -0.47108  -0.47046  -0.46766
 Alpha  occ. eigenvalues --   -0.46643  -0.46628  -0.46499  -0.46303  -0.45890
 Alpha  occ. eigenvalues --   -0.45824  -0.45623  -0.45562  -0.45447  -0.45326
 Alpha  occ. eigenvalues --   -0.45003  -0.44618  -0.44430  -0.44100  -0.43994
 Alpha  occ. eigenvalues --   -0.43696  -0.43583  -0.43325  -0.43121  -0.42919
 Alpha  occ. eigenvalues --   -0.42624  -0.42608  -0.42191  -0.42172  -0.42041
 Alpha  occ. eigenvalues --   -0.41722  -0.41196  -0.41037  -0.40424  -0.40333
 Alpha  occ. eigenvalues --   -0.40255  -0.40105  -0.39864  -0.39711  -0.39482
 Alpha  occ. eigenvalues --   -0.39310  -0.38945  -0.38574  -0.38533  -0.38381
 Alpha  occ. eigenvalues --   -0.38061  -0.37384  -0.36302  -0.36289  -0.35930
 Alpha  occ. eigenvalues --   -0.35564  -0.35264  -0.34988  -0.33803  -0.33657
 Alpha  occ. eigenvalues --   -0.32906  -0.32128  -0.32035  -0.31411  -0.25900
 Alpha  occ. eigenvalues --   -0.22921
 Alpha virt. eigenvalues --   -0.07353   0.00637   0.02429   0.05198   0.05602
 Alpha virt. eigenvalues --    0.06154   0.07587   0.08073   0.08516   0.10132
 Alpha virt. eigenvalues --    0.10735   0.11422   0.11667   0.12276   0.12331

 Mulliken charges:
               1
     1  Mg   0.956707
     2  C    0.002691
     3  C   -0.062795
     4  C   -0.053544
     5  C   -0.086603
     6  N   -0.356167
     7  C    0.013281
     8  C   -0.149537
     9  C   -0.112678
    10  C    0.039846
    11  C    0.039838
    12  C    0.002795
    13  C    0.044353
    14  C    0.207993
    15  O   -0.274120
    16  O   -0.365561
    17  N   -0.446072
    18  C    0.143727
    19  C   -0.132467
    20  C   -0.114604
    21  C    0.125237
    22  C    0.051896
    23  C    0.050152
    24  O   -0.214160
    25  C   -0.022575
    26  N   -0.396413
    27  C    0.053010
    28  C   -0.085629
    29  C   -0.087138
    30  C    0.076649
    31  C    0.044994
    32  C   -0.023393
    33  C   -0.072157
    34  N   -0.382085
    35  C    0.125524
    36  C   -0.175163
    37  C   -0.007124
    38  C    0.113801
    39  C    0.072605
    40  C    0.111041
    41  O   -0.159273
    42  C   -0.087960
    43  C    0.241759
    44  O   -0.265910
    45  O   -0.342575
    46  C    0.125262
    47  C    0.264697
    48  C   -0.191275
    49  C   -0.223710
    50  C    0.020583
    51  C    0.076589
    52  C   -0.028567
    53  C    0.018508
    54  C   -0.188821
    55  C   -0.000745
    56  C   -0.003372
    57  C   -0.093784
    58  C    0.032728
    59  C   -0.151797
    60  C    0.012156
    61  C    0.006816
    62  C   -0.035763
    63  C   -0.039249
    64  C   -0.207023
    65  C    0.031049
    66  C   -0.022340
    67  H   -0.016437
    68  H    0.029149
    69  H    0.006077
    70  H    0.052705
    71  H    0.022227
    72  H    0.031404
    73  H    0.041663
    74  H    0.052611
    75  H    0.037960
    76  H    0.072069
    77  H    0.051379
    78  H    0.061753
    79  H    0.027019
    80  H    0.045110
    81  H    0.044015
    82  H    0.044608
    83  H    0.046349
    84  H    0.062839
    85  H    0.048349
    86  H    0.038690
    87  H    0.041198
    88  H    0.043428
    89  H    0.040086
    90  H    0.042171
    91  H    0.033904
    92  H    0.040397
    93  H    0.030158
    94  H    0.040388
    95  H    0.029547
    96  H    0.064986
    97  H    0.054564
    98  H    0.076292
    99  H    0.062783
   100  H    0.066975
   101  H    0.068384
   102  H    0.058317
   103  H    0.059247
   104  H    0.021385
   105  H    0.059155
   106  H    0.038568
   107  H    0.038763
   108  H    0.024763
   109  H    0.016540
   110  H    0.015350
   111  H    0.028271
   112  H    0.011740
   113  H    0.027930
   114  H    0.018668
   115  H    0.029749
   116  H    0.032951
   117  H    0.034697
   118  H    0.018034
   119  H    0.011143
   120  H    0.019191
   121  H    0.033327
   122  H    0.019067
   123  H    0.012950
   124  H    0.017061
   125  H    0.020910
   126  H    0.020839
   127  H    0.038668
   128  H    0.014465
   129  H    0.017271
   130  H    0.026724
   131  H    0.023687
   132  H    0.031239
   133  H    0.021534
   134  H    0.018466
   135  H    0.035860
   136  H    0.022689
   137  H    0.032017
   138  H    0.011472
   139  H    0.021997
   140  H    0.016353
 Sum of Mulliken charges =  -0.00000

 Dipole moment (field-independent basis, Debye):
    X=              3.4613    Y=              0.9316    Z=             -1.5141  Tot=              3.8912
 Quadrupole moment (field-independent basis, Debye-Ang):
   XX=           -363.4643   YY=           -434.5743   ZZ=           -402.4272
   XY=            -22.6309   XZ=              5.0281   YZ=              7.6565

 Normal termination of Gaussian 16 at Wed May  4 09:03:12 2022.
