 Gaussian 16, Revision A.03,
 Gaussian 16:  ES64L-G16RevA.03 25-Dec-2016

 --------------------
 #p ZINDO=(nstates=5)
 --------------------

 -----------------------------
 step_151_chromophore_15 ZINDO
 -----------------------------
 Symbolic Z-matrix:
 Charge =  0 Multiplicity = 1

                         Standard orientation:
 ---------------------------------------------------------------------
 Center     Atomic      Atomic             Coordinates (Angstroms)
 Number     Number       Type             X           Y           Z
 ---------------------------------------------------------------------
      1         12           0       -4.764447    1.051228    0.032988
      2          6           0       -4.349663   -2.372173    0.779279
      3          6           0       -1.359419    1.422536   -0.037019
      4          6           0       -5.286207    4.419600   -0.060845
      5          6           0       -8.258927    0.510492    0.623564
      6          7           0       -3.067896   -0.277033    0.316056
      7          6           0       -3.198255   -1.683911    0.381444
      8          6           0       -1.747121   -2.345960    0.025703
      9          6           0       -0.860658   -1.094125    0.416103
     10          6           0       -1.800953    0.112527    0.161512
     11          6           0       -0.378960   -1.130447    1.909977
     12          6           0       -1.711944   -2.562282   -1.562150
     13          6           0       -0.725376   -3.697685   -1.941905
     14          6           0        0.398209   -3.992691   -0.905508
     15          8           0        0.394526   -4.884137   -0.066266
     16          8           0        1.511615   -3.203108   -1.028280
     17          7           0       -3.478554    2.693990   -0.112859
     18          6           0       -2.105054    2.630429   -0.266079
     19          6           0       -1.594602    3.895265   -0.595679
     20          6           0       -2.719667    4.752138   -0.410690
     21          6           0       -3.887960    3.971616   -0.210554
     22          6           0       -0.096791    4.214173   -0.772170
     23          6           0       -2.770307    6.255207   -0.551361
     24          8           0       -3.797522    6.871959   -0.573619
     25          6           0       -1.424238    6.925966   -0.443625
     26          7           0       -6.471955    2.335557    0.206626
     27          6           0       -6.458917    3.707028    0.123598
     28          6           0       -7.922135    4.268787    0.022558
     29          6           0       -8.829733    2.919741    0.132942
     30          6           0       -7.790439    1.848990    0.335809
     31          6           0       -8.270464    5.319907    1.075948
     32          6           0       -9.798159    2.677672   -1.123650
     33          6           0      -11.325863    2.432783   -0.913983
     34          7           0       -6.027877   -0.553200    0.654554
     35          6           0       -7.395531   -0.625453    0.737529
     36          6           0       -7.840349   -2.022956    0.912310
     37          6           0       -6.664148   -2.700417    1.119351
     38          6           0       -5.609544   -1.792989    0.862908
     39          6           0       -9.218899   -2.542897    0.898216
     40          6           0       -6.163148   -4.019964    1.303069
     41          8           0       -6.697800   -5.069667    1.508740
     42          6           0       -4.592007   -3.832637    1.104800
     43          6           0       -4.206681   -4.737725    0.069034
     44          8           0       -4.254893   -4.540845   -1.131109
     45          8           0       -3.762506   -5.886606    0.537569
     46          6           0       -2.779390   -6.688450   -0.267110
     47          6           0        2.652725   -3.565866   -0.170184
     48          6           0        3.872053   -3.084898   -1.010545
     49          6           0        5.120249   -3.549543   -1.250386
     50          6           0        5.647487   -4.758269   -0.476576
     51          6           0        5.957442   -2.902044   -2.262577
     52          6           0        7.000259   -1.973180   -1.671097
     53          6           0        7.087277   -0.658556   -2.403731
     54          6           0        7.730676    0.479646   -1.550839
     55          6           0        6.936860    1.807478   -1.553196
     56          6           0        9.191333    0.780086   -2.091297
     57          6           0       10.243674    0.509648   -1.024821
     58          6           0       11.662537    0.837250   -1.637587
     59          6           0       12.239891    2.037597   -0.863493
     60          6           0       13.125686    2.954683   -1.721105
     61          6           0       12.981143    1.670734    0.458173
     62          6           0       12.360202    2.408931    1.760313
     63          6           0       11.239171    1.493107    2.339308
     64          6           0       11.523649    1.170899    3.837000
     65          6           0       12.667828    0.246410    4.080863
     66          6           0       10.192680    0.677873    4.378354
     67          1           0       -0.274168    1.510296   -0.113828
     68          1           0       -5.449191    5.482938   -0.246419
     69          1           0       -9.341205    0.364621    0.603141
     70          1           0       -1.528172   -3.220102    0.638005
     71          1           0        0.031686   -0.907157   -0.181115
     72          1           0        0.687243   -0.900991    1.913420
     73          1           0       -0.508570   -2.146522    2.282173
     74          1           0       -0.887539   -0.346945    2.471242
     75          1           0       -1.348602   -1.728274   -2.163848
     76          1           0       -2.740338   -2.748590   -1.871079
     77          1           0       -0.244528   -3.297155   -2.834805
     78          1           0       -1.432765   -4.502004   -2.145475
     79          1           0        0.541189    3.331130   -0.730516
     80          1           0        0.394361    4.881496   -0.064175
     81          1           0        0.060024    4.667249   -1.750996
     82          1           0       -1.621656    7.995370   -0.370281
     83          1           0       -0.872964    6.693014   -1.354188
     84          1           0       -0.843017    6.637177    0.432421
     85          1           0       -8.033166    4.618404   -1.003370
     86          1           0       -9.414529    2.866544    1.051478
     87          1           0       -8.566415    6.263205    0.615821
     88          1           0       -7.315445    5.518454    1.563405
     89          1           0       -9.032990    4.921846    1.744080
     90          1           0       -9.460534    1.848307   -1.746180
     91          1           0       -9.744880    3.572473   -1.745222
     92          1           0      -11.978037    3.034072   -1.547075
     93          1           0      -11.693891    2.695514    0.078221
     94          1           0      -11.521241    1.374611   -1.086617
     95          1           0       -9.894865   -1.967587    0.265300
     96          1           0       -9.669472   -2.659403    1.883048
     97          1           0       -9.254868   -3.521434    0.419861
     98          1           0       -4.045149   -3.981770    2.035993
     99          1           0       -3.189421   -7.688463   -0.125217
    100          1           0       -1.783004   -6.650354    0.173173
    101          1           0       -2.606057   -6.425765   -1.310490
    102          1           0        2.837429   -4.631745   -0.037409
    103          1           0        2.639949   -3.035542    0.781307
    104          1           0        3.510208   -2.191171   -1.519371
    105          1           0        5.502848   -5.634816   -1.107596
    106          1           0        5.096151   -4.804751    0.462069
    107          1           0        6.697588   -4.683471   -0.193578
    108          1           0        5.349363   -2.359616   -2.987576
    109          1           0        6.418383   -3.739819   -2.785827
    110          1           0        7.957564   -2.472086   -1.824050
    111          1           0        6.833898   -1.990981   -0.594190
    112          1           0        6.083119   -0.317051   -2.655894
    113          1           0        7.653288   -0.846358   -3.316597
    114          1           0        7.772329    0.159790   -0.510016
    115          1           0        7.516556    2.529203   -0.977134
    116          1           0        5.966634    1.651338   -1.081851
    117          1           0        6.873928    2.106676   -2.599354
    118          1           0        9.349640    1.808164   -2.414499
    119          1           0        9.325940    0.056546   -2.895281
    120          1           0       10.143345   -0.543414   -0.762645
    121          1           0        9.878247    1.121414   -0.200109
    122          1           0       11.558744    0.943115   -2.717236
    123          1           0       12.272838   -0.053564   -1.495561
    124          1           0       11.290342    2.533110   -0.662735
    125          1           0       12.438566    3.516569   -2.354650
    126          1           0       13.666085    2.357920   -2.456811
    127          1           0       13.865456    3.553217   -1.191029
    128          1           0       14.004300    2.045551    0.480569
    129          1           0       13.029670    0.616261    0.730783
    130          1           0       11.896425    3.356417    1.482861
    131          1           0       13.121871    2.582913    2.520610
    132          1           0       11.096541    0.557178    1.800117
    133          1           0       10.304382    2.046926    2.248327
    134          1           0       11.634856    2.001096    4.533412
    135          1           0       13.588072    0.802767    4.262509
    136          1           0       12.768634   -0.320512    3.155396
    137          1           0       12.380810   -0.359916    4.939427
    138          1           0       10.101891   -0.406139    4.440050
    139          1           0        9.267180    0.985529    3.892182
    140          1           0       10.101946    1.019843    5.409284
 ---------------------------------------------------------------------

 SCF Done:  E(RZINDO/S) =  -474.336171015     A.U. after   20 cycles

 Excitation energies and oscillator strengths:

 Excited State   1:      Singlet-A      1.2595 eV  984.37 nm  f=0.6078  <S**2>=0.000
     175 ->178         0.16126
     176 ->177         0.66892
 This state for optimization and/or second-order correction.
 Total Energy, E(CIS/TDA) =  -474.289884243
 Copying the excited state density for this state as the 1-particle RhoCI density.

 Excited State   2:      Singlet-A      1.9221 eV  645.05 nm  f=0.0758  <S**2>=0.000
     175 ->177         0.56438
     176 ->178        -0.37805
     176 ->179         0.11645

 Excited State   3:      Singlet-A      2.9337 eV  422.63 nm  f=0.3437  <S**2>=0.000
     168 ->177        -0.20844
     168 ->178         0.14451
     168 ->179         0.24268
     169 ->177         0.14389
     169 ->179        -0.11246
     175 ->177         0.22050
     176 ->178         0.40449
     176 ->179         0.21803

 Excited State   4:      Singlet-A      2.9745 eV  416.82 nm  f=0.3188  <S**2>=0.000
     168 ->177         0.26975
     168 ->178        -0.17601
     168 ->179        -0.30622
     168 ->186        -0.11534
     175 ->177         0.20552
     176 ->178         0.35168
     176 ->179         0.14457

 Excited State   5:      Singlet-A      3.0381 eV  408.09 nm  f=0.0422  <S**2>=0.000
     171 ->177         0.27246
     171 ->179         0.19050
     171 ->181         0.34351
     171 ->182        -0.24762
     171 ->183         0.18164
     171 ->186         0.18011
     171 ->188         0.20902
     176 ->178        -0.10828

 The electronic state is 1-A.
 Alpha  occ. eigenvalues --   -1.86252  -1.80489  -1.77498  -1.74906  -1.73088
 Alpha  occ. eigenvalues --   -1.69528  -1.66592  -1.62246  -1.60501  -1.59196
 Alpha  occ. eigenvalues --   -1.57226  -1.51768  -1.50584  -1.47347  -1.44494
 Alpha  occ. eigenvalues --   -1.43576  -1.41499  -1.38766  -1.38134  -1.37489
 Alpha  occ. eigenvalues --   -1.36758  -1.33910  -1.33030  -1.31425  -1.29008
 Alpha  occ. eigenvalues --   -1.28757  -1.23817  -1.21358  -1.19564  -1.18504
 Alpha  occ. eigenvalues --   -1.17959  -1.16923  -1.15408  -1.13987  -1.12140
 Alpha  occ. eigenvalues --   -1.11632  -1.09942  -1.09650  -1.05347  -1.04539
 Alpha  occ. eigenvalues --   -1.02742  -1.01086  -0.98241  -0.97127  -0.96539
 Alpha  occ. eigenvalues --   -0.95779  -0.94568  -0.93373  -0.92158  -0.92008
 Alpha  occ. eigenvalues --   -0.90562  -0.89941  -0.88619  -0.87760  -0.87574
 Alpha  occ. eigenvalues --   -0.85708  -0.85088  -0.83526  -0.81892  -0.80258
 Alpha  occ. eigenvalues --   -0.79591  -0.78598  -0.78117  -0.76932  -0.76695
 Alpha  occ. eigenvalues --   -0.75656  -0.75250  -0.74702  -0.74174  -0.73784
 Alpha  occ. eigenvalues --   -0.72637  -0.72540  -0.72078  -0.71263  -0.70518
 Alpha  occ. eigenvalues --   -0.70299  -0.68835  -0.68449  -0.67797  -0.67778
 Alpha  occ. eigenvalues --   -0.67458  -0.67087  -0.66491  -0.65967  -0.65432
 Alpha  occ. eigenvalues --   -0.65419  -0.65053  -0.64830  -0.64235  -0.63833
 Alpha  occ. eigenvalues --   -0.63132  -0.63082  -0.62530  -0.62152  -0.61867
 Alpha  occ. eigenvalues --   -0.61278  -0.60726  -0.60557  -0.60274  -0.59807
 Alpha  occ. eigenvalues --   -0.59340  -0.58709  -0.58371  -0.58091  -0.57833
 Alpha  occ. eigenvalues --   -0.57514  -0.57451  -0.57131  -0.56603  -0.56451
 Alpha  occ. eigenvalues --   -0.56304  -0.55761  -0.55432  -0.55304  -0.54756
 Alpha  occ. eigenvalues --   -0.54640  -0.54135  -0.54024  -0.53599  -0.52718
 Alpha  occ. eigenvalues --   -0.52489  -0.51782  -0.51668  -0.51648  -0.51101
 Alpha  occ. eigenvalues --   -0.50983  -0.50855  -0.50527  -0.50391  -0.50226
 Alpha  occ. eigenvalues --   -0.50009  -0.49916  -0.49830  -0.49544  -0.49140
 Alpha  occ. eigenvalues --   -0.49060  -0.48729  -0.48538  -0.48310  -0.47729
 Alpha  occ. eigenvalues --   -0.47049  -0.46939  -0.46371  -0.46202  -0.46163
 Alpha  occ. eigenvalues --   -0.46093  -0.45648  -0.45382  -0.45240  -0.45177
 Alpha  occ. eigenvalues --   -0.45130  -0.44722  -0.44401  -0.44141  -0.43990
 Alpha  occ. eigenvalues --   -0.43845  -0.43420  -0.42329  -0.42218  -0.42015
 Alpha  occ. eigenvalues --   -0.41684  -0.40941  -0.40848  -0.38767  -0.38577
 Alpha  occ. eigenvalues --   -0.38170  -0.36640  -0.36027  -0.34623  -0.34103
 Alpha  occ. eigenvalues --   -0.33297  -0.32339  -0.31760  -0.31567  -0.26595
 Alpha  occ. eigenvalues --   -0.21723
 Alpha virt. eigenvalues --   -0.08625  -0.01808  -0.00604   0.01752   0.02101
 Alpha virt. eigenvalues --    0.02375   0.02998   0.03467   0.05055   0.05118
 Alpha virt. eigenvalues --    0.06688   0.06880   0.07472   0.07847   0.08171

 Mulliken charges:
               1
     1  Mg   0.420563
     2  C   -0.047301
     3  C   -0.077117
     4  C   -0.060041
     5  C   -0.090446
     6  N   -0.285684
     7  C    0.130966
     8  C   -0.001703
     9  C   -0.003294
    10  C    0.112084
    11  C   -0.054416
    12  C   -0.023084
    13  C    0.000332
    14  C    0.469358
    15  O   -0.532738
    16  O   -0.263470
    17  N   -0.318227
    18  C    0.082822
    19  C   -0.024975
    20  C   -0.056742
    21  C    0.124598
    22  C   -0.045672
    23  C    0.321925
    24  O   -0.521120
    25  C   -0.037009
    26  N   -0.281794
    27  C    0.103905
    28  C    0.003269
    29  C   -0.004813
    30  C    0.157418
    31  C   -0.051327
    32  C   -0.030415
    33  C   -0.058761
    34  N   -0.320263
    35  C    0.124478
    36  C    0.061647
    37  C   -0.041287
    38  C    0.141608
    39  C   -0.032325
    40  C    0.343805
    41  O   -0.489936
    42  C    0.059719
    43  C    0.511064
    44  O   -0.557866
    45  O   -0.269237
    46  C    0.074267
    47  C    0.104807
    48  C   -0.114352
    49  C    0.002987
    50  C   -0.043737
    51  C   -0.013300
    52  C   -0.026141
    53  C   -0.027172
    54  C   -0.027932
    55  C   -0.057192
    56  C   -0.044644
    57  C   -0.047734
    58  C   -0.034125
    59  C   -0.004248
    60  C   -0.058907
    61  C   -0.039605
    62  C   -0.050972
    63  C   -0.033244
    64  C   -0.011761
    65  C   -0.051652
    66  C   -0.062046
    67  H    0.021080
    68  H    0.046923
    69  H    0.037867
    70  H    0.053329
    71  H    0.025065
    72  H    0.016606
    73  H    0.026059
    74  H    0.031246
    75  H    0.028927
    76  H    0.042022
    77  H    0.034881
    78  H    0.055459
    79  H    0.016245
    80  H    0.027225
    81  H    0.022334
    82  H    0.026089
    83  H    0.038157
    84  H    0.038225
    85  H    0.037302
    86  H    0.035620
    87  H    0.024012
    88  H    0.029086
    89  H    0.026509
    90  H    0.025033
    91  H    0.019769
    92  H    0.022760
    93  H    0.016445
    94  H    0.018711
    95  H    0.022058
    96  H    0.042256
    97  H    0.033174
    98  H    0.055124
    99  H    0.038427
   100  H    0.042004
   101  H    0.055497
   102  H    0.056324
   103  H    0.051647
   104  H    0.015918
   105  H    0.034457
   106  H    0.022862
   107  H    0.023519
   108  H    0.021769
   109  H    0.017470
   110  H    0.009911
   111  H    0.028275
   112  H    0.016618
   113  H    0.026112
   114  H    0.020235
   115  H    0.017084
   116  H    0.017988
   117  H    0.022478
   118  H    0.024343
   119  H    0.017564
   120  H    0.014892
   121  H    0.029111
   122  H    0.026132
   123  H    0.012287
   124  H    0.024368
   125  H    0.013991
   126  H    0.012695
   127  H    0.028221
   128  H    0.013614
   129  H    0.024995
   130  H    0.020245
   131  H    0.023485
   132  H    0.028368
   133  H    0.012504
   134  H    0.022483
   135  H    0.019464
   136  H    0.021199
   137  H    0.023485
   138  H    0.009121
   139  H    0.016847
   140  H    0.004601
 Sum of Mulliken charges =  -0.00000

 Dipole moment (field-independent basis, Debye):
    X=              2.9556    Y=             -0.9241    Z=             -1.2973  Tot=              3.3574
 N-N= 4.369022112484D+03 E-N= 0.000000000000D+00  KE=-9.412775109406D+03
 Leave Link  601 at Wed May  4 09:15:38 2022, MaxMem=  6710886400 cpu:               1.0 elap:               0.1
 (Enter /sw/apps/gaussian-16.0/g16/l9999.exe)
 1\1\GINC-BP1-COMPUTE040\SP\RZINDO CIS\STO-3G\C55H74Mg1N4O6\OF15641\04-
 May-2022\0\\#p ZINDO=(nstates=5)\\step_151_chromophore_15 ZINDO\\0,1\M
 g,0,46.715,35.058,27.484\C,0,44.788,33.108,29.705\C,0,46.85,37.551,29.
 83\C,0,48.015,37.066,25.054\C,0,46.035,32.52,25.045\N,0,45.945,35.314,
 29.5\C,0,45.384,34.252,30.247\C,0,45.453,34.652,31.83\C,0,45.519,36.22
 1,31.632\C,0,46.205,36.386,30.251\C,0,44.102,36.897,31.644\C,0,46.858,
 34.115,32.384\C,0,46.789,33.868,33.914\C,0,45.695,34.668,34.68\O,0,44.

 Normal termination of Gaussian 16 at Wed May  4 09:15:39 2022.
