 Gaussian 16, Revision A.03,
 Gaussian 16:  ES64L-G16RevA.03 25-Dec-2016

 ------------------------------
 #p blyp/Def2SVP td=(nstates=5)
 ------------------------------

 --------------------------------------------------
 step_1251_chromophore_3 TDDFT with blyp functional
 --------------------------------------------------
 Symbolic Z-matrix:
 Charge =  0 Multiplicity = 1

                         Standard orientation:
 ---------------------------------------------------------------------
 Center     Atomic      Atomic             Coordinates (Angstroms)
 Number     Number       Type             X           Y           Z
 ---------------------------------------------------------------------
      1         12           0       -5.661918    0.777319   -0.310186
      2          6           0       -4.691871   -2.485256    0.218562
      3          6           0       -2.288033    1.584827   -0.105126
      4          6           0       -6.508397    4.158642   -0.134963
      5          6           0       -8.927998   -0.119722    0.335873
      6          7           0       -3.733609   -0.378568    0.012560
      7          6           0       -3.585311   -1.729542    0.024437
      8          6           0       -2.083852   -2.166109   -0.115605
      9          6           0       -1.348197   -0.848010    0.083242
     10          6           0       -2.498078    0.204301   -0.122880
     11          6           0       -0.745710   -0.657568    1.482375
     12          6           0       -1.721315   -3.131721   -1.285783
     13          6           0       -0.336428   -3.048644   -1.950924
     14          6           0        0.957622   -3.067622   -1.122756
     15          8           0        1.019562   -3.456797    0.045476
     16          8           0        2.003513   -2.600752   -1.804964
     17          7           0       -4.547208    2.601659   -0.134537
     18          6           0       -3.158511    2.696738   -0.058126
     19          6           0       -2.859366    4.161497    0.011386
     20          6           0       -4.059121    4.897181   -0.128102
     21          6           0       -5.092146    3.885983   -0.115233
     22          6           0       -1.396414    4.671946    0.080134
     23          6           0       -4.274113    6.397172   -0.061960
     24          8           0       -5.387996    6.940907    0.022301
     25          6           0       -3.075152    7.410225    0.216300
     26          7           0       -7.461709    1.843475   -0.166995
     27          6           0       -7.581778    3.228738   -0.133612
     28          6           0       -9.086640    3.692541   -0.048230
     29          6           0       -9.878987    2.343215    0.037089
     30          6           0       -8.681091    1.272442    0.120156
     31          6           0       -9.317637    4.554105    1.205477
     32          6           0      -11.005851    2.136082   -1.031679
     33          6           0      -12.466572    1.878704   -0.665299
     34          7           0       -6.641129   -0.894924    0.233993
     35          6           0       -7.982858   -1.160952    0.462932
     36          6           0       -8.260556   -2.571104    0.638745
     37          6           0       -7.008432   -3.168391    0.570787
     38          6           0       -6.047896   -2.078206    0.290057
     39          6           0       -9.574486   -3.300193    0.842854
     40          6           0       -6.258023   -4.337759    0.609859
     41          8           0       -6.610160   -5.494930    0.809973
     42          6           0       -4.761507   -3.979424    0.261770
     43          6           0       -4.006829   -4.646139    1.359769
     44          8           0       -3.956584   -4.407597    2.541263
     45          8           0       -3.269295   -5.715760    0.876341
     46          6           0       -2.310999   -6.348790    1.778778
     47          6           0        3.311469   -2.809326   -1.157479
     48          6           0        4.405263   -2.461476   -2.086735
     49          6           0        5.755704   -2.762457   -1.917050
     50          6           0        6.352911   -3.600285   -0.842039
     51          6           0        6.643198   -2.360501   -3.053727
     52          6           0        7.255678   -0.990583   -2.849548
     53          6           0        8.868801   -1.037582   -2.933294
     54          6           0        9.535883    0.192288   -2.179549
     55          6           0        9.731245   -0.298807   -0.732624
     56          6           0       10.825277    0.575180   -2.871265
     57          6           0       11.324839    1.967615   -2.326569
     58          6           0       12.830021    2.011976   -1.951503
     59          6           0       13.043761    2.425049   -0.503008
     60          6           0       14.226668    3.346974   -0.489648
     61          6           0       13.283042    1.224728    0.477512
     62          6           0       12.435057    1.160796    1.718723
     63          6           0       13.184523    1.664754    2.973281
     64          6           0       13.466605    0.463384    3.973373
     65          6           0       12.175257    0.153986    4.834251
     66          6           0       14.645784    0.890826    4.823775
     67          1           0       -1.219512    1.807270   -0.063801
     68          1           0       -6.926581    5.167631   -0.134267
     69          1           0       -9.938755   -0.530948    0.376069
     70          1           0       -2.057495   -2.813967    0.760541
     71          1           0       -0.552421   -0.691026   -0.645890
     72          1           0       -1.117680   -1.374037    2.214660
     73          1           0       -0.982912    0.333173    1.869486
     74          1           0        0.341297   -0.731555    1.475853
     75          1           0       -2.505033   -3.038038   -2.038113
     76          1           0       -1.765646   -4.148005   -0.895915
     77          1           0       -0.306006   -2.047697   -2.380682
     78          1           0       -0.175666   -3.838974   -2.684245
     79          1           0       -1.185168    5.362238    0.895667
     80          1           0       -1.010522    5.084094   -0.852202
     81          1           0       -0.782487    3.837725    0.418480
     82          1           0       -3.369491    8.447692    0.058674
     83          1           0       -2.124688    7.213042   -0.280892
     84          1           0       -2.894536    7.365942    1.290558
     85          1           0       -9.425612    4.147201   -0.978478
     86          1           0      -10.367208    2.244678    1.006261
     87          1           0       -8.404035    4.846320    1.725133
     88          1           0       -9.763003    3.909602    1.963663
     89          1           0       -9.886157    5.445126    0.940410
     90          1           0      -10.674248    1.334810   -1.692318
     91          1           0      -11.144146    2.986566   -1.699070
     92          1           0      -13.034974    2.512905   -1.344364
     93          1           0      -12.647309    2.206093    0.357772
     94          1           0      -12.647203    0.810207   -0.782448
     95          1           0      -10.400107   -2.589930    0.814156
     96          1           0       -9.466332   -3.647960    1.870552
     97          1           0       -9.695540   -4.061116    0.072061
     98          1           0       -4.477711   -4.359770   -0.719019
     99          1           0       -1.289189   -5.971061    1.752469
    100          1           0       -2.179958   -7.362932    1.401636
    101          1           0       -2.710031   -6.544689    2.774237
    102          1           0        3.477163   -3.812606   -0.765130
    103          1           0        3.482647   -2.162130   -0.297716
    104          1           0        4.130902   -2.052173   -3.058625
    105          1           0        5.639463   -4.357506   -0.516437
    106          1           0        6.637050   -3.010108    0.028934
    107          1           0        7.252457   -4.082783   -1.222954
    108          1           0        6.022735   -2.492579   -3.939431
    109          1           0        7.507573   -3.018992   -3.130094
    110          1           0        6.890015   -0.577558   -1.910131
    111          1           0        6.813651   -0.427135   -3.671223
    112          1           0        9.164251   -1.087267   -3.981409
    113          1           0        9.178745   -1.988650   -2.502375
    114          1           0        8.806916    1.000357   -2.117816
    115          1           0       10.618878   -0.895579   -0.520957
    116          1           0        8.870545   -0.908655   -0.458162
    117          1           0        9.809100    0.621309   -0.153022
    118          1           0       10.712668    0.731904   -3.944536
    119          1           0       11.496372   -0.258760   -2.670183
    120          1           0       10.624174    2.361005   -1.590228
    121          1           0       11.131604    2.630822   -3.169275
    122          1           0       13.226379    2.762278   -2.635059
    123          1           0       13.317313    1.061951   -2.168834
    124          1           0       12.178143    2.994270   -0.162205
    125          1           0       14.785143    3.173528   -1.408977
    126          1           0       14.768489    3.200876    0.445404
    127          1           0       13.803851    4.348829   -0.555538
    128          1           0       14.312375    1.093042    0.810250
    129          1           0       13.198106    0.308998   -0.107625
    130          1           0       11.993283    0.213362    2.026984
    131          1           0       11.664279    1.931480    1.695549
    132          1           0       12.750988    2.491712    3.535701
    133          1           0       14.176850    2.065930    2.764386
    134          1           0       13.779839   -0.454918    3.475892
    135          1           0       12.442570    0.010374    5.880769
    136          1           0       11.598082   -0.730262    4.566044
    137          1           0       11.478628    0.992576    4.837224
    138          1           0       14.506129    0.753183    5.895252
    139          1           0       15.032197    1.893692    4.642209
    140          1           0       15.472094    0.201351    4.647602
 ---------------------------------------------------------------------

 SCF Done:  E(RB-LYP) =  -3007.36836690     A.U. after   21 cycles

 Excitation energies and oscillator strengths:

 Excited State   1:      Singlet-A      1.7787 eV  697.07 nm  f=0.2940  <S**2>=0.000
     245 -> 248       -0.15562
     245 -> 249       -0.11326
     246 -> 247        0.69169
     246 <- 247       -0.15522
 This state for optimization and/or second-order correction.
 Total Energy, E(TD-HF/TD-DFT) =  -3007.30300237
 Copying the excited state density for this state as the 1-particle RhoCI density.

 Excited State   2:      Singlet-A      1.8429 eV  672.76 nm  f=0.0051  <S**2>=0.000
     244 -> 247        0.69250
     245 -> 247        0.13272

 Excited State   3:      Singlet-A      1.9329 eV  641.45 nm  f=0.0009  <S**2>=0.000
     243 -> 247        0.70130

 Excited State   4:      Singlet-A      1.9950 eV  621.47 nm  f=0.0959  <S**2>=0.000
     244 -> 247       -0.13385
     245 -> 247        0.63542
     246 -> 248        0.20526
     246 -> 249        0.13094

 Excited State   5:      Singlet-A      2.1114 eV  587.21 nm  f=0.0000  <S**2>=0.000
     242 -> 247        0.70708

 The electronic state is 1-A.
 Alpha  occ. eigenvalues --  -46.27466 -18.83913 -18.80364 -18.77045 -18.75878
 Alpha  occ. eigenvalues --  -18.75643 -18.74913 -14.03557 -14.03209 -14.01497
 Alpha  occ. eigenvalues --  -14.01297 -10.04805 -10.02882 -10.00742  -9.98799
 Alpha  occ. eigenvalues --   -9.98731  -9.97148  -9.96581  -9.96579  -9.96316
 Alpha  occ. eigenvalues --   -9.96315  -9.96232  -9.96221  -9.95673  -9.95017
 Alpha  occ. eigenvalues --   -9.94654  -9.94533  -9.94375  -9.94055  -9.94000
 Alpha  occ. eigenvalues --   -9.93887  -9.93834  -9.93619  -9.93308  -9.93120
 Alpha  occ. eigenvalues --   -9.93076  -9.93056  -9.93048  -9.93001  -9.92920
 Alpha  occ. eigenvalues --   -9.92897  -9.92843  -9.92448  -9.92393  -9.92240
 Alpha  occ. eigenvalues --   -9.92202  -9.92073  -9.91961  -9.91920  -9.91823
 Alpha  occ. eigenvalues --   -9.91744  -9.91735  -9.91625  -9.91446  -9.91369
 Alpha  occ. eigenvalues --   -9.91159  -9.91113  -9.91076  -9.91024  -9.91011
 Alpha  occ. eigenvalues --   -9.90952  -9.90926  -9.90917  -9.90885  -9.90330
 Alpha  occ. eigenvalues --   -9.90259  -2.92131  -1.72533  -1.71986  -1.71881
 Alpha  occ. eigenvalues --   -0.99819  -0.96759  -0.90729  -0.90678  -0.90160
 Alpha  occ. eigenvalues --   -0.88415  -0.86865  -0.85704  -0.84641  -0.83849
 Alpha  occ. eigenvalues --   -0.75711  -0.74307  -0.73575  -0.72992  -0.72199
 Alpha  occ. eigenvalues --   -0.71749  -0.71568  -0.71119  -0.70552  -0.70397
 Alpha  occ. eigenvalues --   -0.69875  -0.69487  -0.68348  -0.67648  -0.67234
 Alpha  occ. eigenvalues --   -0.66749  -0.65923  -0.65385  -0.64534  -0.64424
 Alpha  occ. eigenvalues --   -0.63538  -0.63034  -0.62511  -0.61275  -0.60714
 Alpha  occ. eigenvalues --   -0.60451  -0.60131  -0.59666  -0.59548  -0.59154
 Alpha  occ. eigenvalues --   -0.58272  -0.57863  -0.56508  -0.55877  -0.54163
 Alpha  occ. eigenvalues --   -0.53787  -0.53527  -0.52678  -0.52397  -0.51694
 Alpha  occ. eigenvalues --   -0.51284  -0.51083  -0.50795  -0.50518  -0.50291
 Alpha  occ. eigenvalues --   -0.50200  -0.49474  -0.49103  -0.47421  -0.46516
 Alpha  occ. eigenvalues --   -0.46282  -0.46118  -0.45618  -0.45233  -0.44394
 Alpha  occ. eigenvalues --   -0.44225  -0.43774  -0.43223  -0.42924  -0.41984
 Alpha  occ. eigenvalues --   -0.41733  -0.41583  -0.41444  -0.41223  -0.41075
 Alpha  occ. eigenvalues --   -0.40974  -0.40782  -0.40453  -0.40105  -0.39904
 Alpha  occ. eigenvalues --   -0.39783  -0.39486  -0.39301  -0.39242  -0.39024
 Alpha  occ. eigenvalues --   -0.39004  -0.38816  -0.38595  -0.38581  -0.38359
 Alpha  occ. eigenvalues --   -0.37887  -0.37708  -0.37511  -0.37262  -0.36960
 Alpha  occ. eigenvalues --   -0.36911  -0.36663  -0.36565  -0.36543  -0.36449
 Alpha  occ. eigenvalues --   -0.36239  -0.36092  -0.35948  -0.35772  -0.35669
 Alpha  occ. eigenvalues --   -0.35242  -0.35035  -0.34860  -0.34803  -0.34571
 Alpha  occ. eigenvalues --   -0.34263  -0.34169  -0.33987  -0.33940  -0.33759
 Alpha  occ. eigenvalues --   -0.33597  -0.33521  -0.33478  -0.33231  -0.33047
 Alpha  occ. eigenvalues --   -0.33027  -0.32906  -0.32741  -0.32506  -0.32485
 Alpha  occ. eigenvalues --   -0.32273  -0.32211  -0.31843  -0.31759  -0.31582
 Alpha  occ. eigenvalues --   -0.31481  -0.31296  -0.31059  -0.30977  -0.30770
 Alpha  occ. eigenvalues --   -0.30474  -0.30284  -0.30060  -0.29963  -0.29696
 Alpha  occ. eigenvalues --   -0.29432  -0.29077  -0.28977  -0.28800  -0.28725
 Alpha  occ. eigenvalues --   -0.28424  -0.28346  -0.28295  -0.28003  -0.27848
 Alpha  occ. eigenvalues --   -0.27727  -0.27559  -0.27497  -0.26678  -0.26580
 Alpha  occ. eigenvalues --   -0.26542  -0.26469  -0.26167  -0.25825  -0.25719
 Alpha  occ. eigenvalues --   -0.25577  -0.23995  -0.23964  -0.23774  -0.23498
 Alpha  occ. eigenvalues --   -0.23443  -0.22261  -0.21790  -0.21450  -0.21019
 Alpha  occ. eigenvalues --   -0.20716  -0.19444  -0.18702  -0.18347  -0.17303
 Alpha  occ. eigenvalues --   -0.15826
 Alpha virt. eigenvalues --   -0.11685  -0.06957  -0.06271  -0.04912  -0.03466
 Alpha virt. eigenvalues --   -0.03196  -0.02543  -0.01797  -0.01588   0.00359
 Alpha virt. eigenvalues --    0.01331   0.01831   0.02016   0.02323   0.02762

 Mulliken charges:
               1
     1  Mg   0.718177
     2  C    0.063777
     3  C   -0.047260
     4  C   -0.016353
     5  C   -0.071359
     6  N   -0.204035
     7  C   -0.148967
     8  C    0.094998
     9  C   -0.011558
    10  C    0.002228
    11  C    0.137239
    12  C    0.144676
    13  C    0.096026
    14  C    0.065858
    15  O   -0.216060
    16  O   -0.242492
    17  N   -0.294370
    18  C    0.150042
    19  C   -0.128856
    20  C    0.058728
    21  C    0.107418
    22  C    0.144388
    23  C   -0.043056
    24  O   -0.180248
    25  C    0.101373
    26  N   -0.247996
    27  C   -0.006638
    28  C    0.006936
    29  C    0.046579
    30  C    0.046692
    31  C    0.137552
    32  C    0.053748
    33  C    0.073192
    34  N   -0.267237
    35  C    0.095491
    36  C   -0.211561
    37  C    0.185324
    38  C    0.018047
    39  C    0.194617
    40  C   -0.117624
    41  O   -0.142108
    42  C    0.071295
    43  C    0.093968
    44  O   -0.162692
    45  O   -0.284214
    46  C    0.215501
    47  C    0.340835
    48  C   -0.127839
    49  C   -0.202738
    50  C    0.164060
    51  C    0.132914
    52  C    0.083769
    53  C    0.071370
    54  C   -0.083643
    55  C    0.091651
    56  C    0.112524
    57  C    0.059114
    58  C    0.136217
    59  C   -0.088139
    60  C    0.137006
    61  C    0.133223
    62  C    0.124187
    63  C    0.031657
    64  C   -0.097325
    65  C    0.099843
    66  C    0.109668
    67  H   -0.063607
    68  H   -0.038060
    69  H   -0.069007
    70  H   -0.007116
    71  H   -0.030678
    72  H    0.003536
    73  H   -0.017206
    74  H   -0.007526
    75  H   -0.023325
    76  H   -0.009714
    77  H    0.000855
    78  H    0.016002
    79  H   -0.006439
    80  H    0.021577
    81  H   -0.024913
    82  H   -0.007664
    83  H   -0.007905
    84  H    0.011307
    85  H   -0.013253
    86  H   -0.027373
    87  H   -0.003187
    88  H   -0.022386
    89  H    0.003640
    90  H   -0.025572
    91  H   -0.027420
    92  H   -0.006855
    93  H   -0.008988
    94  H    0.003128
    95  H   -0.026564
    96  H    0.024052
    97  H    0.025248
    98  H    0.000668
    99  H    0.022027
   100  H   -0.011149
   101  H    0.019540
   102  H    0.002733
   103  H    0.006093
   104  H   -0.032538
   105  H   -0.008779
   106  H    0.008189
   107  H   -0.010191
   108  H   -0.024946
   109  H   -0.042205
   110  H   -0.019490
   111  H   -0.026647
   112  H   -0.037294
   113  H   -0.031930
   114  H   -0.032706
   115  H   -0.009926
   116  H   -0.018720
   117  H   -0.011356
   118  H   -0.031558
   119  H   -0.029617
   120  H   -0.028797
   121  H   -0.044885
   122  H   -0.039400
   123  H   -0.025457
   124  H   -0.038905
   125  H   -0.017204
   126  H   -0.015720
   127  H   -0.026177
   128  H   -0.044695
   129  H   -0.057349
   130  H   -0.022219
   131  H   -0.031915
   132  H   -0.032301
   133  H   -0.034541
   134  H   -0.032911
   135  H   -0.024569
   136  H   -0.013107
   137  H   -0.019653
   138  H   -0.031803
   139  H   -0.011817
   140  H   -0.028908
 Sum of Mulliken charges =  -0.00000

 Dipole moment (field-independent basis, Debye):
    X=              4.1134    Y=              1.8408    Z=             -4.0362  Tot=              6.0498
 Quadrupole moment (field-independent basis, Debye-Ang):
   XX=           -372.1852   YY=           -439.8068   ZZ=           -408.0052
   XY=            -22.0030   XZ=             12.4264   YZ=             12.2161

 Normal termination of Gaussian 16 at Wed May  4 03:07:29 2022.
