 Gaussian 16, Revision A.03,
 Gaussian 16:  ES64L-G16RevA.03 25-Dec-2016

 -----------------------------------
 #p cam-b3lyp/Def2SVP td=(nstates=5)
 -----------------------------------

 -------------------------------------------------------
 step_1251_chromophore_3 TDDFT with cam-b3lyp functional
 -------------------------------------------------------
 Symbolic Z-matrix:
 Charge =  0 Multiplicity = 1

                         Standard orientation:
 ---------------------------------------------------------------------
 Center     Atomic      Atomic             Coordinates (Angstroms)
 Number     Number       Type             X           Y           Z
 ---------------------------------------------------------------------
      1         12           0       -5.661918    0.777319   -0.310186
      2          6           0       -4.691871   -2.485256    0.218562
      3          6           0       -2.288033    1.584827   -0.105126
      4          6           0       -6.508397    4.158642   -0.134963
      5          6           0       -8.927998   -0.119722    0.335873
      6          7           0       -3.733609   -0.378568    0.012560
      7          6           0       -3.585311   -1.729542    0.024437
      8          6           0       -2.083852   -2.166109   -0.115605
      9          6           0       -1.348197   -0.848010    0.083242
     10          6           0       -2.498078    0.204301   -0.122880
     11          6           0       -0.745710   -0.657568    1.482375
     12          6           0       -1.721315   -3.131721   -1.285783
     13          6           0       -0.336428   -3.048644   -1.950924
     14          6           0        0.957622   -3.067622   -1.122756
     15          8           0        1.019562   -3.456797    0.045476
     16          8           0        2.003513   -2.600752   -1.804964
     17          7           0       -4.547208    2.601659   -0.134537
     18          6           0       -3.158511    2.696738   -0.058126
     19          6           0       -2.859366    4.161497    0.011386
     20          6           0       -4.059121    4.897181   -0.128102
     21          6           0       -5.092146    3.885983   -0.115233
     22          6           0       -1.396414    4.671946    0.080134
     23          6           0       -4.274113    6.397172   -0.061960
     24          8           0       -5.387996    6.940907    0.022301
     25          6           0       -3.075152    7.410225    0.216300
     26          7           0       -7.461709    1.843475   -0.166995
     27          6           0       -7.581778    3.228738   -0.133612
     28          6           0       -9.086640    3.692541   -0.048230
     29          6           0       -9.878987    2.343215    0.037089
     30          6           0       -8.681091    1.272442    0.120156
     31          6           0       -9.317637    4.554105    1.205477
     32          6           0      -11.005851    2.136082   -1.031679
     33          6           0      -12.466572    1.878704   -0.665299
     34          7           0       -6.641129   -0.894924    0.233993
     35          6           0       -7.982858   -1.160952    0.462932
     36          6           0       -8.260556   -2.571104    0.638745
     37          6           0       -7.008432   -3.168391    0.570787
     38          6           0       -6.047896   -2.078206    0.290057
     39          6           0       -9.574486   -3.300193    0.842854
     40          6           0       -6.258023   -4.337759    0.609859
     41          8           0       -6.610160   -5.494930    0.809973
     42          6           0       -4.761507   -3.979424    0.261770
     43          6           0       -4.006829   -4.646139    1.359769
     44          8           0       -3.956584   -4.407597    2.541263
     45          8           0       -3.269295   -5.715760    0.876341
     46          6           0       -2.310999   -6.348790    1.778778
     47          6           0        3.311469   -2.809326   -1.157479
     48          6           0        4.405263   -2.461476   -2.086735
     49          6           0        5.755704   -2.762457   -1.917050
     50          6           0        6.352911   -3.600285   -0.842039
     51          6           0        6.643198   -2.360501   -3.053727
     52          6           0        7.255678   -0.990583   -2.849548
     53          6           0        8.868801   -1.037582   -2.933294
     54          6           0        9.535883    0.192288   -2.179549
     55          6           0        9.731245   -0.298807   -0.732624
     56          6           0       10.825277    0.575180   -2.871265
     57          6           0       11.324839    1.967615   -2.326569
     58          6           0       12.830021    2.011976   -1.951503
     59          6           0       13.043761    2.425049   -0.503008
     60          6           0       14.226668    3.346974   -0.489648
     61          6           0       13.283042    1.224728    0.477512
     62          6           0       12.435057    1.160796    1.718723
     63          6           0       13.184523    1.664754    2.973281
     64          6           0       13.466605    0.463384    3.973373
     65          6           0       12.175257    0.153986    4.834251
     66          6           0       14.645784    0.890826    4.823775
     67          1           0       -1.219512    1.807270   -0.063801
     68          1           0       -6.926581    5.167631   -0.134267
     69          1           0       -9.938755   -0.530948    0.376069
     70          1           0       -2.057495   -2.813967    0.760541
     71          1           0       -0.552421   -0.691026   -0.645890
     72          1           0       -1.117680   -1.374037    2.214660
     73          1           0       -0.982912    0.333173    1.869486
     74          1           0        0.341297   -0.731555    1.475853
     75          1           0       -2.505033   -3.038038   -2.038113
     76          1           0       -1.765646   -4.148005   -0.895915
     77          1           0       -0.306006   -2.047697   -2.380682
     78          1           0       -0.175666   -3.838974   -2.684245
     79          1           0       -1.185168    5.362238    0.895667
     80          1           0       -1.010522    5.084094   -0.852202
     81          1           0       -0.782487    3.837725    0.418480
     82          1           0       -3.369491    8.447692    0.058674
     83          1           0       -2.124688    7.213042   -0.280892
     84          1           0       -2.894536    7.365942    1.290558
     85          1           0       -9.425612    4.147201   -0.978478
     86          1           0      -10.367208    2.244678    1.006261
     87          1           0       -8.404035    4.846320    1.725133
     88          1           0       -9.763003    3.909602    1.963663
     89          1           0       -9.886157    5.445126    0.940410
     90          1           0      -10.674248    1.334810   -1.692318
     91          1           0      -11.144146    2.986566   -1.699070
     92          1           0      -13.034974    2.512905   -1.344364
     93          1           0      -12.647309    2.206093    0.357772
     94          1           0      -12.647203    0.810207   -0.782448
     95          1           0      -10.400107   -2.589930    0.814156
     96          1           0       -9.466332   -3.647960    1.870552
     97          1           0       -9.695540   -4.061116    0.072061
     98          1           0       -4.477711   -4.359770   -0.719019
     99          1           0       -1.289189   -5.971061    1.752469
    100          1           0       -2.179958   -7.362932    1.401636
    101          1           0       -2.710031   -6.544689    2.774237
    102          1           0        3.477163   -3.812606   -0.765130
    103          1           0        3.482647   -2.162130   -0.297716
    104          1           0        4.130902   -2.052173   -3.058625
    105          1           0        5.639463   -4.357506   -0.516437
    106          1           0        6.637050   -3.010108    0.028934
    107          1           0        7.252457   -4.082783   -1.222954
    108          1           0        6.022735   -2.492579   -3.939431
    109          1           0        7.507573   -3.018992   -3.130094
    110          1           0        6.890015   -0.577558   -1.910131
    111          1           0        6.813651   -0.427135   -3.671223
    112          1           0        9.164251   -1.087267   -3.981409
    113          1           0        9.178745   -1.988650   -2.502375
    114          1           0        8.806916    1.000357   -2.117816
    115          1           0       10.618878   -0.895579   -0.520957
    116          1           0        8.870545   -0.908655   -0.458162
    117          1           0        9.809100    0.621309   -0.153022
    118          1           0       10.712668    0.731904   -3.944536
    119          1           0       11.496372   -0.258760   -2.670183
    120          1           0       10.624174    2.361005   -1.590228
    121          1           0       11.131604    2.630822   -3.169275
    122          1           0       13.226379    2.762278   -2.635059
    123          1           0       13.317313    1.061951   -2.168834
    124          1           0       12.178143    2.994270   -0.162205
    125          1           0       14.785143    3.173528   -1.408977
    126          1           0       14.768489    3.200876    0.445404
    127          1           0       13.803851    4.348829   -0.555538
    128          1           0       14.312375    1.093042    0.810250
    129          1           0       13.198106    0.308998   -0.107625
    130          1           0       11.993283    0.213362    2.026984
    131          1           0       11.664279    1.931480    1.695549
    132          1           0       12.750988    2.491712    3.535701
    133          1           0       14.176850    2.065930    2.764386
    134          1           0       13.779839   -0.454918    3.475892
    135          1           0       12.442570    0.010374    5.880769
    136          1           0       11.598082   -0.730262    4.566044
    137          1           0       11.478628    0.992576    4.837224
    138          1           0       14.506129    0.753183    5.895252
    139          1           0       15.032197    1.893692    4.642209
    140          1           0       15.472094    0.201351    4.647602
 ---------------------------------------------------------------------

 SCF Done:  E(RCAM-B3LYP) =  -3007.15870620     A.U. after   17 cycles

 Excitation energies and oscillator strengths:

 Excited State   1:      Singlet-A      1.6631 eV  745.49 nm  f=0.3824  <S**2>=0.000
     245 -> 248       -0.17469
     246 -> 247        0.68697
     245 <- 248       -0.10840
 This state for optimization and/or second-order correction.
 Total Energy, E(TD-HF/TD-DFT) =  -3007.09758737
 Copying the excited state density for this state as the 1-particle RhoCI density.

 Excited State   2:      Singlet-A      2.2047 eV  562.37 nm  f=0.1218  <S**2>=0.000
     245 -> 247        0.64211
     246 -> 248        0.28514

 Excited State   3:      Singlet-A      3.4035 eV  364.29 nm  f=0.0007  <S**2>=0.000
     242 -> 247        0.54135
     242 -> 249        0.25732
     242 -> 251       -0.24236
     243 -> 247       -0.23446

 Excited State   4:      Singlet-A      3.4497 eV  359.41 nm  f=0.0856  <S**2>=0.000
     240 -> 249       -0.10303
     242 -> 247        0.19921
     243 -> 247        0.55004
     245 -> 247        0.10059
     246 -> 248       -0.30812

 Excited State   5:      Singlet-A      3.5553 eV  348.74 nm  f=0.4552  <S**2>=0.000
     240 -> 247        0.27017
     240 -> 249       -0.19277
     240 -> 251       -0.11738
     243 -> 247        0.18745
     245 -> 247       -0.22304
     246 -> 248        0.49187

 The electronic state is 1-A.
 Alpha  occ. eigenvalues --  -46.88986 -19.26851 -19.23216 -19.19975 -19.19213
 Alpha  occ. eigenvalues --  -19.18728 -19.18017 -14.42429 -14.42067 -14.39995
 Alpha  occ. eigenvalues --  -14.39728 -10.40037 -10.38261 -10.36161 -10.33974
 Alpha  occ. eigenvalues --  -10.32850 -10.31545 -10.31126 -10.31111 -10.30782
 Alpha  occ. eigenvalues --  -10.30733 -10.30637 -10.30201 -10.29796 -10.29436
 Alpha  occ. eigenvalues --  -10.29323 -10.28526 -10.28448 -10.28382 -10.28098
 Alpha  occ. eigenvalues --  -10.27850 -10.27756 -10.27648 -10.27547 -10.27544
 Alpha  occ. eigenvalues --  -10.27325 -10.27174 -10.27100 -10.27080 -10.27024
 Alpha  occ. eigenvalues --  -10.26617 -10.26549 -10.26529 -10.26253 -10.26195
 Alpha  occ. eigenvalues --  -10.26071 -10.25975 -10.25815 -10.25545 -10.25531
 Alpha  occ. eigenvalues --  -10.25520 -10.25353 -10.25260 -10.25113 -10.25081
 Alpha  occ. eigenvalues --  -10.25011 -10.24837 -10.24776 -10.24758 -10.24639
 Alpha  occ. eigenvalues --  -10.24636 -10.24581 -10.24558 -10.24510 -10.23917
 Alpha  occ. eigenvalues --  -10.23806  -3.17554  -1.92433  -1.91978  -1.91893
 Alpha  occ. eigenvalues --   -1.18287  -1.15302  -1.09199  -1.09006  -1.08020
 Alpha  occ. eigenvalues --   -1.06261  -1.04525  -1.03308  -1.02214  -1.01330
 Alpha  occ. eigenvalues --   -0.92845  -0.91249  -0.90409  -0.89763  -0.88918
 Alpha  occ. eigenvalues --   -0.88373  -0.88197  -0.87720  -0.87130  -0.86910
 Alpha  occ. eigenvalues --   -0.86325  -0.86067  -0.84617  -0.83792  -0.83379
 Alpha  occ. eigenvalues --   -0.82866  -0.81862  -0.81355  -0.80359  -0.80159
 Alpha  occ. eigenvalues --   -0.79651  -0.78753  -0.78291  -0.76734  -0.76083
 Alpha  occ. eigenvalues --   -0.75807  -0.75508  -0.74966  -0.74793  -0.74413
 Alpha  occ. eigenvalues --   -0.73315  -0.72893  -0.71375  -0.70663  -0.68801
 Alpha  occ. eigenvalues --   -0.68297  -0.68047  -0.67196  -0.66799  -0.65863
 Alpha  occ. eigenvalues --   -0.65482  -0.65192  -0.64841  -0.64369  -0.64263
 Alpha  occ. eigenvalues --   -0.64175  -0.63447  -0.63033  -0.61029  -0.60072
 Alpha  occ. eigenvalues --   -0.59893  -0.59580  -0.59099  -0.58584  -0.57852
 Alpha  occ. eigenvalues --   -0.57663  -0.57078  -0.56506  -0.55994  -0.55149
 Alpha  occ. eigenvalues --   -0.55115  -0.54693  -0.54531  -0.54031  -0.53864
 Alpha  occ. eigenvalues --   -0.53775  -0.53435  -0.53023  -0.52965  -0.52542
 Alpha  occ. eigenvalues --   -0.52407  -0.52246  -0.52204  -0.51841  -0.51747
 Alpha  occ. eigenvalues --   -0.51556  -0.51528  -0.51344  -0.50873  -0.50721
 Alpha  occ. eigenvalues --   -0.50325  -0.49921  -0.49750  -0.49546  -0.49297
 Alpha  occ. eigenvalues --   -0.49256  -0.49149  -0.48866  -0.48744  -0.48632
 Alpha  occ. eigenvalues --   -0.48444  -0.48393  -0.48270  -0.48122  -0.47706
 Alpha  occ. eigenvalues --   -0.47639  -0.47516  -0.47195  -0.46735  -0.46655
 Alpha  occ. eigenvalues --   -0.46230  -0.45936  -0.45869  -0.45676  -0.45585
 Alpha  occ. eigenvalues --   -0.45367  -0.45200  -0.45191  -0.45001  -0.44836
 Alpha  occ. eigenvalues --   -0.44705  -0.44525  -0.44297  -0.44221  -0.44016
 Alpha  occ. eigenvalues --   -0.43925  -0.43753  -0.43511  -0.43261  -0.43134
 Alpha  occ. eigenvalues --   -0.43032  -0.42739  -0.42585  -0.42365  -0.42173
 Alpha  occ. eigenvalues --   -0.42055  -0.41698  -0.41505  -0.41310  -0.40849
 Alpha  occ. eigenvalues --   -0.40762  -0.40257  -0.40129  -0.40064  -0.39784
 Alpha  occ. eigenvalues --   -0.39727  -0.39318  -0.39291  -0.39254  -0.38852
 Alpha  occ. eigenvalues --   -0.38632  -0.38618  -0.38456  -0.38032  -0.37841
 Alpha  occ. eigenvalues --   -0.37472  -0.37232  -0.36763  -0.36504  -0.36434
 Alpha  occ. eigenvalues --   -0.36397  -0.35329  -0.34608  -0.34414  -0.33977
 Alpha  occ. eigenvalues --   -0.33855  -0.33559  -0.32825  -0.31369  -0.31097
 Alpha  occ. eigenvalues --   -0.30717  -0.30462  -0.30116  -0.28922  -0.24045
 Alpha  occ. eigenvalues --   -0.21071
 Alpha virt. eigenvalues --   -0.08808  -0.01589   0.00062   0.01592   0.02010
 Alpha virt. eigenvalues --    0.04236   0.05309   0.05566   0.06237   0.07048
 Alpha virt. eigenvalues --    0.07937   0.08138   0.08507   0.08919   0.09009

 Mulliken charges:
               1
     1  Mg   0.847119
     2  C    0.030626
     3  C   -0.070207
     4  C   -0.038459
     5  C   -0.078155
     6  N   -0.270740
     7  C   -0.102215
     8  C    0.046355
     9  C   -0.067975
    10  C    0.025931
    11  C    0.081851
    12  C    0.097970
    13  C    0.025970
    14  C    0.142353
    15  O   -0.256377
    16  O   -0.306339
    17  N   -0.377905
    18  C    0.158781
    19  C   -0.136086
    20  C   -0.007273
    21  C    0.132235
    22  C    0.090344
    23  C    0.027502
    24  O   -0.220120
    25  C    0.030896
    26  N   -0.321015
    27  C    0.015587
    28  C   -0.047531
    29  C   -0.002060
    30  C    0.064028
    31  C    0.074306
    32  C   -0.004336
    33  C    0.014181
    34  N   -0.356388
    35  C    0.097440
    36  C   -0.204848
    37  C    0.101896
    38  C    0.058022
    39  C    0.147884
    40  C   -0.018437
    41  O   -0.181623
    42  C   -0.009803
    43  C    0.182566
    44  O   -0.199292
    45  O   -0.348021
    46  C    0.177466
    47  C    0.307074
    48  C   -0.145559
    49  C   -0.222712
    50  C    0.100351
    51  C    0.070204
    52  C    0.031447
    53  C    0.019191
    54  C   -0.141736
    55  C    0.044348
    56  C    0.061727
    57  C    0.005048
    58  C    0.076240
    59  C   -0.142966
    60  C    0.078691
    61  C    0.078278
    62  C    0.063527
    63  C   -0.015499
    64  C   -0.155556
    65  C    0.040360
    66  C    0.046582
    67  H   -0.029222
    68  H    0.003396
    69  H   -0.035204
    70  H    0.027325
    71  H    0.001894
    72  H    0.029545
    73  H    0.009031
    74  H    0.016969
    75  H    0.007989
    76  H    0.020249
    77  H    0.031421
    78  H    0.047949
    79  H    0.020518
    80  H    0.046886
    81  H    0.002800
    82  H    0.026700
    83  H    0.019599
    84  H    0.038411
    85  H    0.021134
    86  H    0.006136
    87  H    0.023768
    88  H    0.003615
    89  H    0.028122
    90  H    0.004367
    91  H    0.000762
    92  H    0.016600
    93  H    0.013437
    94  H    0.024151
    95  H   -0.001966
    96  H    0.049973
    97  H    0.050357
    98  H    0.044167
    99  H    0.041469
   100  H    0.012340
   101  H    0.044916
   102  H    0.030352
   103  H    0.033709
   104  H    0.003273
   105  H    0.015834
   106  H    0.031999
   107  H    0.015057
   108  H    0.006428
   109  H   -0.011609
   110  H    0.007698
   111  H    0.002358
   112  H   -0.007291
   113  H   -0.006151
   114  H   -0.001338
   115  H    0.011406
   116  H    0.002049
   117  H    0.009381
   118  H   -0.001473
   119  H   -0.003897
   120  H   -0.002353
   121  H   -0.013867
   122  H   -0.007218
   123  H    0.002741
   124  H   -0.007100
   125  H    0.007212
   126  H    0.006955
   127  H   -0.000823
   128  H   -0.014463
   129  H   -0.028213
   130  H    0.005232
   131  H   -0.004039
   132  H   -0.003421
   133  H   -0.009139
   134  H   -0.001080
   135  H   -0.000005
   136  H    0.010396
   137  H    0.003978
   138  H   -0.005899
   139  H    0.011996
   140  H   -0.003427
 Sum of Mulliken charges =  -0.00000

 Dipole moment (field-independent basis, Debye):
    X=              4.5562    Y=              2.4053    Z=             -4.2025  Tot=              6.6487
 Quadrupole moment (field-independent basis, Debye-Ang):
   XX=           -372.7072   YY=           -435.5912   ZZ=           -407.8982
   XY=            -23.9321   XZ=             13.7311   YZ=             12.9084

 Normal termination of Gaussian 16 at Wed May  4 02:10:58 2022.
