 Gaussian 16, Revision A.03,
 Gaussian 16:  ES64L-G16RevA.03 25-Dec-2016

 ---------------------------------
 #p PBE1PBE/Def2SVP td=(nstates=5)
 ---------------------------------

 -----------------------------------------------------
 step_1251_chromophore_3 TDDFT with PBE1PBE functional
 -----------------------------------------------------
 Symbolic Z-matrix:
 Charge =  0 Multiplicity = 1

                         Standard orientation:
 ---------------------------------------------------------------------
 Center     Atomic      Atomic             Coordinates (Angstroms)
 Number     Number       Type             X           Y           Z
 ---------------------------------------------------------------------
      1         12           0       -5.661918    0.777319   -0.310186
      2          6           0       -4.691871   -2.485256    0.218562
      3          6           0       -2.288033    1.584827   -0.105126
      4          6           0       -6.508397    4.158642   -0.134963
      5          6           0       -8.927998   -0.119722    0.335873
      6          7           0       -3.733609   -0.378568    0.012560
      7          6           0       -3.585311   -1.729542    0.024437
      8          6           0       -2.083852   -2.166109   -0.115605
      9          6           0       -1.348197   -0.848010    0.083242
     10          6           0       -2.498078    0.204301   -0.122880
     11          6           0       -0.745710   -0.657568    1.482375
     12          6           0       -1.721315   -3.131721   -1.285783
     13          6           0       -0.336428   -3.048644   -1.950924
     14          6           0        0.957622   -3.067622   -1.122756
     15          8           0        1.019562   -3.456797    0.045476
     16          8           0        2.003513   -2.600752   -1.804964
     17          7           0       -4.547208    2.601659   -0.134537
     18          6           0       -3.158511    2.696738   -0.058126
     19          6           0       -2.859366    4.161497    0.011386
     20          6           0       -4.059121    4.897181   -0.128102
     21          6           0       -5.092146    3.885983   -0.115233
     22          6           0       -1.396414    4.671946    0.080134
     23          6           0       -4.274113    6.397172   -0.061960
     24          8           0       -5.387996    6.940907    0.022301
     25          6           0       -3.075152    7.410225    0.216300
     26          7           0       -7.461709    1.843475   -0.166995
     27          6           0       -7.581778    3.228738   -0.133612
     28          6           0       -9.086640    3.692541   -0.048230
     29          6           0       -9.878987    2.343215    0.037089
     30          6           0       -8.681091    1.272442    0.120156
     31          6           0       -9.317637    4.554105    1.205477
     32          6           0      -11.005851    2.136082   -1.031679
     33          6           0      -12.466572    1.878704   -0.665299
     34          7           0       -6.641129   -0.894924    0.233993
     35          6           0       -7.982858   -1.160952    0.462932
     36          6           0       -8.260556   -2.571104    0.638745
     37          6           0       -7.008432   -3.168391    0.570787
     38          6           0       -6.047896   -2.078206    0.290057
     39          6           0       -9.574486   -3.300193    0.842854
     40          6           0       -6.258023   -4.337759    0.609859
     41          8           0       -6.610160   -5.494930    0.809973
     42          6           0       -4.761507   -3.979424    0.261770
     43          6           0       -4.006829   -4.646139    1.359769
     44          8           0       -3.956584   -4.407597    2.541263
     45          8           0       -3.269295   -5.715760    0.876341
     46          6           0       -2.310999   -6.348790    1.778778
     47          6           0        3.311469   -2.809326   -1.157479
     48          6           0        4.405263   -2.461476   -2.086735
     49          6           0        5.755704   -2.762457   -1.917050
     50          6           0        6.352911   -3.600285   -0.842039
     51          6           0        6.643198   -2.360501   -3.053727
     52          6           0        7.255678   -0.990583   -2.849548
     53          6           0        8.868801   -1.037582   -2.933294
     54          6           0        9.535883    0.192288   -2.179549
     55          6           0        9.731245   -0.298807   -0.732624
     56          6           0       10.825277    0.575180   -2.871265
     57          6           0       11.324839    1.967615   -2.326569
     58          6           0       12.830021    2.011976   -1.951503
     59          6           0       13.043761    2.425049   -0.503008
     60          6           0       14.226668    3.346974   -0.489648
     61          6           0       13.283042    1.224728    0.477512
     62          6           0       12.435057    1.160796    1.718723
     63          6           0       13.184523    1.664754    2.973281
     64          6           0       13.466605    0.463384    3.973373
     65          6           0       12.175257    0.153986    4.834251
     66          6           0       14.645784    0.890826    4.823775
     67          1           0       -1.219512    1.807270   -0.063801
     68          1           0       -6.926581    5.167631   -0.134267
     69          1           0       -9.938755   -0.530948    0.376069
     70          1           0       -2.057495   -2.813967    0.760541
     71          1           0       -0.552421   -0.691026   -0.645890
     72          1           0       -1.117680   -1.374037    2.214660
     73          1           0       -0.982912    0.333173    1.869486
     74          1           0        0.341297   -0.731555    1.475853
     75          1           0       -2.505033   -3.038038   -2.038113
     76          1           0       -1.765646   -4.148005   -0.895915
     77          1           0       -0.306006   -2.047697   -2.380682
     78          1           0       -0.175666   -3.838974   -2.684245
     79          1           0       -1.185168    5.362238    0.895667
     80          1           0       -1.010522    5.084094   -0.852202
     81          1           0       -0.782487    3.837725    0.418480
     82          1           0       -3.369491    8.447692    0.058674
     83          1           0       -2.124688    7.213042   -0.280892
     84          1           0       -2.894536    7.365942    1.290558
     85          1           0       -9.425612    4.147201   -0.978478
     86          1           0      -10.367208    2.244678    1.006261
     87          1           0       -8.404035    4.846320    1.725133
     88          1           0       -9.763003    3.909602    1.963663
     89          1           0       -9.886157    5.445126    0.940410
     90          1           0      -10.674248    1.334810   -1.692318
     91          1           0      -11.144146    2.986566   -1.699070
     92          1           0      -13.034974    2.512905   -1.344364
     93          1           0      -12.647309    2.206093    0.357772
     94          1           0      -12.647203    0.810207   -0.782448
     95          1           0      -10.400107   -2.589930    0.814156
     96          1           0       -9.466332   -3.647960    1.870552
     97          1           0       -9.695540   -4.061116    0.072061
     98          1           0       -4.477711   -4.359770   -0.719019
     99          1           0       -1.289189   -5.971061    1.752469
    100          1           0       -2.179958   -7.362932    1.401636
    101          1           0       -2.710031   -6.544689    2.774237
    102          1           0        3.477163   -3.812606   -0.765130
    103          1           0        3.482647   -2.162130   -0.297716
    104          1           0        4.130902   -2.052173   -3.058625
    105          1           0        5.639463   -4.357506   -0.516437
    106          1           0        6.637050   -3.010108    0.028934
    107          1           0        7.252457   -4.082783   -1.222954
    108          1           0        6.022735   -2.492579   -3.939431
    109          1           0        7.507573   -3.018992   -3.130094
    110          1           0        6.890015   -0.577558   -1.910131
    111          1           0        6.813651   -0.427135   -3.671223
    112          1           0        9.164251   -1.087267   -3.981409
    113          1           0        9.178745   -1.988650   -2.502375
    114          1           0        8.806916    1.000357   -2.117816
    115          1           0       10.618878   -0.895579   -0.520957
    116          1           0        8.870545   -0.908655   -0.458162
    117          1           0        9.809100    0.621309   -0.153022
    118          1           0       10.712668    0.731904   -3.944536
    119          1           0       11.496372   -0.258760   -2.670183
    120          1           0       10.624174    2.361005   -1.590228
    121          1           0       11.131604    2.630822   -3.169275
    122          1           0       13.226379    2.762278   -2.635059
    123          1           0       13.317313    1.061951   -2.168834
    124          1           0       12.178143    2.994270   -0.162205
    125          1           0       14.785143    3.173528   -1.408977
    126          1           0       14.768489    3.200876    0.445404
    127          1           0       13.803851    4.348829   -0.555538
    128          1           0       14.312375    1.093042    0.810250
    129          1           0       13.198106    0.308998   -0.107625
    130          1           0       11.993283    0.213362    2.026984
    131          1           0       11.664279    1.931480    1.695549
    132          1           0       12.750988    2.491712    3.535701
    133          1           0       14.176850    2.065930    2.764386
    134          1           0       13.779839   -0.454918    3.475892
    135          1           0       12.442570    0.010374    5.880769
    136          1           0       11.598082   -0.730262    4.566044
    137          1           0       11.478628    0.992576    4.837224
    138          1           0       14.506129    0.753183    5.895252
    139          1           0       15.032197    1.893692    4.642209
    140          1           0       15.472094    0.201351    4.647602
 ---------------------------------------------------------------------

 SCF Done:  E(RPBE1PBE) =  -3005.34783483     A.U. after   15 cycles

 Excitation energies and oscillator strengths:

 Excited State   1:      Singlet-A      1.8236 eV  679.90 nm  f=0.3678  <S**2>=0.000
     245 -> 248       -0.16188
     246 -> 247        0.69504
     246 <- 247       -0.11250
 This state for optimization and/or second-order correction.
 Total Energy, E(TD-HF/TD-DFT) =  -3005.28082000
 Copying the excited state density for this state as the 1-particle RhoCI density.

 Excited State   2:      Singlet-A      2.2081 eV  561.50 nm  f=0.1217  <S**2>=0.000
     245 -> 247        0.65426
     246 -> 248        0.25367

 Excited State   3:      Singlet-A      2.8868 eV  429.49 nm  f=0.0003  <S**2>=0.000
     243 -> 247        0.67212
     243 -> 249       -0.14952
     243 -> 250       -0.12384

 Excited State   4:      Singlet-A      3.0400 eV  407.84 nm  f=0.0011  <S**2>=0.000
     241 -> 247        0.18467
     241 -> 249        0.10122
     242 -> 247        0.64134
     242 -> 249        0.12106

 Excited State   5:      Singlet-A      3.1857 eV  389.19 nm  f=0.0014  <S**2>=0.000
     241 -> 247        0.64456
     242 -> 247       -0.21045
     246 -> 248        0.11291

 The electronic state is 1-A.
 Alpha  occ. eigenvalues --  -46.92430 -19.27532 -19.23891 -19.20272 -19.19384
 Alpha  occ. eigenvalues --  -19.18943 -19.18321 -14.41982 -14.41589 -14.39671
 Alpha  occ. eigenvalues --  -14.39390 -10.37087 -10.35296 -10.33275 -10.31148
 Alpha  occ. eigenvalues --  -10.30268 -10.29419 -10.28875 -10.28834 -10.28447
 Alpha  occ. eigenvalues --  -10.28399 -10.28394 -10.27616 -10.27459 -10.27087
 Alpha  occ. eigenvalues --  -10.27072 -10.26162 -10.26154 -10.26044 -10.25907
 Alpha  occ. eigenvalues --  -10.25747 -10.25593 -10.25278 -10.25170 -10.25154
 Alpha  occ. eigenvalues --  -10.25004 -10.24835 -10.24806 -10.24746 -10.24471
 Alpha  occ. eigenvalues --  -10.24238 -10.24080 -10.23901 -10.23830 -10.23730
 Alpha  occ. eigenvalues --  -10.23664 -10.23504 -10.23419 -10.23147 -10.23100
 Alpha  occ. eigenvalues --  -10.22994 -10.22857 -10.22813 -10.22789 -10.22724
 Alpha  occ. eigenvalues --  -10.22643 -10.22386 -10.22342 -10.22324 -10.22223
 Alpha  occ. eigenvalues --  -10.22111 -10.22094 -10.22011 -10.21912 -10.21312
 Alpha  occ. eigenvalues --  -10.21182  -3.14573  -1.87391  -1.86916  -1.86835
 Alpha  occ. eigenvalues --   -1.13138  -1.10074  -1.03867  -1.03799  -1.02881
 Alpha  occ. eigenvalues --   -1.01107  -0.99222  -0.97953  -0.96824  -0.95968
 Alpha  occ. eigenvalues --   -0.87239  -0.85399  -0.84501  -0.83978  -0.83021
 Alpha  occ. eigenvalues --   -0.82694  -0.82530  -0.81831  -0.81465  -0.81240
 Alpha  occ. eigenvalues --   -0.80560  -0.80322  -0.78835  -0.78092  -0.77592
 Alpha  occ. eigenvalues --   -0.77141  -0.76083  -0.75657  -0.74521  -0.74504
 Alpha  occ. eigenvalues --   -0.73771  -0.73013  -0.72507  -0.71061  -0.70385
 Alpha  occ. eigenvalues --   -0.70031  -0.69586  -0.69172  -0.69064  -0.68566
 Alpha  occ. eigenvalues --   -0.67682  -0.67313  -0.65755  -0.65039  -0.63293
 Alpha  occ. eigenvalues --   -0.62677  -0.62330  -0.61619  -0.61063  -0.60247
 Alpha  occ. eigenvalues --   -0.59739  -0.59713  -0.59275  -0.58940  -0.58708
 Alpha  occ. eigenvalues --   -0.58365  -0.57615  -0.57210  -0.55630  -0.54553
 Alpha  occ. eigenvalues --   -0.54419  -0.54161  -0.53609  -0.53198  -0.52289
 Alpha  occ. eigenvalues --   -0.52088  -0.51721  -0.50978  -0.50617  -0.49782
 Alpha  occ. eigenvalues --   -0.49599  -0.49262  -0.49104  -0.48465  -0.48411
 Alpha  occ. eigenvalues --   -0.48186  -0.47868  -0.47632  -0.47441  -0.47107
 Alpha  occ. eigenvalues --   -0.47040  -0.46840  -0.46742  -0.46378  -0.46316
 Alpha  occ. eigenvalues --   -0.46098  -0.46047  -0.45655  -0.45391  -0.45288
 Alpha  occ. eigenvalues --   -0.44997  -0.44468  -0.44342  -0.44125  -0.43946
 Alpha  occ. eigenvalues --   -0.43895  -0.43754  -0.43385  -0.43358  -0.43192
 Alpha  occ. eigenvalues --   -0.43060  -0.43015  -0.42935  -0.42755  -0.42299
 Alpha  occ. eigenvalues --   -0.42228  -0.42177  -0.41881  -0.41319  -0.41256
 Alpha  occ. eigenvalues --   -0.40964  -0.40638  -0.40516  -0.40433  -0.40221
 Alpha  occ. eigenvalues --   -0.40176  -0.39966  -0.39775  -0.39748  -0.39612
 Alpha  occ. eigenvalues --   -0.39463  -0.39249  -0.39128  -0.38965  -0.38878
 Alpha  occ. eigenvalues --   -0.38682  -0.38415  -0.38329  -0.38137  -0.37977
 Alpha  occ. eigenvalues --   -0.37793  -0.37470  -0.37449  -0.37094  -0.36990
 Alpha  occ. eigenvalues --   -0.36820  -0.36486  -0.36350  -0.36178  -0.35662
 Alpha  occ. eigenvalues --   -0.35595  -0.35076  -0.34973  -0.34882  -0.34706
 Alpha  occ. eigenvalues --   -0.34545  -0.34232  -0.34161  -0.34054  -0.33658
 Alpha  occ. eigenvalues --   -0.33598  -0.33353  -0.33251  -0.33013  -0.32861
 Alpha  occ. eigenvalues --   -0.32263  -0.32020  -0.31856  -0.31513  -0.31325
 Alpha  occ. eigenvalues --   -0.31219  -0.30260  -0.29842  -0.29338  -0.28876
 Alpha  occ. eigenvalues --   -0.28845  -0.28680  -0.28043  -0.26989  -0.26435
 Alpha  occ. eigenvalues --   -0.25989  -0.25548  -0.25320  -0.24269  -0.20982
 Alpha  occ. eigenvalues --   -0.18737
 Alpha virt. eigenvalues --   -0.11278  -0.05150  -0.04111  -0.02395  -0.01174
 Alpha virt. eigenvalues --   -0.00192   0.00734   0.01020   0.01520   0.03381
 Alpha virt. eigenvalues --    0.04266   0.04728   0.04872   0.05160   0.05635

 Mulliken charges:
               1
     1  Mg   0.993180
     2  C    0.013354
     3  C   -0.080442
     4  C   -0.029704
     5  C   -0.073490
     6  N   -0.367337
     7  C   -0.022730
     8  C   -0.013283
     9  C   -0.157732
    10  C    0.069220
    11  C    0.030592
    12  C    0.048331
    13  C   -0.056749
    14  C    0.212023
    15  O   -0.288539
    16  O   -0.339766
    17  N   -0.487059
    18  C    0.185972
    19  C   -0.166436
    20  C   -0.052387
    21  C    0.160830
    22  C    0.035740
    23  C    0.072839
    24  O   -0.254596
    25  C   -0.041717
    26  N   -0.422585
    27  C    0.051165
    28  C   -0.132053
    29  C   -0.064771
    30  C    0.096487
    31  C    0.018176
    32  C   -0.063182
    33  C   -0.058950
    34  N   -0.485332
    35  C    0.114452
    36  C   -0.214761
    37  C    0.053502
    38  C    0.111911
    39  C    0.093246
    40  C    0.074626
    41  O   -0.226549
    42  C   -0.123959
    43  C    0.275966
    44  O   -0.236605
    45  O   -0.381734
    46  C    0.122769
    47  C    0.267767
    48  C   -0.155220
    49  C   -0.267060
    50  C    0.037665
    51  C    0.002898
    52  C   -0.023566
    53  C   -0.038318
    54  C   -0.232954
    55  C   -0.014060
    56  C    0.009719
    57  C   -0.052021
    58  C    0.018725
    59  C   -0.228671
    60  C    0.014861
    61  C    0.027712
    62  C   -0.003693
    63  C   -0.068802
    64  C   -0.248514
    65  C   -0.016957
    66  C   -0.011942
    67  H    0.003636
    68  H    0.035113
    69  H   -0.000707
    70  H    0.071052
    71  H    0.040290
    72  H    0.055950
    73  H    0.037634
    74  H    0.044236
    75  H    0.040894
    76  H    0.054510
    77  H    0.064057
    78  H    0.079697
    79  H    0.047611
    80  H    0.073178
    81  H    0.030119
    82  H    0.053743
    83  H    0.045159
    84  H    0.065469
    85  H    0.057468
    86  H    0.044087
    87  H    0.051516
    88  H    0.031151
    89  H    0.055376
    90  H    0.037857
    91  H    0.032639
    92  H    0.044190
    93  H    0.041247
    94  H    0.051061
    95  H    0.025918
    96  H    0.077676
    97  H    0.076673
    98  H    0.080618
    99  H    0.062327
   100  H    0.035235
   101  H    0.066428
   102  H    0.056209
   103  H    0.060794
   104  H    0.033189
   105  H    0.042961
   106  H    0.059141
   107  H    0.041115
   108  H    0.038215
   109  H    0.022216
   110  H    0.039371
   111  H    0.035695
   112  H    0.025373
   113  H    0.025977
   114  H    0.035967
   115  H    0.038295
   116  H    0.032455
   117  H    0.039106
   118  H    0.031036
   119  H    0.027358
   120  H    0.027260
   121  H    0.020073
   122  H    0.026302
   123  H    0.033781
   124  H    0.029862
   125  H    0.035048
   126  H    0.035613
   127  H    0.028362
   128  H    0.017652
   129  H    0.005292
   130  H    0.037585
   131  H    0.028371
   132  H    0.028139
   133  H    0.024127
   134  H    0.035949
   135  H    0.027336
   136  H    0.037051
   137  H    0.030982
   138  H    0.021338
   139  H    0.037982
   140  H    0.024812
 Sum of Mulliken charges =  -0.00000

 Dipole moment (field-independent basis, Debye):
    X=              4.4307    Y=              2.2539    Z=             -4.1751  Tot=              6.4917
 Quadrupole moment (field-independent basis, Debye-Ang):
   XX=           -365.7151   YY=           -433.2977   ZZ=           -405.3967
   XY=            -24.0128   XZ=             13.8434   YZ=             12.8740

 Normal termination of Gaussian 16 at Wed May  4 02:30:42 2022.
