 Gaussian 16, Revision A.03,
 Gaussian 16:  ES64L-G16RevA.03 25-Dec-2016

 --------------------------------
 #p wB97XD/Def2SVP td=(nstates=5)
 --------------------------------

 ----------------------------------------------------
 step_1251_chromophore_3 TDDFT with wB97XD functional
 ----------------------------------------------------
 Symbolic Z-matrix:
 Charge =  0 Multiplicity = 1

                         Standard orientation:
 ---------------------------------------------------------------------
 Center     Atomic      Atomic             Coordinates (Angstroms)
 Number     Number       Type             X           Y           Z
 ---------------------------------------------------------------------
      1         12           0       -5.661918    0.777319   -0.310186
      2          6           0       -4.691871   -2.485256    0.218562
      3          6           0       -2.288033    1.584827   -0.105126
      4          6           0       -6.508397    4.158642   -0.134963
      5          6           0       -8.927998   -0.119722    0.335873
      6          7           0       -3.733609   -0.378568    0.012560
      7          6           0       -3.585311   -1.729542    0.024437
      8          6           0       -2.083852   -2.166109   -0.115605
      9          6           0       -1.348197   -0.848010    0.083242
     10          6           0       -2.498078    0.204301   -0.122880
     11          6           0       -0.745710   -0.657568    1.482375
     12          6           0       -1.721315   -3.131721   -1.285783
     13          6           0       -0.336428   -3.048644   -1.950924
     14          6           0        0.957622   -3.067622   -1.122756
     15          8           0        1.019562   -3.456797    0.045476
     16          8           0        2.003513   -2.600752   -1.804964
     17          7           0       -4.547208    2.601659   -0.134537
     18          6           0       -3.158511    2.696738   -0.058126
     19          6           0       -2.859366    4.161497    0.011386
     20          6           0       -4.059121    4.897181   -0.128102
     21          6           0       -5.092146    3.885983   -0.115233
     22          6           0       -1.396414    4.671946    0.080134
     23          6           0       -4.274113    6.397172   -0.061960
     24          8           0       -5.387996    6.940907    0.022301
     25          6           0       -3.075152    7.410225    0.216300
     26          7           0       -7.461709    1.843475   -0.166995
     27          6           0       -7.581778    3.228738   -0.133612
     28          6           0       -9.086640    3.692541   -0.048230
     29          6           0       -9.878987    2.343215    0.037089
     30          6           0       -8.681091    1.272442    0.120156
     31          6           0       -9.317637    4.554105    1.205477
     32          6           0      -11.005851    2.136082   -1.031679
     33          6           0      -12.466572    1.878704   -0.665299
     34          7           0       -6.641129   -0.894924    0.233993
     35          6           0       -7.982858   -1.160952    0.462932
     36          6           0       -8.260556   -2.571104    0.638745
     37          6           0       -7.008432   -3.168391    0.570787
     38          6           0       -6.047896   -2.078206    0.290057
     39          6           0       -9.574486   -3.300193    0.842854
     40          6           0       -6.258023   -4.337759    0.609859
     41          8           0       -6.610160   -5.494930    0.809973
     42          6           0       -4.761507   -3.979424    0.261770
     43          6           0       -4.006829   -4.646139    1.359769
     44          8           0       -3.956584   -4.407597    2.541263
     45          8           0       -3.269295   -5.715760    0.876341
     46          6           0       -2.310999   -6.348790    1.778778
     47          6           0        3.311469   -2.809326   -1.157479
     48          6           0        4.405263   -2.461476   -2.086735
     49          6           0        5.755704   -2.762457   -1.917050
     50          6           0        6.352911   -3.600285   -0.842039
     51          6           0        6.643198   -2.360501   -3.053727
     52          6           0        7.255678   -0.990583   -2.849548
     53          6           0        8.868801   -1.037582   -2.933294
     54          6           0        9.535883    0.192288   -2.179549
     55          6           0        9.731245   -0.298807   -0.732624
     56          6           0       10.825277    0.575180   -2.871265
     57          6           0       11.324839    1.967615   -2.326569
     58          6           0       12.830021    2.011976   -1.951503
     59          6           0       13.043761    2.425049   -0.503008
     60          6           0       14.226668    3.346974   -0.489648
     61          6           0       13.283042    1.224728    0.477512
     62          6           0       12.435057    1.160796    1.718723
     63          6           0       13.184523    1.664754    2.973281
     64          6           0       13.466605    0.463384    3.973373
     65          6           0       12.175257    0.153986    4.834251
     66          6           0       14.645784    0.890826    4.823775
     67          1           0       -1.219512    1.807270   -0.063801
     68          1           0       -6.926581    5.167631   -0.134267
     69          1           0       -9.938755   -0.530948    0.376069
     70          1           0       -2.057495   -2.813967    0.760541
     71          1           0       -0.552421   -0.691026   -0.645890
     72          1           0       -1.117680   -1.374037    2.214660
     73          1           0       -0.982912    0.333173    1.869486
     74          1           0        0.341297   -0.731555    1.475853
     75          1           0       -2.505033   -3.038038   -2.038113
     76          1           0       -1.765646   -4.148005   -0.895915
     77          1           0       -0.306006   -2.047697   -2.380682
     78          1           0       -0.175666   -3.838974   -2.684245
     79          1           0       -1.185168    5.362238    0.895667
     80          1           0       -1.010522    5.084094   -0.852202
     81          1           0       -0.782487    3.837725    0.418480
     82          1           0       -3.369491    8.447692    0.058674
     83          1           0       -2.124688    7.213042   -0.280892
     84          1           0       -2.894536    7.365942    1.290558
     85          1           0       -9.425612    4.147201   -0.978478
     86          1           0      -10.367208    2.244678    1.006261
     87          1           0       -8.404035    4.846320    1.725133
     88          1           0       -9.763003    3.909602    1.963663
     89          1           0       -9.886157    5.445126    0.940410
     90          1           0      -10.674248    1.334810   -1.692318
     91          1           0      -11.144146    2.986566   -1.699070
     92          1           0      -13.034974    2.512905   -1.344364
     93          1           0      -12.647309    2.206093    0.357772
     94          1           0      -12.647203    0.810207   -0.782448
     95          1           0      -10.400107   -2.589930    0.814156
     96          1           0       -9.466332   -3.647960    1.870552
     97          1           0       -9.695540   -4.061116    0.072061
     98          1           0       -4.477711   -4.359770   -0.719019
     99          1           0       -1.289189   -5.971061    1.752469
    100          1           0       -2.179958   -7.362932    1.401636
    101          1           0       -2.710031   -6.544689    2.774237
    102          1           0        3.477163   -3.812606   -0.765130
    103          1           0        3.482647   -2.162130   -0.297716
    104          1           0        4.130902   -2.052173   -3.058625
    105          1           0        5.639463   -4.357506   -0.516437
    106          1           0        6.637050   -3.010108    0.028934
    107          1           0        7.252457   -4.082783   -1.222954
    108          1           0        6.022735   -2.492579   -3.939431
    109          1           0        7.507573   -3.018992   -3.130094
    110          1           0        6.890015   -0.577558   -1.910131
    111          1           0        6.813651   -0.427135   -3.671223
    112          1           0        9.164251   -1.087267   -3.981409
    113          1           0        9.178745   -1.988650   -2.502375
    114          1           0        8.806916    1.000357   -2.117816
    115          1           0       10.618878   -0.895579   -0.520957
    116          1           0        8.870545   -0.908655   -0.458162
    117          1           0        9.809100    0.621309   -0.153022
    118          1           0       10.712668    0.731904   -3.944536
    119          1           0       11.496372   -0.258760   -2.670183
    120          1           0       10.624174    2.361005   -1.590228
    121          1           0       11.131604    2.630822   -3.169275
    122          1           0       13.226379    2.762278   -2.635059
    123          1           0       13.317313    1.061951   -2.168834
    124          1           0       12.178143    2.994270   -0.162205
    125          1           0       14.785143    3.173528   -1.408977
    126          1           0       14.768489    3.200876    0.445404
    127          1           0       13.803851    4.348829   -0.555538
    128          1           0       14.312375    1.093042    0.810250
    129          1           0       13.198106    0.308998   -0.107625
    130          1           0       11.993283    0.213362    2.026984
    131          1           0       11.664279    1.931480    1.695549
    132          1           0       12.750988    2.491712    3.535701
    133          1           0       14.176850    2.065930    2.764386
    134          1           0       13.779839   -0.454918    3.475892
    135          1           0       12.442570    0.010374    5.880769
    136          1           0       11.598082   -0.730262    4.566044
    137          1           0       11.478628    0.992576    4.837224
    138          1           0       14.506129    0.753183    5.895252
    139          1           0       15.032197    1.893692    4.642209
    140          1           0       15.472094    0.201351    4.647602
 ---------------------------------------------------------------------

 SCF Done:  E(RwB97XD) =  -3007.85638776     A.U. after   17 cycles

 Excitation energies and oscillator strengths:

 Excited State   1:      Singlet-A      1.6035 eV  773.23 nm  f=0.3807  <S**2>=0.000
     245 -> 248       -0.18124
     246 -> 247        0.68458
     245 <- 248       -0.11822
 This state for optimization and/or second-order correction.
 Total Energy, E(TD-HF/TD-DFT) =  -3007.79746175
 Copying the excited state density for this state as the 1-particle RhoCI density.

 Excited State   2:      Singlet-A      2.1464 eV  577.63 nm  f=0.1181  <S**2>=0.000
     245 -> 247        0.64011
     246 -> 248        0.28834

 Excited State   3:      Singlet-A      3.4406 eV  360.35 nm  f=0.0010  <S**2>=0.000
     242 -> 247       -0.40729
     242 -> 249       -0.26234
     242 -> 250        0.22970
     243 -> 247        0.41831

 Excited State   4:      Singlet-A      3.4647 eV  357.85 nm  f=0.1072  <S**2>=0.000
     242 -> 247        0.37568
     243 -> 247        0.42100
     243 -> 249       -0.12389
     245 -> 247        0.10737
     246 -> 248       -0.32064

 Excited State   5:      Singlet-A      3.5706 eV  347.24 nm  f=0.4217  <S**2>=0.000
     240 -> 247        0.28819
     240 -> 249       -0.20102
     240 -> 250       -0.12820
     241 -> 249       -0.14210
     242 -> 247        0.12845
     243 -> 247        0.17110
     245 -> 247       -0.21206
     246 -> 248        0.46132

 The electronic state is 1-A.
 Alpha  occ. eigenvalues --  -46.95347 -19.32089 -19.28450 -19.24907 -19.24264
 Alpha  occ. eigenvalues --  -19.23660 -19.23080 -14.47043 -14.46667 -14.44628
 Alpha  occ. eigenvalues --  -14.44314 -10.43844 -10.42116 -10.40183 -10.37979
 Alpha  occ. eigenvalues --  -10.36752 -10.35573 -10.35181 -10.35178 -10.34873
 Alpha  occ. eigenvalues --  -10.34816 -10.34648 -10.33946 -10.33798 -10.33639
 Alpha  occ. eigenvalues --  -10.33323 -10.32565 -10.32460 -10.32431 -10.32164
 Alpha  occ. eigenvalues --  -10.31904 -10.31792 -10.31690 -10.31659 -10.31533
 Alpha  occ. eigenvalues --  -10.31340 -10.31239 -10.31120 -10.31114 -10.31066
 Alpha  occ. eigenvalues --  -10.30636 -10.30490 -10.30358 -10.30211 -10.30083
 Alpha  occ. eigenvalues --  -10.29988 -10.29933 -10.29799 -10.29508 -10.29474
 Alpha  occ. eigenvalues --  -10.29341 -10.29213 -10.29110 -10.29080 -10.29048
 Alpha  occ. eigenvalues --  -10.29016 -10.28771 -10.28714 -10.28694 -10.28572
 Alpha  occ. eigenvalues --  -10.28494 -10.28483 -10.28476 -10.28337 -10.27729
 Alpha  occ. eigenvalues --  -10.27625  -3.21357  -1.94922  -1.94449  -1.94362
 Alpha  occ. eigenvalues --   -1.20490  -1.17460  -1.11432  -1.11241  -1.10203
 Alpha  occ. eigenvalues --   -1.08465  -1.06538  -1.05324  -1.04231  -1.03379
 Alpha  occ. eigenvalues --   -0.94828  -0.93073  -0.92172  -0.91611  -0.90697
 Alpha  occ. eigenvalues --   -0.90273  -0.90088  -0.89495  -0.89077  -0.88835
 Alpha  occ. eigenvalues --   -0.88271  -0.87988  -0.86489  -0.85666  -0.85239
 Alpha  occ. eigenvalues --   -0.84773  -0.83732  -0.83288  -0.82188  -0.82114
 Alpha  occ. eigenvalues --   -0.81587  -0.80673  -0.80220  -0.78651  -0.78002
 Alpha  occ. eigenvalues --   -0.77692  -0.77288  -0.76802  -0.76710  -0.76236
 Alpha  occ. eigenvalues --   -0.75261  -0.74877  -0.73318  -0.72615  -0.70806
 Alpha  occ. eigenvalues --   -0.70215  -0.69943  -0.69218  -0.68686  -0.67791
 Alpha  occ. eigenvalues --   -0.67361  -0.67180  -0.66766  -0.66347  -0.66154
 Alpha  occ. eigenvalues --   -0.66065  -0.65273  -0.64867  -0.63026  -0.62034
 Alpha  occ. eigenvalues --   -0.61897  -0.61558  -0.61072  -0.60557  -0.59806
 Alpha  occ. eigenvalues --   -0.59566  -0.59079  -0.58427  -0.57974  -0.57132
 Alpha  occ. eigenvalues --   -0.57047  -0.56688  -0.56475  -0.55916  -0.55765
 Alpha  occ. eigenvalues --   -0.55651  -0.55301  -0.54946  -0.54834  -0.54455
 Alpha  occ. eigenvalues --   -0.54312  -0.54180  -0.54167  -0.53742  -0.53642
 Alpha  occ. eigenvalues --   -0.53496  -0.53427  -0.53291  -0.52742  -0.52621
 Alpha  occ. eigenvalues --   -0.52244  -0.51810  -0.51644  -0.51448  -0.51245
 Alpha  occ. eigenvalues --   -0.51202  -0.51055  -0.50815  -0.50671  -0.50505
 Alpha  occ. eigenvalues --   -0.50404  -0.50318  -0.50175  -0.50030  -0.49628
 Alpha  occ. eigenvalues --   -0.49521  -0.49435  -0.49132  -0.48719  -0.48518
 Alpha  occ. eigenvalues --   -0.48143  -0.47860  -0.47767  -0.47591  -0.47444
 Alpha  occ. eigenvalues --   -0.47313  -0.47132  -0.47027  -0.46939  -0.46771
 Alpha  occ. eigenvalues --   -0.46611  -0.46401  -0.46222  -0.46123  -0.45942
 Alpha  occ. eigenvalues --   -0.45858  -0.45610  -0.45432  -0.45184  -0.45057
 Alpha  occ. eigenvalues --   -0.44942  -0.44614  -0.44528  -0.44233  -0.44156
 Alpha  occ. eigenvalues --   -0.43926  -0.43716  -0.43443  -0.43214  -0.42698
 Alpha  occ. eigenvalues --   -0.42650  -0.42184  -0.41996  -0.41949  -0.41661
 Alpha  occ. eigenvalues --   -0.41597  -0.41195  -0.41166  -0.41162  -0.40708
 Alpha  occ. eigenvalues --   -0.40534  -0.40447  -0.40315  -0.40054  -0.39788
 Alpha  occ. eigenvalues --   -0.39328  -0.39067  -0.38919  -0.38367  -0.38358
 Alpha  occ. eigenvalues --   -0.38242  -0.37339  -0.36608  -0.36254  -0.35880
 Alpha  occ. eigenvalues --   -0.35713  -0.35590  -0.34982  -0.33584  -0.33109
 Alpha  occ. eigenvalues --   -0.32868  -0.32449  -0.32285  -0.30972  -0.25968
 Alpha  occ. eigenvalues --   -0.22877
 Alpha virt. eigenvalues --   -0.07171   0.00321   0.02113   0.04099   0.04766
 Alpha virt. eigenvalues --    0.06505   0.07587   0.07815   0.08342   0.09929
 Alpha virt. eigenvalues --    0.10817   0.11463   0.11568   0.11827   0.12427

 Mulliken charges:
               1
     1  Mg   0.982439
     2  C    0.015164
     3  C   -0.090203
     4  C   -0.048977
     5  C   -0.085728
     6  N   -0.336330
     7  C   -0.061549
     8  C    0.010753
     9  C   -0.126816
    10  C    0.055083
    11  C    0.038626
    12  C    0.057337
    13  C   -0.033454
    14  C    0.195751
    15  O   -0.284660
    16  O   -0.337766
    17  N   -0.455834
    18  C    0.177973
    19  C   -0.156420
    20  C   -0.046839
    21  C    0.154283
    22  C    0.046166
    23  C    0.068818
    24  O   -0.249267
    25  C   -0.028366
    26  N   -0.393626
    27  C    0.040679
    28  C   -0.104038
    29  C   -0.041064
    30  C    0.082952
    31  C    0.027590
    32  C   -0.050061
    33  C   -0.042007
    34  N   -0.446250
    35  C    0.108687
    36  C   -0.214236
    37  C    0.055450
    38  C    0.093496
    39  C    0.105835
    40  C    0.058818
    41  O   -0.217953
    42  C   -0.081636
    43  C    0.248818
    44  O   -0.229606
    45  O   -0.378821
    46  C    0.137814
    47  C    0.281375
    48  C   -0.165409
    49  C   -0.250857
    50  C    0.050652
    51  C    0.026296
    52  C   -0.014869
    53  C   -0.017506
    54  C   -0.199210
    55  C    0.000872
    56  C    0.021885
    57  C   -0.036957
    58  C    0.033952
    59  C   -0.198936
    60  C    0.030304
    61  C    0.042276
    62  C    0.014563
    63  C   -0.048927
    64  C   -0.219984
    65  C   -0.006942
    66  C   -0.000576
    67  H   -0.004447
    68  H    0.030325
    69  H   -0.009096
    70  H    0.053940
    71  H    0.027668
    72  H    0.051601
    73  H    0.029953
    74  H    0.039964
    75  H    0.034044
    76  H    0.044349
    77  H    0.055798
    78  H    0.075497
    79  H    0.042722
    80  H    0.069744
    81  H    0.025109
    82  H    0.052584
    83  H    0.040338
    84  H    0.060610
    85  H    0.047865
    86  H    0.029106
    87  H    0.044886
    88  H    0.025216
    89  H    0.051024
    90  H    0.029006
    91  H    0.023977
    92  H    0.038822
    93  H    0.034486
    94  H    0.045148
    95  H    0.020126
    96  H    0.072788
    97  H    0.072745
    98  H    0.074060
    99  H    0.059174
   100  H    0.030699
   101  H    0.062644
   102  H    0.049316
   103  H    0.055560
   104  H    0.030193
   105  H    0.036988
   106  H    0.053953
   107  H    0.036163
   108  H    0.031396
   109  H    0.010353
   110  H    0.028342
   111  H    0.029049
   112  H    0.017604
   113  H    0.013254
   114  H    0.024522
   115  H    0.031388
   116  H    0.023571
   117  H    0.028692
   118  H    0.023897
   119  H    0.016257
   120  H    0.016217
   121  H    0.013131
   122  H    0.017829
   123  H    0.024847
   124  H    0.015868
   125  H    0.028126
   126  H    0.028137
   127  H    0.022683
   128  H    0.007316
   129  H   -0.005331
   130  H    0.028647
   131  H    0.018359
   132  H    0.020057
   133  H    0.008902
   134  H    0.025905
   135  H    0.020833
   136  H    0.031932
   137  H    0.024276
   138  H    0.015149
   139  H    0.032060
   140  H    0.019056
 Sum of Mulliken charges =  -0.00000

 Dipole moment (field-independent basis, Debye):
    X=              4.6523    Y=              2.4795    Z=             -4.2356  Tot=              6.7626
 Quadrupole moment (field-independent basis, Debye-Ang):
   XX=           -367.7471   YY=           -431.3142   ZZ=           -405.0397
   XY=            -24.0287   XZ=             14.1254   YZ=             12.9385

 Normal termination of Gaussian 16 at Wed May  4 02:56:24 2022.
