 Gaussian 16, Revision A.03,
 Gaussian 16:  ES64L-G16RevA.03 25-Dec-2016

 --------------------
 #p ZINDO=(nstates=5)
 --------------------

 -----------------------------
 step_1251_chromophore_3 ZINDO
 -----------------------------
 Symbolic Z-matrix:
 Charge =  0 Multiplicity = 1

                         Standard orientation:
 ---------------------------------------------------------------------
 Center     Atomic      Atomic             Coordinates (Angstroms)
 Number     Number       Type             X           Y           Z
 ---------------------------------------------------------------------
      1         12           0       -5.661918    0.777319   -0.310186
      2          6           0       -4.691871   -2.485256    0.218562
      3          6           0       -2.288033    1.584827   -0.105126
      4          6           0       -6.508397    4.158642   -0.134963
      5          6           0       -8.927998   -0.119722    0.335873
      6          7           0       -3.733609   -0.378568    0.012560
      7          6           0       -3.585311   -1.729542    0.024437
      8          6           0       -2.083852   -2.166109   -0.115605
      9          6           0       -1.348197   -0.848010    0.083242
     10          6           0       -2.498078    0.204301   -0.122880
     11          6           0       -0.745710   -0.657568    1.482375
     12          6           0       -1.721315   -3.131721   -1.285783
     13          6           0       -0.336428   -3.048644   -1.950924
     14          6           0        0.957622   -3.067622   -1.122756
     15          8           0        1.019562   -3.456797    0.045476
     16          8           0        2.003513   -2.600752   -1.804964
     17          7           0       -4.547208    2.601659   -0.134537
     18          6           0       -3.158511    2.696738   -0.058126
     19          6           0       -2.859366    4.161497    0.011386
     20          6           0       -4.059121    4.897181   -0.128102
     21          6           0       -5.092146    3.885983   -0.115233
     22          6           0       -1.396414    4.671946    0.080134
     23          6           0       -4.274113    6.397172   -0.061960
     24          8           0       -5.387996    6.940907    0.022301
     25          6           0       -3.075152    7.410225    0.216300
     26          7           0       -7.461709    1.843475   -0.166995
     27          6           0       -7.581778    3.228738   -0.133612
     28          6           0       -9.086640    3.692541   -0.048230
     29          6           0       -9.878987    2.343215    0.037089
     30          6           0       -8.681091    1.272442    0.120156
     31          6           0       -9.317637    4.554105    1.205477
     32          6           0      -11.005851    2.136082   -1.031679
     33          6           0      -12.466572    1.878704   -0.665299
     34          7           0       -6.641129   -0.894924    0.233993
     35          6           0       -7.982858   -1.160952    0.462932
     36          6           0       -8.260556   -2.571104    0.638745
     37          6           0       -7.008432   -3.168391    0.570787
     38          6           0       -6.047896   -2.078206    0.290057
     39          6           0       -9.574486   -3.300193    0.842854
     40          6           0       -6.258023   -4.337759    0.609859
     41          8           0       -6.610160   -5.494930    0.809973
     42          6           0       -4.761507   -3.979424    0.261770
     43          6           0       -4.006829   -4.646139    1.359769
     44          8           0       -3.956584   -4.407597    2.541263
     45          8           0       -3.269295   -5.715760    0.876341
     46          6           0       -2.310999   -6.348790    1.778778
     47          6           0        3.311469   -2.809326   -1.157479
     48          6           0        4.405263   -2.461476   -2.086735
     49          6           0        5.755704   -2.762457   -1.917050
     50          6           0        6.352911   -3.600285   -0.842039
     51          6           0        6.643198   -2.360501   -3.053727
     52          6           0        7.255678   -0.990583   -2.849548
     53          6           0        8.868801   -1.037582   -2.933294
     54          6           0        9.535883    0.192288   -2.179549
     55          6           0        9.731245   -0.298807   -0.732624
     56          6           0       10.825277    0.575180   -2.871265
     57          6           0       11.324839    1.967615   -2.326569
     58          6           0       12.830021    2.011976   -1.951503
     59          6           0       13.043761    2.425049   -0.503008
     60          6           0       14.226668    3.346974   -0.489648
     61          6           0       13.283042    1.224728    0.477512
     62          6           0       12.435057    1.160796    1.718723
     63          6           0       13.184523    1.664754    2.973281
     64          6           0       13.466605    0.463384    3.973373
     65          6           0       12.175257    0.153986    4.834251
     66          6           0       14.645784    0.890826    4.823775
     67          1           0       -1.219512    1.807270   -0.063801
     68          1           0       -6.926581    5.167631   -0.134267
     69          1           0       -9.938755   -0.530948    0.376069
     70          1           0       -2.057495   -2.813967    0.760541
     71          1           0       -0.552421   -0.691026   -0.645890
     72          1           0       -1.117680   -1.374037    2.214660
     73          1           0       -0.982912    0.333173    1.869486
     74          1           0        0.341297   -0.731555    1.475853
     75          1           0       -2.505033   -3.038038   -2.038113
     76          1           0       -1.765646   -4.148005   -0.895915
     77          1           0       -0.306006   -2.047697   -2.380682
     78          1           0       -0.175666   -3.838974   -2.684245
     79          1           0       -1.185168    5.362238    0.895667
     80          1           0       -1.010522    5.084094   -0.852202
     81          1           0       -0.782487    3.837725    0.418480
     82          1           0       -3.369491    8.447692    0.058674
     83          1           0       -2.124688    7.213042   -0.280892
     84          1           0       -2.894536    7.365942    1.290558
     85          1           0       -9.425612    4.147201   -0.978478
     86          1           0      -10.367208    2.244678    1.006261
     87          1           0       -8.404035    4.846320    1.725133
     88          1           0       -9.763003    3.909602    1.963663
     89          1           0       -9.886157    5.445126    0.940410
     90          1           0      -10.674248    1.334810   -1.692318
     91          1           0      -11.144146    2.986566   -1.699070
     92          1           0      -13.034974    2.512905   -1.344364
     93          1           0      -12.647309    2.206093    0.357772
     94          1           0      -12.647203    0.810207   -0.782448
     95          1           0      -10.400107   -2.589930    0.814156
     96          1           0       -9.466332   -3.647960    1.870552
     97          1           0       -9.695540   -4.061116    0.072061
     98          1           0       -4.477711   -4.359770   -0.719019
     99          1           0       -1.289189   -5.971061    1.752469
    100          1           0       -2.179958   -7.362932    1.401636
    101          1           0       -2.710031   -6.544689    2.774237
    102          1           0        3.477163   -3.812606   -0.765130
    103          1           0        3.482647   -2.162130   -0.297716
    104          1           0        4.130902   -2.052173   -3.058625
    105          1           0        5.639463   -4.357506   -0.516437
    106          1           0        6.637050   -3.010108    0.028934
    107          1           0        7.252457   -4.082783   -1.222954
    108          1           0        6.022735   -2.492579   -3.939431
    109          1           0        7.507573   -3.018992   -3.130094
    110          1           0        6.890015   -0.577558   -1.910131
    111          1           0        6.813651   -0.427135   -3.671223
    112          1           0        9.164251   -1.087267   -3.981409
    113          1           0        9.178745   -1.988650   -2.502375
    114          1           0        8.806916    1.000357   -2.117816
    115          1           0       10.618878   -0.895579   -0.520957
    116          1           0        8.870545   -0.908655   -0.458162
    117          1           0        9.809100    0.621309   -0.153022
    118          1           0       10.712668    0.731904   -3.944536
    119          1           0       11.496372   -0.258760   -2.670183
    120          1           0       10.624174    2.361005   -1.590228
    121          1           0       11.131604    2.630822   -3.169275
    122          1           0       13.226379    2.762278   -2.635059
    123          1           0       13.317313    1.061951   -2.168834
    124          1           0       12.178143    2.994270   -0.162205
    125          1           0       14.785143    3.173528   -1.408977
    126          1           0       14.768489    3.200876    0.445404
    127          1           0       13.803851    4.348829   -0.555538
    128          1           0       14.312375    1.093042    0.810250
    129          1           0       13.198106    0.308998   -0.107625
    130          1           0       11.993283    0.213362    2.026984
    131          1           0       11.664279    1.931480    1.695549
    132          1           0       12.750988    2.491712    3.535701
    133          1           0       14.176850    2.065930    2.764386
    134          1           0       13.779839   -0.454918    3.475892
    135          1           0       12.442570    0.010374    5.880769
    136          1           0       11.598082   -0.730262    4.566044
    137          1           0       11.478628    0.992576    4.837224
    138          1           0       14.506129    0.753183    5.895252
    139          1           0       15.032197    1.893692    4.642209
    140          1           0       15.472094    0.201351    4.647602
 ---------------------------------------------------------------------

 SCF Done:  E(RZINDO/S) =  -474.193911476     A.U. after   20 cycles

 Excitation energies and oscillator strengths:

 Excited State   1:      Singlet-A      1.2093 eV 1025.26 nm  f=0.6046  <S**2>=0.000
     175 ->178        -0.19242
     176 ->177         0.66293
 This state for optimization and/or second-order correction.
 Total Energy, E(CIS/TDA) =  -474.149470859
 Copying the excited state density for this state as the 1-particle RhoCI density.

 Excited State   2:      Singlet-A      1.9168 eV  646.84 nm  f=0.0367  <S**2>=0.000
     175 ->177         0.54021
     176 ->178         0.43393

 Excited State   3:      Singlet-A      2.9006 eV  427.45 nm  f=0.0059  <S**2>=0.000
     168 ->179        -0.14104
     170 ->177         0.34963
     170 ->178        -0.10055
     170 ->179         0.30282
     170 ->180         0.34862
     170 ->186        -0.11739
     170 ->187        -0.16465
     170 ->201        -0.10059

 Excited State   4:      Singlet-A      2.9080 eV  426.36 nm  f=0.0007  <S**2>=0.000
     168 ->177         0.24432
     168 ->178        -0.11112
     168 ->179        -0.40282
     168 ->180         0.29732
     168 ->186         0.19865
     170 ->177        -0.10362
     170 ->179        -0.12013
     170 ->180        -0.10497
     176 ->179        -0.11478

 Excited State   5:      Singlet-A      2.9649 eV  418.18 nm  f=0.1926  <S**2>=0.000
     175 ->177         0.17531
     176 ->178        -0.23917
     176 ->179         0.57095
     176 ->180         0.16247

 The electronic state is 1-A.
 Alpha  occ. eigenvalues --   -1.84800  -1.78612  -1.76815  -1.74381  -1.72096
 Alpha  occ. eigenvalues --   -1.68734  -1.66612  -1.61768  -1.59041  -1.56725
 Alpha  occ. eigenvalues --   -1.56556  -1.52856  -1.49930  -1.47640  -1.46285
 Alpha  occ. eigenvalues --   -1.42739  -1.42292  -1.38921  -1.38777  -1.37436
 Alpha  occ. eigenvalues --   -1.35852  -1.34479  -1.34248  -1.32028  -1.28412
 Alpha  occ. eigenvalues --   -1.27910  -1.24126  -1.22612  -1.19742  -1.18652
 Alpha  occ. eigenvalues --   -1.17643  -1.16219  -1.15260  -1.14551  -1.13024
 Alpha  occ. eigenvalues --   -1.11920  -1.11649  -1.11048  -1.04478  -1.04040
 Alpha  occ. eigenvalues --   -1.02769  -1.01320  -0.99951  -0.97627  -0.95771
 Alpha  occ. eigenvalues --   -0.94902  -0.94679  -0.93626  -0.92418  -0.92220
 Alpha  occ. eigenvalues --   -0.90984  -0.90373  -0.89701  -0.88889  -0.87083
 Alpha  occ. eigenvalues --   -0.86090  -0.85120  -0.83581  -0.82200  -0.80557
 Alpha  occ. eigenvalues --   -0.79768  -0.78707  -0.76987  -0.76300  -0.76132
 Alpha  occ. eigenvalues --   -0.75318  -0.74897  -0.74846  -0.74239  -0.73504
 Alpha  occ. eigenvalues --   -0.73090  -0.72314  -0.71807  -0.71375  -0.71115
 Alpha  occ. eigenvalues --   -0.69999  -0.69468  -0.68723  -0.68171  -0.67733
 Alpha  occ. eigenvalues --   -0.67204  -0.66958  -0.65985  -0.65608  -0.65276
 Alpha  occ. eigenvalues --   -0.65034  -0.64650  -0.64499  -0.63913  -0.63741
 Alpha  occ. eigenvalues --   -0.63572  -0.62530  -0.62500  -0.62145  -0.61541
 Alpha  occ. eigenvalues --   -0.61174  -0.60957  -0.60792  -0.60430  -0.59765
 Alpha  occ. eigenvalues --   -0.59289  -0.59052  -0.58836  -0.58570  -0.58184
 Alpha  occ. eigenvalues --   -0.57972  -0.57818  -0.57299  -0.57193  -0.56578
 Alpha  occ. eigenvalues --   -0.56234  -0.55802  -0.55031  -0.54817  -0.54453
 Alpha  occ. eigenvalues --   -0.54302  -0.53888  -0.53353  -0.53024  -0.52732
 Alpha  occ. eigenvalues --   -0.52410  -0.52374  -0.52071  -0.51783  -0.51678
 Alpha  occ. eigenvalues --   -0.51265  -0.50976  -0.50520  -0.50365  -0.50217
 Alpha  occ. eigenvalues --   -0.49868  -0.49441  -0.49336  -0.49304  -0.48912
 Alpha  occ. eigenvalues --   -0.48330  -0.48145  -0.48117  -0.47878  -0.47594
 Alpha  occ. eigenvalues --   -0.47251  -0.47243  -0.47076  -0.46894  -0.46507
 Alpha  occ. eigenvalues --   -0.46330  -0.46260  -0.45583  -0.45352  -0.45288
 Alpha  occ. eigenvalues --   -0.45132  -0.44603  -0.44456  -0.44248  -0.44142
 Alpha  occ. eigenvalues --   -0.43769  -0.43665  -0.42625  -0.42489  -0.42056
 Alpha  occ. eigenvalues --   -0.41904  -0.41286  -0.40647  -0.38910  -0.38647
 Alpha  occ. eigenvalues --   -0.37792  -0.37342  -0.35811  -0.34728  -0.34438
 Alpha  occ. eigenvalues --   -0.33464  -0.32965  -0.32399  -0.30757  -0.26718
 Alpha  occ. eigenvalues --   -0.21600
 Alpha virt. eigenvalues --   -0.08561  -0.02005  -0.00668   0.00928   0.01374
 Alpha virt. eigenvalues --    0.01784   0.02478   0.03850   0.03860   0.04779
 Alpha virt. eigenvalues --    0.06499   0.06852   0.07541   0.07861   0.08157

 Mulliken charges:
               1
     1  Mg   0.431172
     2  C   -0.040912
     3  C   -0.067896
     4  C   -0.067342
     5  C   -0.066437
     6  N   -0.289401
     7  C    0.121444
     8  C    0.007043
     9  C    0.021008
    10  C    0.127329
    11  C   -0.045352
    12  C   -0.016709
    13  C    0.007422
    14  C    0.469003
    15  O   -0.536899
    16  O   -0.254810
    17  N   -0.332079
    18  C    0.107995
    19  C    0.009768
    20  C   -0.029224
    21  C    0.140339
    22  C   -0.050869
    23  C    0.323193
    24  O   -0.517963
    25  C   -0.034037
    26  N   -0.260465
    27  C    0.126496
    28  C    0.006006
    29  C   -0.004255
    30  C    0.103834
    31  C   -0.051590
    32  C   -0.036177
    33  C   -0.055376
    34  N   -0.300479
    35  C    0.083756
    36  C    0.042979
    37  C   -0.061564
    38  C    0.114500
    39  C   -0.036246
    40  C    0.338094
    41  O   -0.532392
    42  C    0.053746
    43  C    0.493460
    44  O   -0.519378
    45  O   -0.283577
    46  C    0.073600
    47  C    0.110303
    48  C   -0.111259
    49  C   -0.013347
    50  C   -0.035911
    51  C   -0.024757
    52  C   -0.036533
    53  C   -0.047075
    54  C   -0.010593
    55  C   -0.057489
    56  C   -0.032661
    57  C   -0.050923
    58  C   -0.027385
    59  C   -0.006469
    60  C   -0.060122
    61  C   -0.029178
    62  C   -0.034373
    63  C   -0.042048
    64  C   -0.011680
    65  C   -0.061814
    66  C   -0.059359
    67  H    0.017341
    68  H    0.052754
    69  H    0.028855
    70  H    0.040345
    71  H    0.028744
    72  H    0.030849
    73  H    0.019413
    74  H    0.021729
    75  H    0.020739
    76  H    0.028008
    77  H    0.033040
    78  H    0.048702
    79  H    0.026913
    80  H    0.036933
    81  H    0.017490
    82  H    0.038649
    83  H    0.028787
    84  H    0.036523
    85  H    0.040185
    86  H    0.026534
    87  H    0.025845
    88  H    0.022031
    89  H    0.027037
    90  H    0.014951
    91  H    0.016773
    92  H    0.023978
    93  H    0.021339
    94  H    0.024960
    95  H    0.019450
    96  H    0.045401
    97  H    0.045475
    98  H    0.053917
    99  H    0.047785
   100  H    0.015502
   101  H    0.054605
   102  H    0.054788
   103  H    0.050047
   104  H    0.033680
   105  H    0.025639
   106  H    0.031542
   107  H    0.023871
   108  H    0.023790
   109  H    0.016403
   110  H    0.027326
   111  H    0.019023
   112  H    0.016033
   113  H    0.021984
   114  H    0.024878
   115  H    0.022390
   116  H    0.018455
   117  H    0.012582
   118  H    0.018717
   119  H    0.024520
   120  H    0.025404
   121  H    0.007130
   122  H    0.016496
   123  H    0.025914
   124  H    0.023300
   125  H    0.025155
   126  H    0.022748
   127  H    0.012873
   128  H    0.019638
   129  H    0.006349
   130  H    0.031084
   131  H    0.014398
   132  H    0.022511
   133  H    0.011679
   134  H    0.026269
   135  H    0.014373
   136  H    0.018790
   137  H    0.017082
   138  H    0.014128
   139  H    0.022488
   140  H    0.006854
 Sum of Mulliken charges =  -0.00000

 Dipole moment (field-independent basis, Debye):
    X=              6.0625    Y=              3.3711    Z=             -6.0534  Tot=              9.2066
 N-N= 4.220020853617D+03 E-N= 0.000000000000D+00  KE=-9.114451039392D+03
 Leave Link  601 at Wed May  4 03:07:35 2022, MaxMem=  6710886400 cpu:               0.8 elap:               0.0
 (Enter /sw/apps/gaussian-16.0/g16/l9999.exe)
 1\1\GINC-BP1-COMPUTE122\SP\RZINDO CIS\STO-3G\C55H74Mg1N4O6\OF15641\04-
 May-2022\0\\#p ZINDO=(nstates=5)\\step_1251_chromophore_3 ZINDO\\0,1\M
 g,0,2.134,8.433,26.869\C,0,2.571,10.546,29.554\C,0,2.751,5.834,29.092\
 C,0,2.416,6.231,24.176\C,0,2.368,11.136,24.741\N,0,2.595,8.27,29.087\C
 ,0,2.543,9.27,30.006\C,0,2.541,8.727,31.479\C,0,2.896,7.26,31.279\C,0,
 2.629,7.064,29.742\C,0,4.361,6.911,31.577\C,0,1.362,9.16,32.404\C,0,0.
 857,8.209,33.503\C,0,1.818,7.56,34.511\O,0,2.961,7.967,34.73\O,0,1.282

 Normal termination of Gaussian 16 at Wed May  4 03:07:35 2022.
