 Gaussian 16, Revision A.03,
 Gaussian 16:  ES64L-G16RevA.03 25-Dec-2016

 ------------------------------
 #p blyp/Def2SVP td=(nstates=5)
 ------------------------------

 ---------------------------------------------------
 step_1301_chromophore_17 TDDFT with blyp functional
 ---------------------------------------------------
 Symbolic Z-matrix:
 Charge =  0 Multiplicity = 1

                         Standard orientation:
 ---------------------------------------------------------------------
 Center     Atomic      Atomic             Coordinates (Angstroms)
 Number     Number       Type             X           Y           Z
 ---------------------------------------------------------------------
      1         12           0        4.634406    1.291693   -0.337402
      2          6           0        4.675809   -2.166887   -0.431496
      3          6           0        2.235977    1.259162   -2.773188
      4          6           0        4.225722    4.625075    0.114846
      5          6           0        6.782697    1.132251    2.415284
      6          7           0        3.681729   -0.250174   -1.499892
      7          6           0        3.710603   -1.553186   -1.199619
      8          6           0        2.559070   -2.221682   -2.039712
      9          6           0        2.252093   -1.248499   -3.198198
     10          6           0        2.709778   -0.022791   -2.450328
     11          6           0        2.950527   -1.506053   -4.526629
     12          6           0        1.348161   -2.655302   -1.184822
     13          6           0        0.501909   -3.809638   -1.741299
     14          6           0       -0.103845   -4.639461   -0.672713
     15          8           0        0.503178   -5.635368   -0.244469
     16          8           0       -1.372646   -4.161539   -0.400795
     17          7           0        3.371429    2.727282   -1.218065
     18          6           0        2.462761    2.557510   -2.190154
     19          6           0        1.803535    3.792213   -2.534516
     20          6           0        2.343832    4.773847   -1.740731
     21          6           0        3.391514    4.032339   -0.948667
     22          6           0        0.729885    3.914187   -3.604090
     23          6           0        2.089423    6.241289   -1.854360
     24          8           0        1.333562    6.653007   -2.725349
     25          6           0        2.697157    7.208960   -0.895275
     26          7           0        5.449753    2.682717    1.079405
     27          6           0        5.131755    4.025929    0.984328
     28          6           0        5.842150    4.821266    2.135702
     29          6           0        6.788046    3.645395    2.666302
     30          6           0        6.298847    2.374896    2.053658
     31          6           0        6.586138    6.090094    1.744736
     32          6           0        6.982185    3.484413    4.224240
     33          6           0        8.391301    3.251929    4.784991
     34          7           0        5.837115   -0.215092    0.641852
     35          6           0        6.552096   -0.093998    1.784073
     36          6           0        6.987637   -1.371094    2.125492
     37          6           0        6.222709   -2.270821    1.281575
     38          6           0        5.547180   -1.503567    0.415160
     39          6           0        7.903697   -1.807344    3.148019
     40          6           0        5.983451   -3.705722    0.946377
     41          8           0        6.489876   -4.744781    1.301055
     42          6           0        4.965919   -3.692277   -0.210250
     43          6           0        5.650662   -4.276358   -1.514544
     44          8           0        6.749313   -3.846605   -1.834655
     45          8           0        4.944837   -5.298852   -2.064197
     46          6           0        5.546032   -5.741184   -3.339456
     47          6           0       -2.019402   -4.857724    0.741614
     48          6           0       -3.449118   -4.422201    0.776852
     49          6           0       -4.278162   -4.227113    1.836649
     50          6           0       -3.834177   -4.574282    3.282720
     51          6           0       -5.773988   -4.013867    1.578793
     52          6           0       -6.283009   -2.675101    2.096786
     53          6           0       -7.744539   -2.355438    1.637069
     54          6           0       -8.043275   -0.811777    1.509959
     55          6           0       -7.819029   -0.171069    2.911775
     56          6           0       -7.205032   -0.005370    0.445201
     57          6           0       -8.021832    0.242393   -0.784903
     58          6           0       -8.687417    1.682762   -0.744907
     59          6           0      -10.026437    1.901201   -1.459633
     60          6           0       -9.929551    2.979669   -2.536492
     61          6           0      -11.119056    2.231153   -0.435378
     62          6           0      -11.806247    0.949008    0.019476
     63          6           0      -13.361674    0.880938   -0.131385
     64          6           0      -14.132468    1.486844    1.084632
     65          6           0      -15.100494    0.456861    1.675702
     66          6           0      -14.783635    2.778402    0.695778
     67          1           0        1.512333    1.126886   -3.579699
     68          1           0        4.130498    5.703647    0.256129
     69          1           0        7.509679    1.120689    3.229572
     70          1           0        2.962678   -3.122491   -2.504492
     71          1           0        1.174909   -1.230775   -3.361692
     72          1           0        3.829974   -0.874618   -4.653670
     73          1           0        2.319827   -1.304110   -5.392788
     74          1           0        3.185528   -2.570553   -4.523966
     75          1           0        0.706123   -1.790960   -1.015596
     76          1           0        1.662308   -3.069326   -0.227162
     77          1           0        1.015256   -4.474340   -2.436674
     78          1           0       -0.278431   -3.347190   -2.345858
     79          1           0        0.313903    2.949743   -3.897939
     80          1           0        0.966810    4.484413   -4.501831
     81          1           0       -0.034949    4.497001   -3.090420
     82          1           0        2.447278    6.847068    0.101956
     83          1           0        2.437588    8.264273   -0.981848
     84          1           0        3.748459    7.250935   -1.178227
     85          1           0        5.117392    5.204991    2.853155
     86          1           0        7.731975    3.881165    2.175086
     87          1           0        6.349425    6.475246    0.752430
     88          1           0        7.640272    5.870698    1.576534
     89          1           0        6.335611    6.920935    2.404710
     90          1           0        6.352246    2.642035    4.508985
     91          1           0        6.533239    4.381586    4.650494
     92          1           0        8.567515    3.907288    5.638168
     93          1           0        9.151198    3.511717    4.048415
     94          1           0        8.581149    2.217944    5.072898
     95          1           0        7.765392   -2.801879    3.572498
     96          1           0        7.648115   -1.293772    4.074015
     97          1           0        8.907516   -1.482919    2.875811
     98          1           0        4.048587   -4.258799   -0.052432
     99          1           0        5.230619   -4.990015   -4.063383
    100          1           0        5.176478   -6.678801   -3.755497
    101          1           0        6.630671   -5.836778   -3.387195
    102          1           0       -1.548666   -4.584739    1.686056
    103          1           0       -1.948131   -5.926983    0.540219
    104          1           0       -3.885899   -4.290805   -0.213109
    105          1           0       -3.141528   -5.413268    3.210759
    106          1           0       -4.600575   -5.045449    3.899355
    107          1           0       -3.332723   -3.786650    3.843968
    108          1           0       -6.212123   -4.835627    2.146104
    109          1           0       -5.917050   -4.106666    0.502354
    110          1           0       -5.564158   -1.874146    1.925354
    111          1           0       -6.242001   -2.840950    3.173519
    112          1           0       -8.514295   -2.697898    2.328832
    113          1           0       -8.005380   -2.803949    0.679229
    114          1           0       -9.104078   -0.797672    1.260275
    115          1           0       -6.846943   -0.400273    3.348538
    116          1           0       -8.574714   -0.454156    3.643412
    117          1           0       -7.869949    0.917786    2.869827
    118          1           0       -6.362347   -0.661804    0.231645
    119          1           0       -6.788375    0.865092    0.951561
    120          1           0       -8.812194   -0.450200   -1.073290
    121          1           0       -7.237294    0.118835   -1.531900
    122          1           0       -7.911868    2.374050   -1.073452
    123          1           0       -8.774943    1.914828    0.316716
    124          1           0      -10.299668    1.017739   -2.035023
    125          1           0      -10.291620    3.962472   -2.232966
    126          1           0      -10.480728    2.622879   -3.407483
    127          1           0       -8.887259    3.186780   -2.777028
    128          1           0      -11.868148    2.884041   -0.881499
    129          1           0      -10.681088    2.832376    0.362520
    130          1           0      -11.633404    0.932870    1.095835
    131          1           0      -11.410907    0.061180   -0.473502
    132          1           0      -13.540641   -0.193334   -0.184837
    133          1           0      -13.799647    1.309052   -1.033345
    134          1           0      -13.488883    1.662783    1.945496
    135          1           0      -15.573307    0.939228    2.531443
    136          1           0      -14.534821   -0.368175    2.109334
    137          1           0      -15.812315    0.102208    0.930955
    138          1           0      -14.868388    3.592756    1.415168
    139          1           0      -15.785791    2.609009    0.299390
    140          1           0      -14.370549    3.134428   -0.248168
 ---------------------------------------------------------------------

 SCF Done:  E(RB-LYP) =  -3007.37591443     A.U. after   21 cycles

 Excitation energies and oscillator strengths:

 Excited State   1:      Singlet-A      1.8172 eV  682.27 nm  f=0.0257  <S**2>=0.000
     244 -> 247        0.60722
     245 -> 247       -0.32510
     246 -> 247       -0.11869
 This state for optimization and/or second-order correction.
 Total Energy, E(TD-HF/TD-DFT) =  -3007.30913238
 Copying the excited state density for this state as the 1-particle RhoCI density.

 Excited State   2:      Singlet-A      1.8438 eV  672.43 nm  f=0.1053  <S**2>=0.000
     243 -> 247        0.55687
     245 -> 248       -0.11027
     246 -> 247       -0.41941

 Excited State   3:      Singlet-A      1.8601 eV  666.55 nm  f=0.1925  <S**2>=0.000
     243 -> 247        0.43446
     245 -> 248        0.14943
     246 -> 247        0.53527
     246 <- 247       -0.11711

 Excited State   4:      Singlet-A      2.0595 eV  602.02 nm  f=0.0830  <S**2>=0.000
     242 -> 247       -0.17520
     244 -> 247        0.33527
     245 -> 247        0.54935
     246 -> 248       -0.20242

 Excited State   5:      Singlet-A      2.2641 eV  547.60 nm  f=0.0275  <S**2>=0.000
     242 -> 247        0.67076
     245 -> 247        0.17437

 The electronic state is 1-A.
 Alpha  occ. eigenvalues --  -46.27448 -18.83676 -18.83079 -18.77338 -18.76645
 Alpha  occ. eigenvalues --  -18.75249 -18.75243 -14.03413 -14.02912 -14.01715
 Alpha  occ. eigenvalues --  -13.99679 -10.04244 -10.04219  -9.99729  -9.99221
 Alpha  occ. eigenvalues --   -9.98289  -9.98083  -9.96707  -9.96584  -9.96450
 Alpha  occ. eigenvalues --   -9.96334  -9.96031  -9.95547  -9.94640  -9.94276
 Alpha  occ. eigenvalues --   -9.94131  -9.94062  -9.93816  -9.93662  -9.93614
 Alpha  occ. eigenvalues --   -9.93553  -9.93449  -9.93284  -9.93258  -9.92990
 Alpha  occ. eigenvalues --   -9.92915  -9.92897  -9.92808  -9.92798  -9.92726
 Alpha  occ. eigenvalues --   -9.92527  -9.92458  -9.92416  -9.92311  -9.92223
 Alpha  occ. eigenvalues --   -9.92204  -9.92131  -9.92046  -9.91908  -9.91888
 Alpha  occ. eigenvalues --   -9.91753  -9.91669  -9.91587  -9.91491  -9.91326
 Alpha  occ. eigenvalues --   -9.91110  -9.91045  -9.91034  -9.90929  -9.90831
 Alpha  occ. eigenvalues --   -9.90653  -9.90595  -9.90576  -9.90441  -9.90263
 Alpha  occ. eigenvalues --   -9.90175  -2.91954  -1.72414  -1.71795  -1.71684
 Alpha  occ. eigenvalues --   -0.98319  -0.97333  -0.91532  -0.91453  -0.90157
 Alpha  occ. eigenvalues --   -0.90018  -0.87539  -0.87039  -0.86484  -0.85739
 Alpha  occ. eigenvalues --   -0.75386  -0.73760  -0.73400  -0.73132  -0.72063
 Alpha  occ. eigenvalues --   -0.71988  -0.71641  -0.71369  -0.71025  -0.70462
 Alpha  occ. eigenvalues --   -0.69976  -0.69660  -0.68414  -0.67552  -0.67259
 Alpha  occ. eigenvalues --   -0.66525  -0.66161  -0.65449  -0.65163  -0.64785
 Alpha  occ. eigenvalues --   -0.64162  -0.62787  -0.62281  -0.61804  -0.60751
 Alpha  occ. eigenvalues --   -0.60498  -0.60484  -0.60227  -0.59437  -0.58843
 Alpha  occ. eigenvalues --   -0.58378  -0.57752  -0.57024  -0.56037  -0.54570
 Alpha  occ. eigenvalues --   -0.53747  -0.53317  -0.53216  -0.52703  -0.51669
 Alpha  occ. eigenvalues --   -0.51406  -0.51373  -0.51238  -0.50550  -0.50125
 Alpha  occ. eigenvalues --   -0.49943  -0.49217  -0.49097  -0.47806  -0.46963
 Alpha  occ. eigenvalues --   -0.46239  -0.46135  -0.45858  -0.45233  -0.44718
 Alpha  occ. eigenvalues --   -0.44239  -0.43794  -0.43279  -0.42830  -0.42714
 Alpha  occ. eigenvalues --   -0.42537  -0.42264  -0.42043  -0.41742  -0.41250
 Alpha  occ. eigenvalues --   -0.41071  -0.40618  -0.40524  -0.40317  -0.40167
 Alpha  occ. eigenvalues --   -0.39909  -0.39821  -0.39738  -0.39500  -0.39348
 Alpha  occ. eigenvalues --   -0.39133  -0.39022  -0.38634  -0.38381  -0.38127
 Alpha  occ. eigenvalues --   -0.37923  -0.37836  -0.37721  -0.37520  -0.37322
 Alpha  occ. eigenvalues --   -0.37222  -0.37140  -0.37095  -0.36601  -0.36480
 Alpha  occ. eigenvalues --   -0.36328  -0.36228  -0.36015  -0.35686  -0.35549
 Alpha  occ. eigenvalues --   -0.35419  -0.35075  -0.34966  -0.34729  -0.34453
 Alpha  occ. eigenvalues --   -0.34350  -0.34308  -0.34165  -0.34083  -0.34019
 Alpha  occ. eigenvalues --   -0.33730  -0.33606  -0.33443  -0.33374  -0.33023
 Alpha  occ. eigenvalues --   -0.32879  -0.32771  -0.32721  -0.32397  -0.32300
 Alpha  occ. eigenvalues --   -0.32240  -0.32133  -0.31978  -0.31763  -0.31475
 Alpha  occ. eigenvalues --   -0.31263  -0.31240  -0.31091  -0.30934  -0.30888
 Alpha  occ. eigenvalues --   -0.30462  -0.30317  -0.30195  -0.30049  -0.29984
 Alpha  occ. eigenvalues --   -0.29707  -0.29553  -0.29414  -0.29339  -0.29190
 Alpha  occ. eigenvalues --   -0.28666  -0.28568  -0.28287  -0.28196  -0.27704
 Alpha  occ. eigenvalues --   -0.27606  -0.27544  -0.27338  -0.26992  -0.26777
 Alpha  occ. eigenvalues --   -0.26643  -0.26096  -0.26025  -0.25953  -0.25629
 Alpha  occ. eigenvalues --   -0.25472  -0.24824  -0.24147  -0.23889  -0.23509
 Alpha  occ. eigenvalues --   -0.22923  -0.22520  -0.22191  -0.21625  -0.21300
 Alpha  occ. eigenvalues --   -0.20475  -0.19344  -0.18424  -0.18365  -0.17282
 Alpha  occ. eigenvalues --   -0.16079
 Alpha virt. eigenvalues --   -0.11698  -0.06759  -0.05498  -0.04325  -0.03703
 Alpha virt. eigenvalues --   -0.02717  -0.02523  -0.01655  -0.00830  -0.00091
 Alpha virt. eigenvalues --    0.00654   0.01550   0.02119   0.02640   0.02789

 Mulliken charges:
               1
     1  Mg   0.679696
     2  C   -0.043742
     3  C   -0.041328
     4  C   -0.028904
     5  C   -0.097874
     6  N   -0.211259
     7  C   -0.055557
     8  C   -0.001554
     9  C    0.016939
    10  C   -0.049852
    11  C    0.162013
    12  C    0.113296
    13  C    0.170909
    14  C    0.075384
    15  O   -0.209344
    16  O   -0.284156
    17  N   -0.216574
    18  C    0.130583
    19  C   -0.127330
    20  C    0.021076
    21  C    0.078934
    22  C    0.191239
    23  C   -0.107382
    24  O   -0.165996
    25  C    0.171775
    26  N   -0.216526
    27  C    0.017921
    28  C   -0.016661
    29  C    0.046280
    30  C    0.034261
    31  C    0.132166
    32  C    0.091880
    33  C    0.074114
    34  N   -0.226752
    35  C    0.133643
    36  C   -0.169536
    37  C    0.030459
    38  C    0.121518
    39  C    0.200093
    40  C   -0.011124
    41  O   -0.112863
    42  C    0.084256
    43  C    0.105384
    44  O   -0.181402
    45  O   -0.239567
    46  C    0.217993
    47  C    0.334473
    48  C   -0.121300
    49  C   -0.144696
    50  C    0.107606
    51  C    0.153904
    52  C    0.045147
    53  C    0.116709
    54  C   -0.076210
    55  C    0.076053
    56  C    0.120465
    57  C    0.082214
    58  C    0.104744
    59  C   -0.083063
    60  C    0.111348
    61  C    0.132810
    62  C    0.062896
    63  C    0.105539
    64  C   -0.075563
    65  C    0.095793
    66  C    0.124373
    67  H   -0.076852
    68  H   -0.093124
    69  H   -0.080827
    70  H   -0.048699
    71  H   -0.038003
    72  H    0.004358
    73  H   -0.008258
    74  H   -0.010238
    75  H   -0.014054
    76  H   -0.011560
    77  H   -0.009927
    78  H   -0.027124
    79  H   -0.025491
    80  H    0.008693
    81  H    0.000682
    82  H    0.024622
    83  H   -0.021213
    84  H    0.012858
    85  H   -0.017635
    86  H   -0.019991
    87  H   -0.020133
    88  H   -0.023908
    89  H   -0.005941
    90  H   -0.017862
    91  H   -0.028687
    92  H   -0.011155
    93  H   -0.014364
    94  H    0.007620
    95  H   -0.001162
    96  H   -0.029368
    97  H    0.004683
    98  H   -0.011655
    99  H    0.001032
   100  H    0.013481
   101  H    0.029336
   102  H    0.002960
   103  H    0.011728
   104  H   -0.035626
   105  H   -0.007772
   106  H   -0.011637
   107  H    0.013132
   108  H   -0.020201
   109  H   -0.033932
   110  H   -0.008600
   111  H   -0.029498
   112  H   -0.031449
   113  H   -0.037323
   114  H   -0.036652
   115  H   -0.016320
   116  H   -0.027355
   117  H   -0.023208
   118  H   -0.044432
   119  H   -0.031933
   120  H   -0.026129
   121  H   -0.041501
   122  H   -0.038401
   123  H   -0.035584
   124  H   -0.038595
   125  H   -0.021706
   126  H   -0.015329
   127  H   -0.030089
   128  H   -0.044470
   129  H   -0.035106
   130  H   -0.025042
   131  H   -0.017012
   132  H   -0.049942
   133  H   -0.036990
   134  H   -0.041711
   135  H   -0.022693
   136  H   -0.020356
   137  H   -0.010405
   138  H   -0.010285
   139  H   -0.040161
   140  H   -0.030280
 Sum of Mulliken charges =  -0.00000

 Dipole moment (field-independent basis, Debye):
    X=             -2.5392    Y=              2.3386    Z=              0.9067  Tot=              3.5691
 Quadrupole moment (field-independent basis, Debye-Ang):
   XX=           -410.8042   YY=           -428.0364   ZZ=           -384.8596
   XY=             48.6905   XZ=             -1.6668   YZ=             33.1490

 Normal termination of Gaussian 16 at Wed May  4 03:35:19 2022.
