 Gaussian 16, Revision A.03,
 Gaussian 16:  ES64L-G16RevA.03 25-Dec-2016

 -----------------------------------
 #p cam-b3lyp/Def2SVP td=(nstates=5)
 -----------------------------------

 --------------------------------------------------------
 step_1301_chromophore_17 TDDFT with cam-b3lyp functional
 --------------------------------------------------------
 Symbolic Z-matrix:
 Charge =  0 Multiplicity = 1

                         Standard orientation:
 ---------------------------------------------------------------------
 Center     Atomic      Atomic             Coordinates (Angstroms)
 Number     Number       Type             X           Y           Z
 ---------------------------------------------------------------------
      1         12           0        4.634406    1.291693   -0.337402
      2          6           0        4.675809   -2.166887   -0.431496
      3          6           0        2.235977    1.259162   -2.773188
      4          6           0        4.225722    4.625075    0.114846
      5          6           0        6.782697    1.132251    2.415284
      6          7           0        3.681729   -0.250174   -1.499892
      7          6           0        3.710603   -1.553186   -1.199619
      8          6           0        2.559070   -2.221682   -2.039712
      9          6           0        2.252093   -1.248499   -3.198198
     10          6           0        2.709778   -0.022791   -2.450328
     11          6           0        2.950527   -1.506053   -4.526629
     12          6           0        1.348161   -2.655302   -1.184822
     13          6           0        0.501909   -3.809638   -1.741299
     14          6           0       -0.103845   -4.639461   -0.672713
     15          8           0        0.503178   -5.635368   -0.244469
     16          8           0       -1.372646   -4.161539   -0.400795
     17          7           0        3.371429    2.727282   -1.218065
     18          6           0        2.462761    2.557510   -2.190154
     19          6           0        1.803535    3.792213   -2.534516
     20          6           0        2.343832    4.773847   -1.740731
     21          6           0        3.391514    4.032339   -0.948667
     22          6           0        0.729885    3.914187   -3.604090
     23          6           0        2.089423    6.241289   -1.854360
     24          8           0        1.333562    6.653007   -2.725349
     25          6           0        2.697157    7.208960   -0.895275
     26          7           0        5.449753    2.682717    1.079405
     27          6           0        5.131755    4.025929    0.984328
     28          6           0        5.842150    4.821266    2.135702
     29          6           0        6.788046    3.645395    2.666302
     30          6           0        6.298847    2.374896    2.053658
     31          6           0        6.586138    6.090094    1.744736
     32          6           0        6.982185    3.484413    4.224240
     33          6           0        8.391301    3.251929    4.784991
     34          7           0        5.837115   -0.215092    0.641852
     35          6           0        6.552096   -0.093998    1.784073
     36          6           0        6.987637   -1.371094    2.125492
     37          6           0        6.222709   -2.270821    1.281575
     38          6           0        5.547180   -1.503567    0.415160
     39          6           0        7.903697   -1.807344    3.148019
     40          6           0        5.983451   -3.705722    0.946377
     41          8           0        6.489876   -4.744781    1.301055
     42          6           0        4.965919   -3.692277   -0.210250
     43          6           0        5.650662   -4.276358   -1.514544
     44          8           0        6.749313   -3.846605   -1.834655
     45          8           0        4.944837   -5.298852   -2.064197
     46          6           0        5.546032   -5.741184   -3.339456
     47          6           0       -2.019402   -4.857724    0.741614
     48          6           0       -3.449118   -4.422201    0.776852
     49          6           0       -4.278162   -4.227113    1.836649
     50          6           0       -3.834177   -4.574282    3.282720
     51          6           0       -5.773988   -4.013867    1.578793
     52          6           0       -6.283009   -2.675101    2.096786
     53          6           0       -7.744539   -2.355438    1.637069
     54          6           0       -8.043275   -0.811777    1.509959
     55          6           0       -7.819029   -0.171069    2.911775
     56          6           0       -7.205032   -0.005370    0.445201
     57          6           0       -8.021832    0.242393   -0.784903
     58          6           0       -8.687417    1.682762   -0.744907
     59          6           0      -10.026437    1.901201   -1.459633
     60          6           0       -9.929551    2.979669   -2.536492
     61          6           0      -11.119056    2.231153   -0.435378
     62          6           0      -11.806247    0.949008    0.019476
     63          6           0      -13.361674    0.880938   -0.131385
     64          6           0      -14.132468    1.486844    1.084632
     65          6           0      -15.100494    0.456861    1.675702
     66          6           0      -14.783635    2.778402    0.695778
     67          1           0        1.512333    1.126886   -3.579699
     68          1           0        4.130498    5.703647    0.256129
     69          1           0        7.509679    1.120689    3.229572
     70          1           0        2.962678   -3.122491   -2.504492
     71          1           0        1.174909   -1.230775   -3.361692
     72          1           0        3.829974   -0.874618   -4.653670
     73          1           0        2.319827   -1.304110   -5.392788
     74          1           0        3.185528   -2.570553   -4.523966
     75          1           0        0.706123   -1.790960   -1.015596
     76          1           0        1.662308   -3.069326   -0.227162
     77          1           0        1.015256   -4.474340   -2.436674
     78          1           0       -0.278431   -3.347190   -2.345858
     79          1           0        0.313903    2.949743   -3.897939
     80          1           0        0.966810    4.484413   -4.501831
     81          1           0       -0.034949    4.497001   -3.090420
     82          1           0        2.447278    6.847068    0.101956
     83          1           0        2.437588    8.264273   -0.981848
     84          1           0        3.748459    7.250935   -1.178227
     85          1           0        5.117392    5.204991    2.853155
     86          1           0        7.731975    3.881165    2.175086
     87          1           0        6.349425    6.475246    0.752430
     88          1           0        7.640272    5.870698    1.576534
     89          1           0        6.335611    6.920935    2.404710
     90          1           0        6.352246    2.642035    4.508985
     91          1           0        6.533239    4.381586    4.650494
     92          1           0        8.567515    3.907288    5.638168
     93          1           0        9.151198    3.511717    4.048415
     94          1           0        8.581149    2.217944    5.072898
     95          1           0        7.765392   -2.801879    3.572498
     96          1           0        7.648115   -1.293772    4.074015
     97          1           0        8.907516   -1.482919    2.875811
     98          1           0        4.048587   -4.258799   -0.052432
     99          1           0        5.230619   -4.990015   -4.063383
    100          1           0        5.176478   -6.678801   -3.755497
    101          1           0        6.630671   -5.836778   -3.387195
    102          1           0       -1.548666   -4.584739    1.686056
    103          1           0       -1.948131   -5.926983    0.540219
    104          1           0       -3.885899   -4.290805   -0.213109
    105          1           0       -3.141528   -5.413268    3.210759
    106          1           0       -4.600575   -5.045449    3.899355
    107          1           0       -3.332723   -3.786650    3.843968
    108          1           0       -6.212123   -4.835627    2.146104
    109          1           0       -5.917050   -4.106666    0.502354
    110          1           0       -5.564158   -1.874146    1.925354
    111          1           0       -6.242001   -2.840950    3.173519
    112          1           0       -8.514295   -2.697898    2.328832
    113          1           0       -8.005380   -2.803949    0.679229
    114          1           0       -9.104078   -0.797672    1.260275
    115          1           0       -6.846943   -0.400273    3.348538
    116          1           0       -8.574714   -0.454156    3.643412
    117          1           0       -7.869949    0.917786    2.869827
    118          1           0       -6.362347   -0.661804    0.231645
    119          1           0       -6.788375    0.865092    0.951561
    120          1           0       -8.812194   -0.450200   -1.073290
    121          1           0       -7.237294    0.118835   -1.531900
    122          1           0       -7.911868    2.374050   -1.073452
    123          1           0       -8.774943    1.914828    0.316716
    124          1           0      -10.299668    1.017739   -2.035023
    125          1           0      -10.291620    3.962472   -2.232966
    126          1           0      -10.480728    2.622879   -3.407483
    127          1           0       -8.887259    3.186780   -2.777028
    128          1           0      -11.868148    2.884041   -0.881499
    129          1           0      -10.681088    2.832376    0.362520
    130          1           0      -11.633404    0.932870    1.095835
    131          1           0      -11.410907    0.061180   -0.473502
    132          1           0      -13.540641   -0.193334   -0.184837
    133          1           0      -13.799647    1.309052   -1.033345
    134          1           0      -13.488883    1.662783    1.945496
    135          1           0      -15.573307    0.939228    2.531443
    136          1           0      -14.534821   -0.368175    2.109334
    137          1           0      -15.812315    0.102208    0.930955
    138          1           0      -14.868388    3.592756    1.415168
    139          1           0      -15.785791    2.609009    0.299390
    140          1           0      -14.370549    3.134428   -0.248168
 ---------------------------------------------------------------------

 SCF Done:  E(RCAM-B3LYP) =  -3007.17812031     A.U. after   17 cycles

 Excitation energies and oscillator strengths:

 Excited State   1:      Singlet-A      1.7366 eV  713.95 nm  f=0.3833  <S**2>=0.000
     245 -> 248        0.17381
     246 -> 247        0.68684
     245 <- 248        0.10510
 This state for optimization and/or second-order correction.
 Total Energy, E(TD-HF/TD-DFT) =  -3007.11430159
 Copying the excited state density for this state as the 1-particle RhoCI density.

 Excited State   2:      Singlet-A      2.2293 eV  556.15 nm  f=0.1550  <S**2>=0.000
     245 -> 247        0.65054
     246 -> 248       -0.25742

 Excited State   3:      Singlet-A      2.9855 eV  415.28 nm  f=0.0110  <S**2>=0.000
     244 -> 247        0.68854

 Excited State   4:      Singlet-A      3.4412 eV  360.29 nm  f=0.0101  <S**2>=0.000
     241 -> 247        0.11049
     242 -> 247        0.59343
     242 -> 249       -0.20899
     242 -> 250       -0.18932
     246 -> 248       -0.11053

 Excited State   5:      Singlet-A      3.6109 eV  343.36 nm  f=0.0079  <S**2>=0.000
     240 -> 249        0.15083
     240 -> 250       -0.11536
     241 -> 247        0.54278
     241 -> 248       -0.12697
     241 -> 249        0.24538
     241 -> 250       -0.15000
     242 -> 247       -0.11814
     246 -> 248       -0.12137

 The electronic state is 1-A.
 Alpha  occ. eigenvalues --  -46.89047 -19.26636 -19.26022 -19.20304 -19.19709
 Alpha  occ. eigenvalues --  -19.18523 -19.18436 -14.42446 -14.41654 -14.40334
 Alpha  occ. eigenvalues --  -14.37927 -10.39682 -10.39569 -10.34841 -10.34555
 Alpha  occ. eigenvalues --  -10.32425 -10.32125 -10.31236 -10.31151 -10.30997
 Alpha  occ. eigenvalues --  -10.30764 -10.30409 -10.29791 -10.28826 -10.28283
 Alpha  occ. eigenvalues --  -10.28271 -10.28192 -10.28104 -10.27848 -10.27826
 Alpha  occ. eigenvalues --  -10.27822 -10.27591 -10.27480 -10.27470 -10.27219
 Alpha  occ. eigenvalues --  -10.27124 -10.26844 -10.26717 -10.26603 -10.26600
 Alpha  occ. eigenvalues --  -10.26520 -10.26476 -10.26372 -10.26235 -10.26183
 Alpha  occ. eigenvalues --  -10.26051 -10.25948 -10.25757 -10.25675 -10.25572
 Alpha  occ. eigenvalues --  -10.25469 -10.25457 -10.25235 -10.25099 -10.24977
 Alpha  occ. eigenvalues --  -10.24740 -10.24708 -10.24683 -10.24581 -10.24497
 Alpha  occ. eigenvalues --  -10.24344 -10.24228 -10.24219 -10.24182 -10.24001
 Alpha  occ. eigenvalues --  -10.23823  -3.17454  -1.92392  -1.91876  -1.91768
 Alpha  occ. eigenvalues --   -1.16817  -1.15758  -1.10022  -1.09835  -1.08143
 Alpha  occ. eigenvalues --   -1.07908  -1.05346  -1.04741  -1.04193  -1.03324
 Alpha  occ. eigenvalues --   -0.92560  -0.90647  -0.90236  -0.89942  -0.88768
 Alpha  occ. eigenvalues --   -0.88673  -0.88265  -0.88002  -0.87629  -0.87173
 Alpha  occ. eigenvalues --   -0.86477  -0.86108  -0.84696  -0.83798  -0.83456
 Alpha  occ. eigenvalues --   -0.82597  -0.82257  -0.81384  -0.80961  -0.80678
 Alpha  occ. eigenvalues --   -0.79944  -0.78441  -0.77864  -0.77450  -0.76265
 Alpha  occ. eigenvalues --   -0.75871  -0.75860  -0.75553  -0.74725  -0.74066
 Alpha  occ. eigenvalues --   -0.73464  -0.72776  -0.71944  -0.70894  -0.69155
 Alpha  occ. eigenvalues --   -0.68424  -0.67841  -0.67677  -0.67129  -0.65781
 Alpha  occ. eigenvalues --   -0.65679  -0.65572  -0.65195  -0.64585  -0.64015
 Alpha  occ. eigenvalues --   -0.63966  -0.63020  -0.62982  -0.61556  -0.60669
 Alpha  occ. eigenvalues --   -0.59851  -0.59608  -0.59370  -0.58606  -0.58322
 Alpha  occ. eigenvalues --   -0.57633  -0.57351  -0.56641  -0.56042  -0.55788
 Alpha  occ. eigenvalues --   -0.55602  -0.55500  -0.55165  -0.54622  -0.54525
 Alpha  occ. eigenvalues --   -0.53884  -0.53414  -0.53175  -0.53070  -0.52907
 Alpha  occ. eigenvalues --   -0.52662  -0.52580  -0.52339  -0.52033  -0.51952
 Alpha  occ. eigenvalues --   -0.51752  -0.51399  -0.51347  -0.50972  -0.50479
 Alpha  occ. eigenvalues --   -0.50306  -0.50206  -0.50061  -0.49971  -0.49800
 Alpha  occ. eigenvalues --   -0.49614  -0.49387  -0.49295  -0.49291  -0.49026
 Alpha  occ. eigenvalues --   -0.48657  -0.48319  -0.48182  -0.47998  -0.47748
 Alpha  occ. eigenvalues --   -0.47500  -0.47271  -0.46959  -0.46810  -0.46506
 Alpha  occ. eigenvalues --   -0.46348  -0.46213  -0.46086  -0.46041  -0.45807
 Alpha  occ. eigenvalues --   -0.45516  -0.45273  -0.45168  -0.45058  -0.44905
 Alpha  occ. eigenvalues --   -0.44656  -0.44442  -0.44268  -0.44175  -0.44046
 Alpha  occ. eigenvalues --   -0.43857  -0.43754  -0.43530  -0.43264  -0.43077
 Alpha  occ. eigenvalues --   -0.42874  -0.42825  -0.42757  -0.42550  -0.42232
 Alpha  occ. eigenvalues --   -0.42200  -0.41861  -0.41672  -0.41374  -0.41179
 Alpha  occ. eigenvalues --   -0.41140  -0.40842  -0.40502  -0.40411  -0.40260
 Alpha  occ. eigenvalues --   -0.39879  -0.39527  -0.39470  -0.39187  -0.38577
 Alpha  occ. eigenvalues --   -0.38475  -0.38318  -0.38165  -0.37905  -0.37738
 Alpha  occ. eigenvalues --   -0.37525  -0.37320  -0.37270  -0.36755  -0.36634
 Alpha  occ. eigenvalues --   -0.36475  -0.35311  -0.34607  -0.34331  -0.34099
 Alpha  occ. eigenvalues --   -0.33916  -0.33831  -0.33104  -0.31606  -0.31085
 Alpha  occ. eigenvalues --   -0.30617  -0.30400  -0.30251  -0.28500  -0.24072
 Alpha  occ. eigenvalues --   -0.21517
 Alpha virt. eigenvalues --   -0.08970  -0.01442   0.01051   0.02770   0.03402
 Alpha virt. eigenvalues --    0.04127   0.04711   0.04992   0.05320   0.06607
 Alpha virt. eigenvalues --    0.07800   0.08272   0.08732   0.08859   0.08988

 Mulliken charges:
               1
     1  Mg   0.813462
     2  C   -0.075694
     3  C   -0.046529
     4  C   -0.054330
     5  C   -0.103167
     6  N   -0.279692
     7  C   -0.015483
     8  C   -0.056115
     9  C   -0.038155
    10  C   -0.035075
    11  C    0.106442
    12  C    0.063195
    13  C    0.102638
    14  C    0.153951
    15  O   -0.250630
    16  O   -0.348749
    17  N   -0.302724
    18  C    0.128271
    19  C   -0.131117
    20  C   -0.045623
    21  C    0.110016
    22  C    0.140822
    23  C   -0.027644
    24  O   -0.206465
    25  C    0.078689
    26  N   -0.297842
    27  C    0.043968
    28  C   -0.065321
    29  C   -0.012534
    30  C    0.064202
    31  C    0.071071
    32  C    0.026660
    33  C    0.012305
    34  N   -0.318441
    35  C    0.139752
    36  C   -0.163755
    37  C   -0.046330
    38  C    0.160624
    39  C    0.135898
    40  C    0.086491
    41  O   -0.150172
    42  C    0.019919
    43  C    0.194553
    44  O   -0.219143
    45  O   -0.303675
    46  C    0.174987
    47  C    0.297843
    48  C   -0.140200
    49  C   -0.162013
    50  C    0.043802
    51  C    0.096715
    52  C   -0.016050
    53  C    0.069013
    54  C   -0.127783
    55  C    0.019018
    56  C    0.060322
    57  C    0.029709
    58  C    0.055497
    59  C   -0.144707
    60  C    0.055529
    61  C    0.078471
    62  C    0.011118
    63  C    0.049030
    64  C   -0.136619
    65  C    0.039401
    66  C    0.059965
    67  H   -0.040609
    68  H   -0.055817
    69  H   -0.045056
    70  H   -0.015045
    71  H   -0.001681
    72  H    0.030466
    73  H    0.016966
    74  H    0.011028
    75  H    0.017039
    76  H    0.018409
    77  H    0.023726
    78  H    0.008043
    79  H   -0.000128
    80  H    0.037043
    81  H    0.027663
    82  H    0.050616
    83  H    0.016814
    84  H    0.039594
    85  H    0.015635
    86  H    0.013397
    87  H    0.005216
    88  H    0.002643
    89  H    0.019395
    90  H    0.013558
    91  H    0.000989
    92  H    0.014789
    93  H    0.009205
    94  H    0.027980
    95  H    0.028588
    96  H   -0.003698
    97  H    0.031438
    98  H    0.031460
    99  H    0.021713
   100  H    0.038157
   101  H    0.055253
   102  H    0.029773
   103  H    0.042950
   104  H   -0.000459
   105  H    0.016156
   106  H    0.014581
   107  H    0.038001
   108  H    0.007551
   109  H   -0.004515
   110  H    0.017531
   111  H   -0.002359
   112  H   -0.002427
   113  H   -0.009039
   114  H   -0.006668
   115  H    0.007391
   116  H   -0.001570
   117  H    0.000387
   118  H   -0.014453
   119  H   -0.001159
   120  H   -0.000944
   121  H   -0.011572
   122  H   -0.008799
   123  H   -0.010903
   124  H   -0.006107
   125  H    0.002341
   126  H    0.008681
   127  H   -0.004831
   128  H   -0.015981
   129  H   -0.005483
   130  H    0.001264
   131  H    0.007766
   132  H   -0.017769
   133  H   -0.008376
   134  H   -0.010180
   135  H    0.002099
   136  H    0.003850
   137  H    0.011711
   138  H    0.015530
   139  H   -0.014219
   140  H   -0.006111
 Sum of Mulliken charges =  -0.00000

 Dipole moment (field-independent basis, Debye):
    X=             -2.7330    Y=              2.6117    Z=              0.8361  Tot=              3.8716
 Quadrupole moment (field-independent basis, Debye-Ang):
   XX=           -411.8322   YY=           -424.9981   ZZ=           -382.5123
   XY=             50.8527   XZ=             -1.3763   YZ=             34.5986

 Normal termination of Gaussian 16 at Wed May  4 02:39:15 2022.
