 Gaussian 16, Revision A.03,
 Gaussian 16:  ES64L-G16RevA.03 25-Dec-2016

 ---------------------------------
 #p PBE1PBE/Def2SVP td=(nstates=5)
 ---------------------------------

 ------------------------------------------------------
 step_1301_chromophore_17 TDDFT with PBE1PBE functional
 ------------------------------------------------------
 Symbolic Z-matrix:
 Charge =  0 Multiplicity = 1

                         Standard orientation:
 ---------------------------------------------------------------------
 Center     Atomic      Atomic             Coordinates (Angstroms)
 Number     Number       Type             X           Y           Z
 ---------------------------------------------------------------------
      1         12           0        4.634406    1.291693   -0.337402
      2          6           0        4.675809   -2.166887   -0.431496
      3          6           0        2.235977    1.259162   -2.773188
      4          6           0        4.225722    4.625075    0.114846
      5          6           0        6.782697    1.132251    2.415284
      6          7           0        3.681729   -0.250174   -1.499892
      7          6           0        3.710603   -1.553186   -1.199619
      8          6           0        2.559070   -2.221682   -2.039712
      9          6           0        2.252093   -1.248499   -3.198198
     10          6           0        2.709778   -0.022791   -2.450328
     11          6           0        2.950527   -1.506053   -4.526629
     12          6           0        1.348161   -2.655302   -1.184822
     13          6           0        0.501909   -3.809638   -1.741299
     14          6           0       -0.103845   -4.639461   -0.672713
     15          8           0        0.503178   -5.635368   -0.244469
     16          8           0       -1.372646   -4.161539   -0.400795
     17          7           0        3.371429    2.727282   -1.218065
     18          6           0        2.462761    2.557510   -2.190154
     19          6           0        1.803535    3.792213   -2.534516
     20          6           0        2.343832    4.773847   -1.740731
     21          6           0        3.391514    4.032339   -0.948667
     22          6           0        0.729885    3.914187   -3.604090
     23          6           0        2.089423    6.241289   -1.854360
     24          8           0        1.333562    6.653007   -2.725349
     25          6           0        2.697157    7.208960   -0.895275
     26          7           0        5.449753    2.682717    1.079405
     27          6           0        5.131755    4.025929    0.984328
     28          6           0        5.842150    4.821266    2.135702
     29          6           0        6.788046    3.645395    2.666302
     30          6           0        6.298847    2.374896    2.053658
     31          6           0        6.586138    6.090094    1.744736
     32          6           0        6.982185    3.484413    4.224240
     33          6           0        8.391301    3.251929    4.784991
     34          7           0        5.837115   -0.215092    0.641852
     35          6           0        6.552096   -0.093998    1.784073
     36          6           0        6.987637   -1.371094    2.125492
     37          6           0        6.222709   -2.270821    1.281575
     38          6           0        5.547180   -1.503567    0.415160
     39          6           0        7.903697   -1.807344    3.148019
     40          6           0        5.983451   -3.705722    0.946377
     41          8           0        6.489876   -4.744781    1.301055
     42          6           0        4.965919   -3.692277   -0.210250
     43          6           0        5.650662   -4.276358   -1.514544
     44          8           0        6.749313   -3.846605   -1.834655
     45          8           0        4.944837   -5.298852   -2.064197
     46          6           0        5.546032   -5.741184   -3.339456
     47          6           0       -2.019402   -4.857724    0.741614
     48          6           0       -3.449118   -4.422201    0.776852
     49          6           0       -4.278162   -4.227113    1.836649
     50          6           0       -3.834177   -4.574282    3.282720
     51          6           0       -5.773988   -4.013867    1.578793
     52          6           0       -6.283009   -2.675101    2.096786
     53          6           0       -7.744539   -2.355438    1.637069
     54          6           0       -8.043275   -0.811777    1.509959
     55          6           0       -7.819029   -0.171069    2.911775
     56          6           0       -7.205032   -0.005370    0.445201
     57          6           0       -8.021832    0.242393   -0.784903
     58          6           0       -8.687417    1.682762   -0.744907
     59          6           0      -10.026437    1.901201   -1.459633
     60          6           0       -9.929551    2.979669   -2.536492
     61          6           0      -11.119056    2.231153   -0.435378
     62          6           0      -11.806247    0.949008    0.019476
     63          6           0      -13.361674    0.880938   -0.131385
     64          6           0      -14.132468    1.486844    1.084632
     65          6           0      -15.100494    0.456861    1.675702
     66          6           0      -14.783635    2.778402    0.695778
     67          1           0        1.512333    1.126886   -3.579699
     68          1           0        4.130498    5.703647    0.256129
     69          1           0        7.509679    1.120689    3.229572
     70          1           0        2.962678   -3.122491   -2.504492
     71          1           0        1.174909   -1.230775   -3.361692
     72          1           0        3.829974   -0.874618   -4.653670
     73          1           0        2.319827   -1.304110   -5.392788
     74          1           0        3.185528   -2.570553   -4.523966
     75          1           0        0.706123   -1.790960   -1.015596
     76          1           0        1.662308   -3.069326   -0.227162
     77          1           0        1.015256   -4.474340   -2.436674
     78          1           0       -0.278431   -3.347190   -2.345858
     79          1           0        0.313903    2.949743   -3.897939
     80          1           0        0.966810    4.484413   -4.501831
     81          1           0       -0.034949    4.497001   -3.090420
     82          1           0        2.447278    6.847068    0.101956
     83          1           0        2.437588    8.264273   -0.981848
     84          1           0        3.748459    7.250935   -1.178227
     85          1           0        5.117392    5.204991    2.853155
     86          1           0        7.731975    3.881165    2.175086
     87          1           0        6.349425    6.475246    0.752430
     88          1           0        7.640272    5.870698    1.576534
     89          1           0        6.335611    6.920935    2.404710
     90          1           0        6.352246    2.642035    4.508985
     91          1           0        6.533239    4.381586    4.650494
     92          1           0        8.567515    3.907288    5.638168
     93          1           0        9.151198    3.511717    4.048415
     94          1           0        8.581149    2.217944    5.072898
     95          1           0        7.765392   -2.801879    3.572498
     96          1           0        7.648115   -1.293772    4.074015
     97          1           0        8.907516   -1.482919    2.875811
     98          1           0        4.048587   -4.258799   -0.052432
     99          1           0        5.230619   -4.990015   -4.063383
    100          1           0        5.176478   -6.678801   -3.755497
    101          1           0        6.630671   -5.836778   -3.387195
    102          1           0       -1.548666   -4.584739    1.686056
    103          1           0       -1.948131   -5.926983    0.540219
    104          1           0       -3.885899   -4.290805   -0.213109
    105          1           0       -3.141528   -5.413268    3.210759
    106          1           0       -4.600575   -5.045449    3.899355
    107          1           0       -3.332723   -3.786650    3.843968
    108          1           0       -6.212123   -4.835627    2.146104
    109          1           0       -5.917050   -4.106666    0.502354
    110          1           0       -5.564158   -1.874146    1.925354
    111          1           0       -6.242001   -2.840950    3.173519
    112          1           0       -8.514295   -2.697898    2.328832
    113          1           0       -8.005380   -2.803949    0.679229
    114          1           0       -9.104078   -0.797672    1.260275
    115          1           0       -6.846943   -0.400273    3.348538
    116          1           0       -8.574714   -0.454156    3.643412
    117          1           0       -7.869949    0.917786    2.869827
    118          1           0       -6.362347   -0.661804    0.231645
    119          1           0       -6.788375    0.865092    0.951561
    120          1           0       -8.812194   -0.450200   -1.073290
    121          1           0       -7.237294    0.118835   -1.531900
    122          1           0       -7.911868    2.374050   -1.073452
    123          1           0       -8.774943    1.914828    0.316716
    124          1           0      -10.299668    1.017739   -2.035023
    125          1           0      -10.291620    3.962472   -2.232966
    126          1           0      -10.480728    2.622879   -3.407483
    127          1           0       -8.887259    3.186780   -2.777028
    128          1           0      -11.868148    2.884041   -0.881499
    129          1           0      -10.681088    2.832376    0.362520
    130          1           0      -11.633404    0.932870    1.095835
    131          1           0      -11.410907    0.061180   -0.473502
    132          1           0      -13.540641   -0.193334   -0.184837
    133          1           0      -13.799647    1.309052   -1.033345
    134          1           0      -13.488883    1.662783    1.945496
    135          1           0      -15.573307    0.939228    2.531443
    136          1           0      -14.534821   -0.368175    2.109334
    137          1           0      -15.812315    0.102208    0.930955
    138          1           0      -14.868388    3.592756    1.415168
    139          1           0      -15.785791    2.609009    0.299390
    140          1           0      -14.370549    3.134428   -0.248168
 ---------------------------------------------------------------------

 SCF Done:  E(RPBE1PBE) =  -3005.36730238     A.U. after   16 cycles

 Excitation energies and oscillator strengths:

 Excited State   1:      Singlet-A      1.8966 eV  653.72 nm  f=0.3688  <S**2>=0.000
     245 -> 248        0.16843
     246 -> 247        0.69344
     246 <- 247       -0.10940
 This state for optimization and/or second-order correction.
 Total Energy, E(TD-HF/TD-DFT) =  -3005.29760370
 Copying the excited state density for this state as the 1-particle RhoCI density.

 Excited State   2:      Singlet-A      2.2490 eV  551.29 nm  f=0.1424  <S**2>=0.000
     245 -> 247        0.65608
     246 -> 248       -0.23288

 Excited State   3:      Singlet-A      2.6992 eV  459.33 nm  f=0.0145  <S**2>=0.000
     244 -> 247        0.69424

 Excited State   4:      Singlet-A      2.8973 eV  427.92 nm  f=0.0005  <S**2>=0.000
     243 -> 247        0.68334
     243 -> 249       -0.11254

 Excited State   5:      Singlet-A      3.0405 eV  407.78 nm  f=0.0010  <S**2>=0.000
     242 -> 247        0.67194
     242 -> 248       -0.10107
     242 -> 249        0.14468

 The electronic state is 1-A.
 Alpha  occ. eigenvalues --  -46.92403 -19.27272 -19.26724 -19.20622 -19.19937
 Alpha  occ. eigenvalues --  -19.18683 -19.18681 -14.41859 -14.41221 -14.39888
 Alpha  occ. eigenvalues --  -14.37606 -10.36733 -10.36622 -10.31998 -10.31664
 Alpha  occ. eigenvalues --  -10.29779 -10.29350 -10.28966 -10.28843 -10.28672
 Alpha  occ. eigenvalues --  -10.28512 -10.28065 -10.27513 -10.26465 -10.26100
 Alpha  occ. eigenvalues --  -10.25987 -10.25887 -10.25872 -10.25558 -10.25509
 Alpha  occ. eigenvalues --  -10.25477 -10.25326 -10.25172 -10.25074 -10.24843
 Alpha  occ. eigenvalues --  -10.24788 -10.24524 -10.24354 -10.24203 -10.24122
 Alpha  occ. eigenvalues --  -10.24056 -10.24054 -10.23897 -10.23673 -10.23582
 Alpha  occ. eigenvalues --  -10.23564 -10.23484 -10.23381 -10.23199 -10.23108
 Alpha  occ. eigenvalues --  -10.23020 -10.22912 -10.22872 -10.22655 -10.22523
 Alpha  occ. eigenvalues --  -10.22275 -10.22267 -10.22212 -10.22118 -10.22052
 Alpha  occ. eigenvalues --  -10.22030 -10.21715 -10.21608 -10.21595 -10.21364
 Alpha  occ. eigenvalues --  -10.21204  -3.14396  -1.87275  -1.86736  -1.86630
 Alpha  occ. eigenvalues --   -1.11593  -1.10564  -1.04729  -1.04592  -1.02951
 Alpha  occ. eigenvalues --   -1.02777  -0.99983  -0.99434  -0.98809  -0.97982
 Alpha  occ. eigenvalues --   -0.86894  -0.84798  -0.84394  -0.84044  -0.82983
 Alpha  occ. eigenvalues --   -0.82855  -0.82560  -0.82260  -0.81752  -0.81522
 Alpha  occ. eigenvalues --   -0.80804  -0.80365  -0.78863  -0.78016  -0.77725
 Alpha  occ. eigenvalues --   -0.76752  -0.76507  -0.75590  -0.75218  -0.74982
 Alpha  occ. eigenvalues --   -0.74125  -0.72679  -0.72199  -0.71745  -0.70570
 Alpha  occ. eigenvalues --   -0.70014  -0.69940  -0.69927  -0.68846  -0.68213
 Alpha  occ. eigenvalues --   -0.67794  -0.67176  -0.66341  -0.65220  -0.63498
 Alpha  occ. eigenvalues --   -0.62823  -0.62198  -0.62091  -0.61305  -0.60191
 Alpha  occ. eigenvalues --   -0.59990  -0.59858  -0.59775  -0.59128  -0.58496
 Alpha  occ. eigenvalues --   -0.58081  -0.57557  -0.57160  -0.55774  -0.55097
 Alpha  occ. eigenvalues --   -0.54420  -0.54101  -0.53962  -0.53219  -0.52882
 Alpha  occ. eigenvalues --   -0.52049  -0.51761  -0.51154  -0.50536  -0.50407
 Alpha  occ. eigenvalues --   -0.50050  -0.49903  -0.49704  -0.49139  -0.49134
 Alpha  occ. eigenvalues --   -0.48308  -0.47859  -0.47647  -0.47528  -0.47371
 Alpha  occ. eigenvalues --   -0.47159  -0.47067  -0.47007  -0.46599  -0.46507
 Alpha  occ. eigenvalues --   -0.46271  -0.45909  -0.45872  -0.45528  -0.44995
 Alpha  occ. eigenvalues --   -0.44928  -0.44766  -0.44710  -0.44518  -0.44400
 Alpha  occ. eigenvalues --   -0.44226  -0.43944  -0.43901  -0.43839  -0.43636
 Alpha  occ. eigenvalues --   -0.43236  -0.42934  -0.42843  -0.42545  -0.42468
 Alpha  occ. eigenvalues --   -0.42092  -0.41898  -0.41588  -0.41432  -0.41197
 Alpha  occ. eigenvalues --   -0.41046  -0.40856  -0.40791  -0.40705  -0.40409
 Alpha  occ. eigenvalues --   -0.40247  -0.39944  -0.39888  -0.39719  -0.39622
 Alpha  occ. eigenvalues --   -0.39402  -0.39227  -0.38935  -0.38882  -0.38804
 Alpha  occ. eigenvalues --   -0.38686  -0.38546  -0.38279  -0.37951  -0.37879
 Alpha  occ. eigenvalues --   -0.37674  -0.37603  -0.37456  -0.37313  -0.37055
 Alpha  occ. eigenvalues --   -0.36925  -0.36664  -0.36492  -0.36248  -0.35980
 Alpha  occ. eigenvalues --   -0.35899  -0.35692  -0.35330  -0.35262  -0.35002
 Alpha  occ. eigenvalues --   -0.34788  -0.34371  -0.34268  -0.33931  -0.33615
 Alpha  occ. eigenvalues --   -0.33204  -0.33150  -0.32911  -0.32899  -0.32543
 Alpha  occ. eigenvalues --   -0.32505  -0.32218  -0.32204  -0.31802  -0.31517
 Alpha  occ. eigenvalues --   -0.31452  -0.30205  -0.29526  -0.29361  -0.29014
 Alpha  occ. eigenvalues --   -0.28820  -0.28801  -0.28626  -0.27153  -0.26515
 Alpha  occ. eigenvalues --   -0.25535  -0.25489  -0.25268  -0.24154  -0.21023
 Alpha  occ. eigenvalues --   -0.19094
 Alpha virt. eigenvalues --   -0.11366  -0.05010  -0.03193  -0.01691  -0.00597
 Alpha virt. eigenvalues --    0.00259   0.00596   0.00941   0.01594   0.02612
 Alpha virt. eigenvalues --    0.03494   0.04638   0.04951   0.05633   0.05688

 Mulliken charges:
               1
     1  Mg   0.959409
     2  C   -0.089526
     3  C   -0.040586
     4  C   -0.053393
     5  C   -0.084361
     6  N   -0.385507
     7  C    0.065463
     8  C   -0.141923
     9  C   -0.112498
    10  C    0.003512
    11  C    0.051557
    12  C    0.013414
    13  C    0.031530
    14  C    0.215842
    15  O   -0.281778
    16  O   -0.377549
    17  N   -0.422790
    18  C    0.148039
    19  C   -0.154862
    20  C   -0.087783
    21  C    0.146144
    22  C    0.086261
    23  C    0.022521
    24  O   -0.242212
    25  C   -0.003943
    26  N   -0.411707
    27  C    0.082556
    28  C   -0.143330
    29  C   -0.085633
    30  C    0.106325
    31  C    0.017441
    32  C   -0.044011
    33  C   -0.058426
    34  N   -0.447260
    35  C    0.162178
    36  C   -0.190945
    37  C   -0.092097
    38  C    0.215915
    39  C    0.082610
    40  C    0.183981
    41  O   -0.196988
    42  C   -0.089159
    43  C    0.284903
    44  O   -0.249894
    45  O   -0.336761
    46  C    0.115996
    47  C    0.253720
    48  C   -0.149260
    49  C   -0.201213
    50  C   -0.017004
    51  C    0.029091
    52  C   -0.082609
    53  C    0.017209
    54  C   -0.213827
    55  C   -0.040712
    56  C    0.002320
    57  C   -0.034787
    58  C    0.009635
    59  C   -0.238051
    60  C   -0.001355
    61  C    0.024590
    62  C   -0.053426
    63  C   -0.006751
    64  C   -0.227236
    65  C   -0.024934
    66  C    0.000677
    67  H   -0.008157
    68  H   -0.021014
    69  H   -0.007732
    70  H    0.028138
    71  H    0.034908
    72  H    0.057475
    73  H    0.044179
    74  H    0.038962
    75  H    0.049274
    76  H    0.053854
    77  H    0.054253
    78  H    0.041055
    79  H    0.027517
    80  H    0.063966
    81  H    0.055856
    82  H    0.076651
    83  H    0.045560
    84  H    0.067258
    85  H    0.051512
    86  H    0.052183
    87  H    0.032364
    88  H    0.029328
    89  H    0.046251
    90  H    0.047829
    91  H    0.035134
    92  H    0.043225
    93  H    0.036968
    94  H    0.053086
    95  H    0.055068
    96  H    0.024370
    97  H    0.059776
    98  H    0.067638
    99  H    0.045145
   100  H    0.060190
   101  H    0.076603
   102  H    0.056316
   103  H    0.069515
   104  H    0.029800
   105  H    0.043522
   106  H    0.040680
   107  H    0.064831
   108  H    0.041470
   109  H    0.027061
   110  H    0.048419
   111  H    0.031932
   112  H    0.030449
   113  H    0.023470
   114  H    0.033957
   115  H    0.035133
   116  H    0.026519
   117  H    0.028418
   118  H    0.020308
   119  H    0.030043
   120  H    0.030099
   121  H    0.022053
   122  H    0.023213
   123  H    0.022889
   124  H    0.031584
   125  H    0.029388
   126  H    0.036156
   127  H    0.022879
   128  H    0.018769
   129  H    0.026067
   130  H    0.034454
   131  H    0.038038
   132  H    0.015973
   133  H    0.023429
   134  H    0.027236
   135  H    0.031015
   136  H    0.032738
   137  H    0.039007
   138  H    0.042518
   139  H    0.013939
   140  H    0.021281
 Sum of Mulliken charges =  -0.00000

 Dipole moment (field-independent basis, Debye):
    X=             -2.6842    Y=              2.7040    Z=              0.8702  Tot=              3.9082
 Quadrupole moment (field-independent basis, Debye-Ang):
   XX=           -407.4803   YY=           -421.7189   ZZ=           -378.5382
   XY=             51.7480   XZ=             -0.2273   YZ=             35.1793

 Normal termination of Gaussian 16 at Wed May  4 02:54:52 2022.
