 Gaussian 16, Revision A.03,
 Gaussian 16:  ES64L-G16RevA.03 25-Dec-2016

 --------------------------------
 #p wB97XD/Def2SVP td=(nstates=5)
 --------------------------------

 -----------------------------------------------------
 step_1301_chromophore_17 TDDFT with wB97XD functional
 -----------------------------------------------------
 Symbolic Z-matrix:
 Charge =  0 Multiplicity = 1

                         Standard orientation:
 ---------------------------------------------------------------------
 Center     Atomic      Atomic             Coordinates (Angstroms)
 Number     Number       Type             X           Y           Z
 ---------------------------------------------------------------------
      1         12           0        4.634406    1.291693   -0.337402
      2          6           0        4.675809   -2.166887   -0.431496
      3          6           0        2.235977    1.259162   -2.773188
      4          6           0        4.225722    4.625075    0.114846
      5          6           0        6.782697    1.132251    2.415284
      6          7           0        3.681729   -0.250174   -1.499892
      7          6           0        3.710603   -1.553186   -1.199619
      8          6           0        2.559070   -2.221682   -2.039712
      9          6           0        2.252093   -1.248499   -3.198198
     10          6           0        2.709778   -0.022791   -2.450328
     11          6           0        2.950527   -1.506053   -4.526629
     12          6           0        1.348161   -2.655302   -1.184822
     13          6           0        0.501909   -3.809638   -1.741299
     14          6           0       -0.103845   -4.639461   -0.672713
     15          8           0        0.503178   -5.635368   -0.244469
     16          8           0       -1.372646   -4.161539   -0.400795
     17          7           0        3.371429    2.727282   -1.218065
     18          6           0        2.462761    2.557510   -2.190154
     19          6           0        1.803535    3.792213   -2.534516
     20          6           0        2.343832    4.773847   -1.740731
     21          6           0        3.391514    4.032339   -0.948667
     22          6           0        0.729885    3.914187   -3.604090
     23          6           0        2.089423    6.241289   -1.854360
     24          8           0        1.333562    6.653007   -2.725349
     25          6           0        2.697157    7.208960   -0.895275
     26          7           0        5.449753    2.682717    1.079405
     27          6           0        5.131755    4.025929    0.984328
     28          6           0        5.842150    4.821266    2.135702
     29          6           0        6.788046    3.645395    2.666302
     30          6           0        6.298847    2.374896    2.053658
     31          6           0        6.586138    6.090094    1.744736
     32          6           0        6.982185    3.484413    4.224240
     33          6           0        8.391301    3.251929    4.784991
     34          7           0        5.837115   -0.215092    0.641852
     35          6           0        6.552096   -0.093998    1.784073
     36          6           0        6.987637   -1.371094    2.125492
     37          6           0        6.222709   -2.270821    1.281575
     38          6           0        5.547180   -1.503567    0.415160
     39          6           0        7.903697   -1.807344    3.148019
     40          6           0        5.983451   -3.705722    0.946377
     41          8           0        6.489876   -4.744781    1.301055
     42          6           0        4.965919   -3.692277   -0.210250
     43          6           0        5.650662   -4.276358   -1.514544
     44          8           0        6.749313   -3.846605   -1.834655
     45          8           0        4.944837   -5.298852   -2.064197
     46          6           0        5.546032   -5.741184   -3.339456
     47          6           0       -2.019402   -4.857724    0.741614
     48          6           0       -3.449118   -4.422201    0.776852
     49          6           0       -4.278162   -4.227113    1.836649
     50          6           0       -3.834177   -4.574282    3.282720
     51          6           0       -5.773988   -4.013867    1.578793
     52          6           0       -6.283009   -2.675101    2.096786
     53          6           0       -7.744539   -2.355438    1.637069
     54          6           0       -8.043275   -0.811777    1.509959
     55          6           0       -7.819029   -0.171069    2.911775
     56          6           0       -7.205032   -0.005370    0.445201
     57          6           0       -8.021832    0.242393   -0.784903
     58          6           0       -8.687417    1.682762   -0.744907
     59          6           0      -10.026437    1.901201   -1.459633
     60          6           0       -9.929551    2.979669   -2.536492
     61          6           0      -11.119056    2.231153   -0.435378
     62          6           0      -11.806247    0.949008    0.019476
     63          6           0      -13.361674    0.880938   -0.131385
     64          6           0      -14.132468    1.486844    1.084632
     65          6           0      -15.100494    0.456861    1.675702
     66          6           0      -14.783635    2.778402    0.695778
     67          1           0        1.512333    1.126886   -3.579699
     68          1           0        4.130498    5.703647    0.256129
     69          1           0        7.509679    1.120689    3.229572
     70          1           0        2.962678   -3.122491   -2.504492
     71          1           0        1.174909   -1.230775   -3.361692
     72          1           0        3.829974   -0.874618   -4.653670
     73          1           0        2.319827   -1.304110   -5.392788
     74          1           0        3.185528   -2.570553   -4.523966
     75          1           0        0.706123   -1.790960   -1.015596
     76          1           0        1.662308   -3.069326   -0.227162
     77          1           0        1.015256   -4.474340   -2.436674
     78          1           0       -0.278431   -3.347190   -2.345858
     79          1           0        0.313903    2.949743   -3.897939
     80          1           0        0.966810    4.484413   -4.501831
     81          1           0       -0.034949    4.497001   -3.090420
     82          1           0        2.447278    6.847068    0.101956
     83          1           0        2.437588    8.264273   -0.981848
     84          1           0        3.748459    7.250935   -1.178227
     85          1           0        5.117392    5.204991    2.853155
     86          1           0        7.731975    3.881165    2.175086
     87          1           0        6.349425    6.475246    0.752430
     88          1           0        7.640272    5.870698    1.576534
     89          1           0        6.335611    6.920935    2.404710
     90          1           0        6.352246    2.642035    4.508985
     91          1           0        6.533239    4.381586    4.650494
     92          1           0        8.567515    3.907288    5.638168
     93          1           0        9.151198    3.511717    4.048415
     94          1           0        8.581149    2.217944    5.072898
     95          1           0        7.765392   -2.801879    3.572498
     96          1           0        7.648115   -1.293772    4.074015
     97          1           0        8.907516   -1.482919    2.875811
     98          1           0        4.048587   -4.258799   -0.052432
     99          1           0        5.230619   -4.990015   -4.063383
    100          1           0        5.176478   -6.678801   -3.755497
    101          1           0        6.630671   -5.836778   -3.387195
    102          1           0       -1.548666   -4.584739    1.686056
    103          1           0       -1.948131   -5.926983    0.540219
    104          1           0       -3.885899   -4.290805   -0.213109
    105          1           0       -3.141528   -5.413268    3.210759
    106          1           0       -4.600575   -5.045449    3.899355
    107          1           0       -3.332723   -3.786650    3.843968
    108          1           0       -6.212123   -4.835627    2.146104
    109          1           0       -5.917050   -4.106666    0.502354
    110          1           0       -5.564158   -1.874146    1.925354
    111          1           0       -6.242001   -2.840950    3.173519
    112          1           0       -8.514295   -2.697898    2.328832
    113          1           0       -8.005380   -2.803949    0.679229
    114          1           0       -9.104078   -0.797672    1.260275
    115          1           0       -6.846943   -0.400273    3.348538
    116          1           0       -8.574714   -0.454156    3.643412
    117          1           0       -7.869949    0.917786    2.869827
    118          1           0       -6.362347   -0.661804    0.231645
    119          1           0       -6.788375    0.865092    0.951561
    120          1           0       -8.812194   -0.450200   -1.073290
    121          1           0       -7.237294    0.118835   -1.531900
    122          1           0       -7.911868    2.374050   -1.073452
    123          1           0       -8.774943    1.914828    0.316716
    124          1           0      -10.299668    1.017739   -2.035023
    125          1           0      -10.291620    3.962472   -2.232966
    126          1           0      -10.480728    2.622879   -3.407483
    127          1           0       -8.887259    3.186780   -2.777028
    128          1           0      -11.868148    2.884041   -0.881499
    129          1           0      -10.681088    2.832376    0.362520
    130          1           0      -11.633404    0.932870    1.095835
    131          1           0      -11.410907    0.061180   -0.473502
    132          1           0      -13.540641   -0.193334   -0.184837
    133          1           0      -13.799647    1.309052   -1.033345
    134          1           0      -13.488883    1.662783    1.945496
    135          1           0      -15.573307    0.939228    2.531443
    136          1           0      -14.534821   -0.368175    2.109334
    137          1           0      -15.812315    0.102208    0.930955
    138          1           0      -14.868388    3.592756    1.415168
    139          1           0      -15.785791    2.609009    0.299390
    140          1           0      -14.370549    3.134428   -0.248168
 ---------------------------------------------------------------------

 SCF Done:  E(RwB97XD) =  -3007.87432048     A.U. after   18 cycles

 Excitation energies and oscillator strengths:

 Excited State   1:      Singlet-A      1.6792 eV  738.34 nm  f=0.3825  <S**2>=0.000
     245 -> 248        0.17931
     246 -> 247        0.68467
     245 <- 248        0.11427
 This state for optimization and/or second-order correction.
 Total Energy, E(TD-HF/TD-DFT) =  -3007.81260971
 Copying the excited state density for this state as the 1-particle RhoCI density.

 Excited State   2:      Singlet-A      2.1760 eV  569.78 nm  f=0.1506  <S**2>=0.000
     245 -> 247        0.64799
     246 -> 248       -0.26126

 Excited State   3:      Singlet-A      3.0058 eV  412.48 nm  f=0.0106  <S**2>=0.000
     244 -> 247        0.68185

 Excited State   4:      Singlet-A      3.4699 eV  357.31 nm  f=0.0115  <S**2>=0.000
     242 -> 247        0.58589
     242 -> 249       -0.23212
     242 -> 250       -0.20236
     246 -> 248       -0.10943

 Excited State   5:      Singlet-A      3.6412 eV  340.50 nm  f=0.0162  <S**2>=0.000
     240 -> 249        0.10492
     241 -> 247        0.51785
     241 -> 248       -0.14992
     241 -> 249        0.30594
     241 -> 250       -0.19179
     246 -> 248       -0.14353

 The electronic state is 1-A.
 Alpha  occ. eigenvalues --  -46.95387 -19.31882 -19.31285 -19.25280 -19.24679
 Alpha  occ. eigenvalues --  -19.23586 -19.23443 -14.47078 -14.46224 -14.44910
 Alpha  occ. eigenvalues --  -14.42532 -10.43578 -10.43409 -10.38778 -10.38587
 Alpha  occ. eigenvalues --  -10.36308 -10.35894 -10.35280 -10.35203 -10.35032
 Alpha  occ. eigenvalues --  -10.34793 -10.34392 -10.33803 -10.32841 -10.32364
 Alpha  occ. eigenvalues --  -10.32312 -10.32277 -10.32147 -10.32004 -10.31936
 Alpha  occ. eigenvalues --  -10.31859 -10.31563 -10.31519 -10.31450 -10.31295
 Alpha  occ. eigenvalues --  -10.31183 -10.30955 -10.30673 -10.30623 -10.30454
 Alpha  occ. eigenvalues --  -10.30419 -10.30380 -10.30364 -10.30088 -10.30046
 Alpha  occ. eigenvalues --  -10.29988 -10.29888 -10.29652 -10.29586 -10.29520
 Alpha  occ. eigenvalues --  -10.29390 -10.29388 -10.29156 -10.28959 -10.28936
 Alpha  occ. eigenvalues --  -10.28643 -10.28625 -10.28586 -10.28489 -10.28426
 Alpha  occ. eigenvalues --  -10.28412 -10.28085 -10.28052 -10.28035 -10.27799
 Alpha  occ. eigenvalues --  -10.27632  -3.21236  -1.94864  -1.94326  -1.94219
 Alpha  occ. eigenvalues --   -1.19028  -1.17956  -1.12276  -1.12029  -1.10366
 Alpha  occ. eigenvalues --   -1.10123  -1.07371  -1.06794  -1.06221  -1.05345
 Alpha  occ. eigenvalues --   -0.94560  -0.92474  -0.92055  -0.91711  -0.90580
 Alpha  occ. eigenvalues --   -0.90520  -0.90134  -0.89896  -0.89412  -0.89140
 Alpha  occ. eigenvalues --   -0.88419  -0.88009  -0.86538  -0.85674  -0.85373
 Alpha  occ. eigenvalues --   -0.84430  -0.84171  -0.83248  -0.82870  -0.82624
 Alpha  occ. eigenvalues --   -0.81796  -0.80342  -0.79802  -0.79386  -0.78219
 Alpha  occ. eigenvalues --   -0.77703  -0.77634  -0.77501  -0.76526  -0.75884
 Alpha  occ. eigenvalues --   -0.75390  -0.74741  -0.73901  -0.72829  -0.71061
 Alpha  occ. eigenvalues --   -0.70409  -0.69729  -0.69703  -0.68969  -0.67710
 Alpha  occ. eigenvalues --   -0.67536  -0.67504  -0.67185  -0.66590  -0.65996
 Alpha  occ. eigenvalues --   -0.65757  -0.64994  -0.64817  -0.63403  -0.62613
 Alpha  occ. eigenvalues --   -0.61849  -0.61559  -0.61368  -0.60583  -0.60309
 Alpha  occ. eigenvalues --   -0.59537  -0.59310  -0.58610  -0.57969  -0.57761
 Alpha  occ. eigenvalues --   -0.57513  -0.57388  -0.57119  -0.56566  -0.56504
 Alpha  occ. eigenvalues --   -0.55753  -0.55333  -0.55078  -0.54976  -0.54782
 Alpha  occ. eigenvalues --   -0.54580  -0.54485  -0.54269  -0.53974  -0.53843
 Alpha  occ. eigenvalues --   -0.53636  -0.53269  -0.53256  -0.52887  -0.52359
 Alpha  occ. eigenvalues --   -0.52241  -0.52153  -0.51992  -0.51910  -0.51720
 Alpha  occ. eigenvalues --   -0.51553  -0.51251  -0.51209  -0.51165  -0.50993
 Alpha  occ. eigenvalues --   -0.50540  -0.50238  -0.50097  -0.49851  -0.49665
 Alpha  occ. eigenvalues --   -0.49364  -0.49194  -0.48865  -0.48710  -0.48447
 Alpha  occ. eigenvalues --   -0.48295  -0.48107  -0.47975  -0.47963  -0.47653
 Alpha  occ. eigenvalues --   -0.47442  -0.47112  -0.47103  -0.46934  -0.46815
 Alpha  occ. eigenvalues --   -0.46586  -0.46349  -0.46120  -0.46092  -0.45987
 Alpha  occ. eigenvalues --   -0.45779  -0.45675  -0.45424  -0.45119  -0.45040
 Alpha  occ. eigenvalues --   -0.44832  -0.44739  -0.44628  -0.44511  -0.44210
 Alpha  occ. eigenvalues --   -0.44050  -0.43775  -0.43632  -0.43311  -0.43057
 Alpha  occ. eigenvalues --   -0.43026  -0.42738  -0.42353  -0.42323  -0.42088
 Alpha  occ. eigenvalues --   -0.41789  -0.41373  -0.41337  -0.41022  -0.40469
 Alpha  occ. eigenvalues --   -0.40308  -0.40153  -0.39988  -0.39905  -0.39575
 Alpha  occ. eigenvalues --   -0.39554  -0.39292  -0.39162  -0.38851  -0.38466
 Alpha  occ. eigenvalues --   -0.38416  -0.37140  -0.36432  -0.36306  -0.36080
 Alpha  occ. eigenvalues --   -0.35809  -0.35734  -0.35347  -0.33783  -0.33205
 Alpha  occ. eigenvalues --   -0.32596  -0.32412  -0.32282  -0.30689  -0.25989
 Alpha  occ. eigenvalues --   -0.23329
 Alpha virt. eigenvalues --   -0.07320   0.00484   0.03098   0.04846   0.06143
 Alpha virt. eigenvalues --    0.06693   0.07007   0.07501   0.07883   0.09071
 Alpha virt. eigenvalues --    0.10199   0.11513   0.11726   0.12374   0.12463

 Mulliken charges:
               1
     1  Mg   0.951536
     2  C   -0.091496
     3  C   -0.053279
     4  C   -0.062517
     5  C   -0.106662
     6  N   -0.351236
     7  C    0.026255
     8  C   -0.100375
     9  C   -0.086700
    10  C   -0.014317
    11  C    0.058067
    12  C    0.023187
    13  C    0.044342
    14  C    0.207767
    15  O   -0.279937
    16  O   -0.377487
    17  N   -0.387125
    18  C    0.140841
    19  C   -0.147240
    20  C   -0.084986
    21  C    0.135890
    22  C    0.096496
    23  C    0.018012
    24  O   -0.237461
    25  C    0.013435
    26  N   -0.376386
    27  C    0.070029
    28  C   -0.117261
    29  C   -0.061868
    30  C    0.097290
    31  C    0.025680
    32  C   -0.022062
    33  C   -0.044771
    34  N   -0.407937
    35  C    0.155562
    36  C   -0.181449
    37  C   -0.088912
    38  C    0.198533
    39  C    0.089874
    40  C    0.164577
    41  O   -0.187243
    42  C   -0.048554
    43  C    0.262687
    44  O   -0.247067
    45  O   -0.335813
    46  C    0.132349
    47  C    0.267095
    48  C   -0.157247
    49  C   -0.190690
    50  C   -0.006488
    51  C    0.051029
    52  C   -0.065424
    53  C    0.030891
    54  C   -0.183010
    55  C   -0.027518
    56  C    0.017572
    57  C   -0.015488
    58  C    0.021875
    59  C   -0.204884
    60  C    0.009773
    61  C    0.039385
    62  C   -0.032633
    63  C    0.007668
    64  C   -0.200448
    65  C   -0.011331
    66  C    0.012256
    67  H   -0.015276
    68  H   -0.036737
    69  H   -0.021461
    70  H    0.007062
    71  H    0.025777
    72  H    0.052552
    73  H    0.039729
    74  H    0.032397
    75  H    0.042663
    76  H    0.042749
    77  H    0.049926
    78  H    0.035148
    79  H    0.022132
    80  H    0.061236
    81  H    0.050214
    82  H    0.070603
    83  H    0.044557
    84  H    0.060093
    85  H    0.042711
    86  H    0.036906
    87  H    0.025487
    88  H    0.023883
    89  H    0.042064
    90  H    0.037418
    91  H    0.026954
    92  H    0.038599
    93  H    0.030467
    94  H    0.047908
    95  H    0.052789
    96  H    0.017540
    97  H    0.055453
    98  H    0.063027
    99  H    0.040053
   100  H    0.057238
   101  H    0.072939
   102  H    0.050871
   103  H    0.065575
   104  H    0.026301
   105  H    0.037133
   106  H    0.036295
   107  H    0.060765
   108  H    0.032831
   109  H    0.018762
   110  H    0.037789
   111  H    0.021656
   112  H    0.022576
   113  H    0.014685
   114  H    0.019728
   115  H    0.027724
   116  H    0.021104
   117  H    0.021330
   118  H    0.010065
   119  H    0.021647
   120  H    0.019104
   121  H    0.014948
   122  H    0.014935
   123  H    0.007497
   124  H    0.018690
   125  H    0.023433
   126  H    0.031259
   127  H    0.016345
   128  H    0.006065
   129  H    0.018580
   130  H    0.023558
   131  H    0.028126
   132  H    0.008029
   133  H    0.014763
   134  H    0.015955
   135  H    0.025003
   136  H    0.026171
   137  H    0.032574
   138  H    0.038929
   139  H    0.006992
   140  H    0.012757
 Sum of Mulliken charges =  -0.00000

 Dipole moment (field-independent basis, Debye):
    X=             -2.7530    Y=              2.6319    Z=              0.8117  Tot=              3.8942
 Quadrupole moment (field-independent basis, Debye-Ang):
   XX=           -407.6521   YY=           -420.9465   ZZ=           -378.2222
   XY=             51.1556   XZ=             -0.8418   YZ=             35.0286

 Normal termination of Gaussian 16 at Wed May  4 03:21:32 2022.
