 Gaussian 16, Revision A.03,
 Gaussian 16:  ES64L-G16RevA.03 25-Dec-2016

 --------------------
 #p ZINDO=(nstates=5)
 --------------------

 ------------------------------
 step_1301_chromophore_17 ZINDO
 ------------------------------
 Symbolic Z-matrix:
 Charge =  0 Multiplicity = 1

                         Standard orientation:
 ---------------------------------------------------------------------
 Center     Atomic      Atomic             Coordinates (Angstroms)
 Number     Number       Type             X           Y           Z
 ---------------------------------------------------------------------
      1         12           0        4.634406    1.291693   -0.337402
      2          6           0        4.675809   -2.166887   -0.431496
      3          6           0        2.235977    1.259162   -2.773188
      4          6           0        4.225722    4.625075    0.114846
      5          6           0        6.782697    1.132251    2.415284
      6          7           0        3.681729   -0.250174   -1.499892
      7          6           0        3.710603   -1.553186   -1.199619
      8          6           0        2.559070   -2.221682   -2.039712
      9          6           0        2.252093   -1.248499   -3.198198
     10          6           0        2.709778   -0.022791   -2.450328
     11          6           0        2.950527   -1.506053   -4.526629
     12          6           0        1.348161   -2.655302   -1.184822
     13          6           0        0.501909   -3.809638   -1.741299
     14          6           0       -0.103845   -4.639461   -0.672713
     15          8           0        0.503178   -5.635368   -0.244469
     16          8           0       -1.372646   -4.161539   -0.400795
     17          7           0        3.371429    2.727282   -1.218065
     18          6           0        2.462761    2.557510   -2.190154
     19          6           0        1.803535    3.792213   -2.534516
     20          6           0        2.343832    4.773847   -1.740731
     21          6           0        3.391514    4.032339   -0.948667
     22          6           0        0.729885    3.914187   -3.604090
     23          6           0        2.089423    6.241289   -1.854360
     24          8           0        1.333562    6.653007   -2.725349
     25          6           0        2.697157    7.208960   -0.895275
     26          7           0        5.449753    2.682717    1.079405
     27          6           0        5.131755    4.025929    0.984328
     28          6           0        5.842150    4.821266    2.135702
     29          6           0        6.788046    3.645395    2.666302
     30          6           0        6.298847    2.374896    2.053658
     31          6           0        6.586138    6.090094    1.744736
     32          6           0        6.982185    3.484413    4.224240
     33          6           0        8.391301    3.251929    4.784991
     34          7           0        5.837115   -0.215092    0.641852
     35          6           0        6.552096   -0.093998    1.784073
     36          6           0        6.987637   -1.371094    2.125492
     37          6           0        6.222709   -2.270821    1.281575
     38          6           0        5.547180   -1.503567    0.415160
     39          6           0        7.903697   -1.807344    3.148019
     40          6           0        5.983451   -3.705722    0.946377
     41          8           0        6.489876   -4.744781    1.301055
     42          6           0        4.965919   -3.692277   -0.210250
     43          6           0        5.650662   -4.276358   -1.514544
     44          8           0        6.749313   -3.846605   -1.834655
     45          8           0        4.944837   -5.298852   -2.064197
     46          6           0        5.546032   -5.741184   -3.339456
     47          6           0       -2.019402   -4.857724    0.741614
     48          6           0       -3.449118   -4.422201    0.776852
     49          6           0       -4.278162   -4.227113    1.836649
     50          6           0       -3.834177   -4.574282    3.282720
     51          6           0       -5.773988   -4.013867    1.578793
     52          6           0       -6.283009   -2.675101    2.096786
     53          6           0       -7.744539   -2.355438    1.637069
     54          6           0       -8.043275   -0.811777    1.509959
     55          6           0       -7.819029   -0.171069    2.911775
     56          6           0       -7.205032   -0.005370    0.445201
     57          6           0       -8.021832    0.242393   -0.784903
     58          6           0       -8.687417    1.682762   -0.744907
     59          6           0      -10.026437    1.901201   -1.459633
     60          6           0       -9.929551    2.979669   -2.536492
     61          6           0      -11.119056    2.231153   -0.435378
     62          6           0      -11.806247    0.949008    0.019476
     63          6           0      -13.361674    0.880938   -0.131385
     64          6           0      -14.132468    1.486844    1.084632
     65          6           0      -15.100494    0.456861    1.675702
     66          6           0      -14.783635    2.778402    0.695778
     67          1           0        1.512333    1.126886   -3.579699
     68          1           0        4.130498    5.703647    0.256129
     69          1           0        7.509679    1.120689    3.229572
     70          1           0        2.962678   -3.122491   -2.504492
     71          1           0        1.174909   -1.230775   -3.361692
     72          1           0        3.829974   -0.874618   -4.653670
     73          1           0        2.319827   -1.304110   -5.392788
     74          1           0        3.185528   -2.570553   -4.523966
     75          1           0        0.706123   -1.790960   -1.015596
     76          1           0        1.662308   -3.069326   -0.227162
     77          1           0        1.015256   -4.474340   -2.436674
     78          1           0       -0.278431   -3.347190   -2.345858
     79          1           0        0.313903    2.949743   -3.897939
     80          1           0        0.966810    4.484413   -4.501831
     81          1           0       -0.034949    4.497001   -3.090420
     82          1           0        2.447278    6.847068    0.101956
     83          1           0        2.437588    8.264273   -0.981848
     84          1           0        3.748459    7.250935   -1.178227
     85          1           0        5.117392    5.204991    2.853155
     86          1           0        7.731975    3.881165    2.175086
     87          1           0        6.349425    6.475246    0.752430
     88          1           0        7.640272    5.870698    1.576534
     89          1           0        6.335611    6.920935    2.404710
     90          1           0        6.352246    2.642035    4.508985
     91          1           0        6.533239    4.381586    4.650494
     92          1           0        8.567515    3.907288    5.638168
     93          1           0        9.151198    3.511717    4.048415
     94          1           0        8.581149    2.217944    5.072898
     95          1           0        7.765392   -2.801879    3.572498
     96          1           0        7.648115   -1.293772    4.074015
     97          1           0        8.907516   -1.482919    2.875811
     98          1           0        4.048587   -4.258799   -0.052432
     99          1           0        5.230619   -4.990015   -4.063383
    100          1           0        5.176478   -6.678801   -3.755497
    101          1           0        6.630671   -5.836778   -3.387195
    102          1           0       -1.548666   -4.584739    1.686056
    103          1           0       -1.948131   -5.926983    0.540219
    104          1           0       -3.885899   -4.290805   -0.213109
    105          1           0       -3.141528   -5.413268    3.210759
    106          1           0       -4.600575   -5.045449    3.899355
    107          1           0       -3.332723   -3.786650    3.843968
    108          1           0       -6.212123   -4.835627    2.146104
    109          1           0       -5.917050   -4.106666    0.502354
    110          1           0       -5.564158   -1.874146    1.925354
    111          1           0       -6.242001   -2.840950    3.173519
    112          1           0       -8.514295   -2.697898    2.328832
    113          1           0       -8.005380   -2.803949    0.679229
    114          1           0       -9.104078   -0.797672    1.260275
    115          1           0       -6.846943   -0.400273    3.348538
    116          1           0       -8.574714   -0.454156    3.643412
    117          1           0       -7.869949    0.917786    2.869827
    118          1           0       -6.362347   -0.661804    0.231645
    119          1           0       -6.788375    0.865092    0.951561
    120          1           0       -8.812194   -0.450200   -1.073290
    121          1           0       -7.237294    0.118835   -1.531900
    122          1           0       -7.911868    2.374050   -1.073452
    123          1           0       -8.774943    1.914828    0.316716
    124          1           0      -10.299668    1.017739   -2.035023
    125          1           0      -10.291620    3.962472   -2.232966
    126          1           0      -10.480728    2.622879   -3.407483
    127          1           0       -8.887259    3.186780   -2.777028
    128          1           0      -11.868148    2.884041   -0.881499
    129          1           0      -10.681088    2.832376    0.362520
    130          1           0      -11.633404    0.932870    1.095835
    131          1           0      -11.410907    0.061180   -0.473502
    132          1           0      -13.540641   -0.193334   -0.184837
    133          1           0      -13.799647    1.309052   -1.033345
    134          1           0      -13.488883    1.662783    1.945496
    135          1           0      -15.573307    0.939228    2.531443
    136          1           0      -14.534821   -0.368175    2.109334
    137          1           0      -15.812315    0.102208    0.930955
    138          1           0      -14.868388    3.592756    1.415168
    139          1           0      -15.785791    2.609009    0.299390
    140          1           0      -14.370549    3.134428   -0.248168
 ---------------------------------------------------------------------

 SCF Done:  E(RZINDO/S) =  -474.618340048     A.U. after   20 cycles

 Excitation energies and oscillator strengths:

 Excited State   1:      Singlet-A      1.2711 eV  975.41 nm  f=0.6389  <S**2>=0.000
     175 ->178         0.18960
     176 ->177         0.66288
 This state for optimization and/or second-order correction.
 Total Energy, E(CIS/TDA) =  -474.571628198
 Copying the excited state density for this state as the 1-particle RhoCI density.

 Excited State   2:      Singlet-A      1.9292 eV  642.68 nm  f=0.0837  <S**2>=0.000
     175 ->177         0.56939
     176 ->178        -0.39211

 Excited State   3:      Singlet-A      2.8667 eV  432.49 nm  f=0.0084  <S**2>=0.000
     172 ->177         0.19790
     174 ->177         0.65741

 Excited State   4:      Singlet-A      3.0047 eV  412.64 nm  f=0.0263  <S**2>=0.000
     168 ->177         0.25481
     168 ->178         0.16497
     168 ->179         0.31243
     168 ->181         0.32412
     168 ->186         0.17741
     168 ->187        -0.10100
     169 ->179        -0.11815
     170 ->179        -0.13652
     176 ->178        -0.10243

 Excited State   5:      Singlet-A      3.0081 eV  412.16 nm  f=0.0865  <S**2>=0.000
     168 ->179        -0.20622
     168 ->186        -0.12563
     169 ->177         0.18574
     169 ->179        -0.13995
     169 ->181         0.14772
     170 ->177         0.26738
     170 ->179        -0.21099
     170 ->181         0.23549
     170 ->183        -0.11899
     170 ->186        -0.14375
     176 ->178        -0.15656

 The electronic state is 1-A.
 Alpha  occ. eigenvalues --   -1.87479  -1.83211  -1.81405  -1.74008  -1.71914
 Alpha  occ. eigenvalues --   -1.71612  -1.66005  -1.61174  -1.60088  -1.59909
 Alpha  occ. eigenvalues --   -1.55978  -1.52728  -1.49360  -1.48703  -1.46874
 Alpha  occ. eigenvalues --   -1.45037  -1.43864  -1.41685  -1.38640  -1.38156
 Alpha  occ. eigenvalues --   -1.36637  -1.35055  -1.32890  -1.32058  -1.28793
 Alpha  occ. eigenvalues --   -1.28043  -1.27595  -1.23520  -1.20508  -1.18437
 Alpha  occ. eigenvalues --   -1.16863  -1.16589  -1.14726  -1.13940  -1.13341
 Alpha  occ. eigenvalues --   -1.12543  -1.10789  -1.10485  -1.05862  -1.04769
 Alpha  occ. eigenvalues --   -1.03718  -1.01094  -0.99721  -0.98326  -0.96452
 Alpha  occ. eigenvalues --   -0.96326  -0.94462  -0.93118  -0.92986  -0.92699
 Alpha  occ. eigenvalues --   -0.92527  -0.91433  -0.88935  -0.88474  -0.86097
 Alpha  occ. eigenvalues --   -0.85108  -0.84946  -0.84091  -0.82777  -0.80915
 Alpha  occ. eigenvalues --   -0.80027  -0.78846  -0.77445  -0.76891  -0.76722
 Alpha  occ. eigenvalues --   -0.75723  -0.75316  -0.74846  -0.74350  -0.73616
 Alpha  occ. eigenvalues --   -0.73421  -0.72886  -0.72636  -0.71981  -0.71037
 Alpha  occ. eigenvalues --   -0.70420  -0.70115  -0.69074  -0.68639  -0.67763
 Alpha  occ. eigenvalues --   -0.67400  -0.66845  -0.66483  -0.66337  -0.66031
 Alpha  occ. eigenvalues --   -0.65795  -0.65339  -0.64776  -0.64169  -0.63851
 Alpha  occ. eigenvalues --   -0.63508  -0.62867  -0.62591  -0.62269  -0.62203
 Alpha  occ. eigenvalues --   -0.61941  -0.61732  -0.61132  -0.60650  -0.60497
 Alpha  occ. eigenvalues --   -0.59759  -0.59368  -0.58790  -0.58527  -0.58228
 Alpha  occ. eigenvalues --   -0.57973  -0.57453  -0.56993  -0.56874  -0.56033
 Alpha  occ. eigenvalues --   -0.55771  -0.55705  -0.55272  -0.54706  -0.54465
 Alpha  occ. eigenvalues --   -0.54201  -0.53806  -0.53570  -0.53305  -0.52750
 Alpha  occ. eigenvalues --   -0.52591  -0.52212  -0.51894  -0.51795  -0.51246
 Alpha  occ. eigenvalues --   -0.50710  -0.50597  -0.50531  -0.50370  -0.50172
 Alpha  occ. eigenvalues --   -0.50073  -0.49864  -0.49604  -0.49428  -0.49369
 Alpha  occ. eigenvalues --   -0.48827  -0.48476  -0.48369  -0.48266  -0.47885
 Alpha  occ. eigenvalues --   -0.47627  -0.47192  -0.47052  -0.46789  -0.46596
 Alpha  occ. eigenvalues --   -0.46463  -0.46442  -0.45990  -0.45780  -0.45467
 Alpha  occ. eigenvalues --   -0.45420  -0.45073  -0.44921  -0.44408  -0.44277
 Alpha  occ. eigenvalues --   -0.43236  -0.43048  -0.42783  -0.42608  -0.42554
 Alpha  occ. eigenvalues --   -0.41818  -0.41544  -0.41361  -0.38994  -0.38888
 Alpha  occ. eigenvalues --   -0.38123  -0.36770  -0.35253  -0.34903  -0.34812
 Alpha  occ. eigenvalues --   -0.33805  -0.33053  -0.32515  -0.31564  -0.26727
 Alpha  occ. eigenvalues --   -0.22109
 Alpha virt. eigenvalues --   -0.08863  -0.01911  -0.00052   0.01172   0.01629
 Alpha virt. eigenvalues --    0.02563   0.02809   0.03210   0.04097   0.04750
 Alpha virt. eigenvalues --    0.06182   0.06566   0.07423   0.07522   0.08254

 Mulliken charges:
               1
     1  Mg   0.422271
     2  C   -0.031626
     3  C   -0.077338
     4  C   -0.095972
     5  C   -0.078729
     6  N   -0.273669
     7  C    0.120903
     8  C    0.004709
     9  C    0.009176
    10  C    0.117108
    11  C   -0.043717
    12  C   -0.013450
    13  C    0.003698
    14  C    0.474883
    15  O   -0.524683
    16  O   -0.266363
    17  N   -0.283859
    18  C    0.097403
    19  C    0.045000
    20  C   -0.056832
    21  C    0.115443
    22  C   -0.040517
    23  C    0.335510
    24  O   -0.530581
    25  C   -0.028214
    26  N   -0.278473
    27  C    0.115003
    28  C   -0.002362
    29  C   -0.001327
    30  C    0.149371
    31  C   -0.056033
    32  C   -0.032247
    33  C   -0.052570
    34  N   -0.347611
    35  C    0.122251
    36  C    0.037250
    37  C   -0.061312
    38  C    0.134767
    39  C   -0.040804
    40  C    0.342398
    41  O   -0.503227
    42  C    0.047241
    43  C    0.482361
    44  O   -0.512987
    45  O   -0.245094
    46  C    0.073897
    47  C    0.106914
    48  C   -0.083804
    49  C   -0.022937
    50  C   -0.049185
    51  C   -0.018981
    52  C   -0.026830
    53  C   -0.034172
    54  C   -0.022730
    55  C   -0.060015
    56  C   -0.027462
    57  C   -0.036239
    58  C   -0.038367
    59  C   -0.005413
    60  C   -0.060231
    61  C   -0.028108
    62  C   -0.036659
    63  C   -0.037032
    64  C   -0.005023
    65  C   -0.054985
    66  C   -0.057949
    67  H    0.019716
    68  H    0.030205
    69  H    0.026083
    70  H    0.018147
    71  H    0.023949
    72  H    0.031051
    73  H    0.019736
    74  H    0.022719
    75  H    0.028169
    76  H    0.027876
    77  H    0.041541
    78  H    0.022147
    79  H    0.018062
    80  H    0.045046
    81  H    0.034182
    82  H    0.040174
    83  H    0.033990
    84  H    0.040347
    85  H    0.033932
    86  H    0.035708
    87  H    0.013388
    88  H    0.024406
    89  H    0.024803
    90  H    0.021824
    91  H    0.015097
    92  H    0.019412
    93  H    0.017222
    94  H    0.024604
    95  H    0.040302
    96  H    0.010677
    97  H    0.042038
    98  H    0.052896
    99  H    0.027858
   100  H    0.033823
   101  H    0.055815
   102  H    0.049851
   103  H    0.059497
   104  H    0.027537
   105  H    0.015475
   106  H    0.022731
   107  H    0.034555
   108  H    0.029616
   109  H    0.023826
   110  H    0.030283
   111  H    0.015063
   112  H    0.018913
   113  H    0.015976
   114  H    0.018257
   115  H    0.020244
   116  H    0.011547
   117  H    0.009445
   118  H    0.012002
   119  H    0.029151
   120  H    0.027226
   121  H    0.011052
   122  H    0.016831
   123  H    0.015537
   124  H    0.021634
   125  H    0.017125
   126  H    0.017909
   127  H    0.014334
   128  H    0.012340
   129  H    0.022514
   130  H    0.017491
   131  H    0.023541
   132  H    0.008114
   133  H    0.026912
   134  H    0.018342
   135  H    0.012087
   136  H    0.013446
   137  H    0.024426
   138  H    0.024286
   139  H    0.009182
   140  H    0.012913
 Sum of Mulliken charges =  -0.00000

 Dipole moment (field-independent basis, Debye):
    X=             -3.5282    Y=              3.6984    Z=              2.2298  Tot=              5.5766
 N-N= 4.327094457901D+03 E-N= 0.000000000000D+00  KE=-9.328316862382D+03
 Leave Link  601 at Wed May  4 03:35:26 2022, MaxMem=  6710886400 cpu:               0.8 elap:               0.0
 (Enter /sw/apps/gaussian-16.0/g16/l9999.exe)
 1\1\GINC-BP1-COMPUTE098\SP\RZINDO CIS\STO-3G\C55H74Mg1N4O6\OF15641\04-
 May-2022\0\\#p ZINDO=(nstates=5)\\step_1301_chromophore_17 ZINDO\\0,1\
 Mg,0,29.302,59.775,40.842\C,0,26.24,58.365,40.062\C,0,30.817,56.9,39.7
 81\C,0,32.299,61.332,41.119\C,0,27.629,62.772,41.503\N,0,28.597,57.871
 ,40.125\C,0,27.351,57.635,39.7\C,0,27.413,56.287,38.889\C,0,28.695,55.
 564,39.355\C,0,29.415,56.831,39.739\C,0,28.547,54.531,40.464\C,0,27.26
 5,56.481,37.364\C,0,26.706,55.286,36.578\C,0,25.921,55.701,35.391\O,0,

 Normal termination of Gaussian 16 at Wed May  4 03:35:26 2022.
