 Gaussian 16, Revision A.03,
 Gaussian 16:  ES64L-G16RevA.03 25-Dec-2016

 ------------------------------
 #p blyp/Def2SVP td=(nstates=5)
 ------------------------------

 ---------------------------------------------------
 step_1751_chromophore_19 TDDFT with blyp functional
 ---------------------------------------------------
 Symbolic Z-matrix:
 Charge =  0 Multiplicity = 1

                         Standard orientation:
 ---------------------------------------------------------------------
 Center     Atomic      Atomic             Coordinates (Angstroms)
 Number     Number       Type             X           Y           Z
 ---------------------------------------------------------------------
      1         12           0       -5.883556    0.412844   -0.218404
      2          6           0       -3.501475   -2.199495   -0.292960
      3          6           0       -3.320211    2.636733   -0.078743
      4          6           0       -8.154483    2.688619    0.244677
      5          6           0       -8.340080   -2.109374   -0.294418
      6          7           0       -3.582137    0.246149   -0.447912
      7          6           0       -2.902623   -0.964611   -0.326591
      8          6           0       -1.384821   -0.648117   -0.202839
      9          6           0       -1.346369    0.856052    0.098088
     10          6           0       -2.798362    1.327605   -0.184945
     11          6           0       -0.890052    1.220059    1.657218
     12          6           0       -0.619273   -1.212703   -1.452599
     13          6           0        0.687774   -1.994804   -1.223385
     14          6           0        1.635643   -1.587349   -0.021004
     15          8           0        1.350069   -1.789830    1.150362
     16          8           0        2.815831   -0.989267   -0.424063
     17          7           0       -5.801979    2.455784    0.073803
     18          6           0       -4.606360    3.239347   -0.036692
     19          6           0       -4.922056    4.594874    0.169168
     20          6           0       -6.349929    4.625378    0.432701
     21          6           0       -6.813782    3.184720    0.267023
     22          6           0       -3.941166    5.624795   -0.043856
     23          6           0       -7.245154    5.877178    0.517574
     24          8           0       -8.456863    5.783041    0.681311
     25          6           0       -6.688316    7.270186    0.393100
     26          7           0       -8.004658    0.273784    0.121742
     27          6           0       -8.703121    1.364599    0.172726
     28          6           0      -10.234927    1.123978    0.081611
     29          6           0      -10.243902   -0.438717   -0.323484
     30          6           0       -8.789909   -0.803542   -0.121431
     31          6           0      -10.949342    1.357625    1.427783
     32          6           0      -10.904600   -0.701317   -1.684129
     33          6           0      -10.107860   -0.483794   -2.994174
     34          7           0       -5.986109   -1.799172   -0.138948
     35          6           0       -7.090008   -2.647798   -0.206997
     36          6           0       -6.596806   -3.963629   -0.362639
     37          6           0       -5.167417   -3.882704   -0.304543
     38          6           0       -4.870362   -2.532033   -0.238973
     39          6           0       -7.394816   -5.219624   -0.366430
     40          6           0       -3.902957   -4.586150   -0.218799
     41          8           0       -3.615353   -5.773169   -0.190154
     42          6           0       -2.819262   -3.544847   -0.214237
     43          6           0       -2.136857   -3.640796    1.159287
     44          8           0       -2.307859   -2.935364    2.092298
     45          8           0       -1.147362   -4.536807    1.116430
     46          6           0       -0.144639   -4.553557    2.239085
     47          6           0        3.918322   -0.896904    0.601718
     48          6           0        5.282845   -1.009347    0.201215
     49          6           0        6.384114   -0.669356    0.918425
     50          6           0        6.512517   -0.150065    2.289145
     51          6           0        7.795199   -0.885510    0.284560
     52          6           0        8.234020    0.331699   -0.473271
     53          6           0        8.902289   -0.052062   -1.868303
     54          6           0        9.501110    1.172450   -2.582638
     55          6           0        8.534322    2.332367   -3.078984
     56          6           0       10.444801    0.819073   -3.784122
     57          6           0       11.971198    1.148488   -3.513383
     58          6           0       12.700657    0.024804   -2.706970
     59          6           0       13.327881    0.565565   -1.390595
     60          6           0       14.761561   -0.039557   -1.404906
     61          6           0       12.529427    0.091430   -0.176577
     62          6           0       13.008224    0.793421    1.175017
     63          6           0       11.748159    1.296409    1.953132
     64          6           0       11.915731    1.028596    3.439330
     65          6           0       11.503770   -0.450983    3.762123
     66          6           0       11.193049    2.118767    4.188182
     67          1           0       -2.523887    3.365166    0.085277
     68          1           0       -8.924102    3.464154    0.246813
     69          1           0       -8.986049   -2.901272   -0.679426
     70          1           0       -1.095224   -1.182204    0.702590
     71          1           0       -0.624559    1.201333   -0.642121
     72          1           0       -1.784450    1.527340    2.198779
     73          1           0       -0.211786    2.072343    1.615169
     74          1           0       -0.388643    0.428860    2.213557
     75          1           0       -0.439619   -0.424737   -2.183227
     76          1           0       -1.283815   -1.876224   -2.005779
     77          1           0        1.194068   -1.897680   -2.183828
     78          1           0        0.481704   -3.013543   -0.896680
     79          1           0       -2.902565    5.296978   -0.086625
     80          1           0       -3.906543    6.291893    0.816692
     81          1           0       -4.212866    5.938698   -1.051906
     82          1           0       -6.100092    7.409581   -0.514177
     83          1           0       -6.014830    7.362928    1.244698
     84          1           0       -7.529778    7.955285    0.500905
     85          1           0      -10.706330    1.738080   -0.685474
     86          1           0      -10.699041   -1.150994    0.364902
     87          1           0      -10.196015    1.707664    2.132922
     88          1           0      -11.548257    0.569301    1.883558
     89          1           0      -11.579639    2.240328    1.323011
     90          1           0      -11.790986   -0.069093   -1.628054
     91          1           0      -11.377443   -1.683660   -1.698653
     92          1           0      -10.727582    0.211632   -3.561124
     93          1           0       -9.974162   -1.378750   -3.600569
     94          1           0       -9.107638   -0.074705   -2.845472
     95          1           0       -6.886193   -6.092813   -0.773446
     96          1           0       -8.362211   -5.077752   -0.849752
     97          1           0       -7.652497   -5.525217    0.647660
     98          1           0       -1.979176   -3.656425   -0.899911
     99          1           0       -0.275740   -3.891911    3.096197
    100          1           0        0.824873   -4.446936    1.752915
    101          1           0       -0.146079   -5.555810    2.667638
    102          1           0        3.800846   -1.764681    1.251983
    103          1           0        3.925106    0.025602    1.181209
    104          1           0        5.321862   -1.321679   -0.842659
    105          1           0        5.609906   -0.515210    2.778623
    106          1           0        6.527824    0.939584    2.288192
    107          1           0        7.153863   -0.718815    2.961420
    108          1           0        7.800472   -1.701059   -0.438465
    109          1           0        8.433685   -1.065921    1.149119
    110          1           0        8.864431    0.868019    0.236126
    111          1           0        7.423148    1.030669   -0.678310
    112          1           0        7.996308   -0.364416   -2.387513
    113          1           0        9.592969   -0.891834   -1.785368
    114          1           0       10.099014    1.748947   -1.876722
    115          1           0        7.550580    2.210497   -2.627019
    116          1           0        8.395960    2.427461   -4.155823
    117          1           0        8.993453    3.272696   -2.771818
    118          1           0       10.152388    1.234127   -4.748133
    119          1           0       10.356326   -0.259410   -3.912714
    120          1           0       12.090794    2.154349   -3.112884
    121          1           0       12.403952    1.285595   -4.504879
    122          1           0       13.464178   -0.206865   -3.449835
    123          1           0       12.019349   -0.815000   -2.570901
    124          1           0       13.315222    1.655991   -1.394906
    125          1           0       14.933629   -0.611532   -0.492805
    126          1           0       15.492500    0.764364   -1.484671
    127          1           0       14.947482   -0.753571   -2.206282
    128          1           0       12.673061   -0.987226   -0.122165
    129          1           0       11.479757    0.283034   -0.399191
    130          1           0       13.518716    1.703745    0.859980
    131          1           0       13.600307    0.129884    1.806813
    132          1           0       10.835373    0.889472    1.518123
    133          1           0       11.748439    2.381817    1.855395
    134          1           0       12.981239    1.079470    3.660019
    135          1           0       10.609314   -0.571611    4.373671
    136          1           0       12.313353   -0.853568    4.370434
    137          1           0       11.430550   -1.051859    2.855980
    138          1           0       10.407759    2.565286    3.577718
    139          1           0       11.904753    2.911065    4.421033
    140          1           0       10.720527    1.675555    5.065122
 ---------------------------------------------------------------------

 SCF Done:  E(RB-LYP) =  -3007.31830601     A.U. after   21 cycles

 Excitation energies and oscillator strengths:

 Excited State   1:      Singlet-A      1.7426 eV  711.49 nm  f=0.0736  <S**2>=0.000
     244 -> 247        0.50144
     245 -> 247       -0.22068
     246 -> 247       -0.43396
 This state for optimization and/or second-order correction.
 Total Energy, E(TD-HF/TD-DFT) =  -3007.25426701
 Copying the excited state density for this state as the 1-particle RhoCI density.

 Excited State   2:      Singlet-A      1.8595 eV  666.77 nm  f=0.1511  <S**2>=0.000
     243 -> 247        0.29389
     244 -> 247        0.43020
     245 -> 248        0.12150
     246 -> 247        0.46137
     246 <- 247       -0.10294

 Excited State   3:      Singlet-A      1.8766 eV  660.68 nm  f=0.0909  <S**2>=0.000
     243 -> 247        0.61215
     245 -> 247        0.18703
     246 -> 247       -0.27600

 Excited State   4:      Singlet-A      1.9784 eV  626.69 nm  f=0.1017  <S**2>=0.000
     242 -> 247        0.10750
     243 -> 247       -0.18271
     244 -> 247        0.23150
     245 -> 247        0.59276
     246 -> 248       -0.19607

 Excited State   5:      Singlet-A      2.3259 eV  533.07 nm  f=0.0001  <S**2>=0.000
     241 -> 247        0.70615

 The electronic state is 1-A.
 Alpha  occ. eigenvalues --  -46.28274 -18.83161 -18.81031 -18.78069 -18.75578
 Alpha  occ. eigenvalues --  -18.74904 -18.74411 -14.02891 -14.02756 -14.00870
 Alpha  occ. eigenvalues --  -13.99566 -10.05393 -10.02718  -9.99403  -9.98648
 Alpha  occ. eigenvalues --   -9.98183  -9.96855  -9.96693  -9.96184  -9.95854
 Alpha  occ. eigenvalues --   -9.95847  -9.95767  -9.95552  -9.94700  -9.94427
 Alpha  occ. eigenvalues --   -9.94157  -9.93989  -9.93832  -9.93679  -9.93385
 Alpha  occ. eigenvalues --   -9.93243  -9.93185  -9.93183  -9.93088  -9.93065
 Alpha  occ. eigenvalues --   -9.93046  -9.93020  -9.92977  -9.92839  -9.92625
 Alpha  occ. eigenvalues --   -9.92603  -9.92286  -9.92270  -9.92219  -9.92105
 Alpha  occ. eigenvalues --   -9.91918  -9.91845  -9.91784  -9.91701  -9.91700
 Alpha  occ. eigenvalues --   -9.91651  -9.91648  -9.91588  -9.91553  -9.91526
 Alpha  occ. eigenvalues --   -9.91406  -9.91161  -9.91143  -9.91087  -9.90983
 Alpha  occ. eigenvalues --   -9.90918  -9.90847  -9.90803  -9.90774  -9.90457
 Alpha  occ. eigenvalues --   -9.90237  -2.92596  -1.73044  -1.72479  -1.72300
 Alpha  occ. eigenvalues --   -0.98232  -0.97819  -0.90854  -0.90483  -0.90414
 Alpha  occ. eigenvalues --   -0.89672  -0.87459  -0.86365  -0.85372  -0.84355
 Alpha  occ. eigenvalues --   -0.75697  -0.74602  -0.73116  -0.73030  -0.72334
 Alpha  occ. eigenvalues --   -0.72100  -0.71943  -0.71170  -0.70572  -0.69774
 Alpha  occ. eigenvalues --   -0.69286  -0.69032  -0.67820  -0.67238  -0.66883
 Alpha  occ. eigenvalues --   -0.66270  -0.65707  -0.65584  -0.64859  -0.64330
 Alpha  occ. eigenvalues --   -0.63834  -0.62380  -0.61996  -0.61752  -0.60785
 Alpha  occ. eigenvalues --   -0.60555  -0.60351  -0.59795  -0.59067  -0.58767
 Alpha  occ. eigenvalues --   -0.58236  -0.57667  -0.56690  -0.56049  -0.55448
 Alpha  occ. eigenvalues --   -0.53801  -0.53525  -0.52416  -0.52038  -0.51154
 Alpha  occ. eigenvalues --   -0.50802  -0.50663  -0.50375  -0.50026  -0.49978
 Alpha  occ. eigenvalues --   -0.49657  -0.49450  -0.48955  -0.47596  -0.47212
 Alpha  occ. eigenvalues --   -0.46498  -0.45783  -0.45320  -0.44835  -0.43982
 Alpha  occ. eigenvalues --   -0.43756  -0.43544  -0.43298  -0.42986  -0.42432
 Alpha  occ. eigenvalues --   -0.42119  -0.41687  -0.41434  -0.41428  -0.41368
 Alpha  occ. eigenvalues --   -0.40930  -0.40689  -0.40480  -0.40423  -0.40269
 Alpha  occ. eigenvalues --   -0.39904  -0.39790  -0.39730  -0.39377  -0.39218
 Alpha  occ. eigenvalues --   -0.39186  -0.39050  -0.38276  -0.38202  -0.38035
 Alpha  occ. eigenvalues --   -0.37968  -0.37532  -0.37437  -0.37367  -0.37186
 Alpha  occ. eigenvalues --   -0.37118  -0.36808  -0.36518  -0.36368  -0.36310
 Alpha  occ. eigenvalues --   -0.36280  -0.35866  -0.35796  -0.35641  -0.35519
 Alpha  occ. eigenvalues --   -0.35321  -0.35170  -0.35017  -0.34694  -0.34508
 Alpha  occ. eigenvalues --   -0.34466  -0.34160  -0.33745  -0.33719  -0.33635
 Alpha  occ. eigenvalues --   -0.33450  -0.33405  -0.33289  -0.33216  -0.33091
 Alpha  occ. eigenvalues --   -0.32919  -0.32822  -0.32802  -0.32455  -0.32303
 Alpha  occ. eigenvalues --   -0.32061  -0.31966  -0.31699  -0.31644  -0.31423
 Alpha  occ. eigenvalues --   -0.30930  -0.30885  -0.30791  -0.30607  -0.30500
 Alpha  occ. eigenvalues --   -0.30474  -0.30145  -0.29770  -0.29746  -0.29624
 Alpha  occ. eigenvalues --   -0.29575  -0.29494  -0.29266  -0.29084  -0.28926
 Alpha  occ. eigenvalues --   -0.28699  -0.28597  -0.28208  -0.28027  -0.27653
 Alpha  occ. eigenvalues --   -0.27515  -0.27178  -0.26981  -0.26592  -0.26292
 Alpha  occ. eigenvalues --   -0.26101  -0.26058  -0.25901  -0.25447  -0.24977
 Alpha  occ. eigenvalues --   -0.24922  -0.24129  -0.23972  -0.23813  -0.23113
 Alpha  occ. eigenvalues --   -0.22906  -0.22629  -0.21544  -0.21189  -0.20253
 Alpha  occ. eigenvalues --   -0.19885  -0.19411  -0.18130  -0.17848  -0.16659
 Alpha  occ. eigenvalues --   -0.15678
 Alpha virt. eigenvalues --   -0.11337  -0.06170  -0.05370  -0.04035  -0.03867
 Alpha virt. eigenvalues --   -0.02515  -0.02072  -0.00759  -0.00430   0.00539
 Alpha virt. eigenvalues --    0.01263   0.01586   0.01965   0.02529   0.03008

 Mulliken charges:
               1
     1  Mg   0.650856
     2  C    0.113192
     3  C   -0.036377
     4  C   -0.035920
     5  C   -0.076931
     6  N   -0.207900
     7  C   -0.157693
     8  C    0.001627
     9  C    0.055631
    10  C   -0.017340
    11  C    0.091795
    12  C    0.118127
    13  C    0.142937
    14  C    0.082301
    15  O   -0.195463
    16  O   -0.281163
    17  N   -0.270797
    18  C    0.139438
    19  C   -0.139480
    20  C    0.010488
    21  C    0.090850
    22  C    0.183364
    23  C   -0.099563
    24  O   -0.173045
    25  C    0.151175
    26  N   -0.160430
    27  C    0.000224
    28  C    0.003541
    29  C    0.046861
    30  C    0.027925
    31  C    0.125579
    32  C    0.076250
    33  C    0.076047
    34  N   -0.234100
    35  C    0.088908
    36  C   -0.167555
    37  C    0.118119
    38  C    0.024464
    39  C    0.156426
    40  C   -0.045922
    41  O   -0.129927
    42  C    0.023809
    43  C    0.083966
    44  O   -0.149507
    45  O   -0.257456
    46  C    0.212863
    47  C    0.312851
    48  C   -0.103539
    49  C   -0.208236
    50  C    0.169503
    51  C    0.173424
    52  C    0.029451
    53  C    0.103078
    54  C   -0.054117
    55  C    0.077431
    56  C    0.095572
    57  C    0.034727
    58  C    0.133427
    59  C   -0.093616
    60  C    0.120264
    61  C    0.062532
    62  C    0.093846
    63  C    0.058053
    64  C   -0.115997
    65  C    0.099113
    66  C    0.136536
    67  H   -0.072743
    68  H   -0.051778
    69  H   -0.068838
    70  H    0.011536
    71  H   -0.036167
    72  H    0.002127
    73  H   -0.009623
    74  H    0.024948
    75  H   -0.028494
    76  H   -0.011785
    77  H   -0.007167
    78  H    0.017270
    79  H   -0.022641
    80  H    0.003508
    81  H    0.026830
    82  H    0.003591
    83  H   -0.001121
    84  H   -0.001119
    85  H   -0.013003
    86  H   -0.029147
    87  H   -0.007771
    88  H    0.001980
    89  H   -0.011964
    90  H   -0.025838
    91  H   -0.032715
    92  H   -0.006873
    93  H   -0.004672
    94  H    0.003696
    95  H    0.004171
    96  H   -0.019454
    97  H    0.002161
    98  H   -0.009867
    99  H    0.034889
   100  H    0.015988
   101  H    0.004877
   102  H    0.012334
   103  H    0.009489
   104  H   -0.037211
   105  H   -0.030940
   106  H    0.023339
   107  H    0.000802
   108  H   -0.034037
   109  H   -0.033861
   110  H   -0.034730
   111  H   -0.026389
   112  H   -0.027902
   113  H   -0.009310
   114  H   -0.030074
   115  H   -0.019883
   116  H   -0.014392
   117  H   -0.015952
   118  H   -0.038538
   119  H   -0.047115
   120  H   -0.036235
   121  H   -0.045908
   122  H   -0.028510
   123  H   -0.025616
   124  H   -0.033650
   125  H   -0.027963
   126  H   -0.016584
   127  H   -0.015780
   128  H   -0.036836
   129  H   -0.017351
   130  H   -0.030875
   131  H   -0.011315
   132  H   -0.005345
   133  H   -0.043897
   134  H   -0.035229
   135  H   -0.017515
   136  H   -0.020145
   137  H   -0.007927
   138  H   -0.018682
   139  H   -0.011873
   140  H   -0.027681
 Sum of Mulliken charges =  -0.00000

 Dipole moment (field-independent basis, Debye):
    X=              4.2797    Y=              2.9831    Z=             -1.9870  Tot=              5.5824
 Quadrupole moment (field-independent basis, Debye-Ang):
   XX=           -379.3413   YY=           -428.1486   ZZ=           -402.8540
   XY=             11.0789   XZ=             22.0277   YZ=             -3.2729

 Normal termination of Gaussian 16 at Wed May  4 14:09:02 2022.
