 Gaussian 16, Revision A.03,
 Gaussian 16:  ES64L-G16RevA.03 25-Dec-2016

 -----------------------------------
 #p cam-b3lyp/Def2SVP td=(nstates=5)
 -----------------------------------

 --------------------------------------------------------
 step_1751_chromophore_19 TDDFT with cam-b3lyp functional
 --------------------------------------------------------
 Symbolic Z-matrix:
 Charge =  0 Multiplicity = 1

                         Standard orientation:
 ---------------------------------------------------------------------
 Center     Atomic      Atomic             Coordinates (Angstroms)
 Number     Number       Type             X           Y           Z
 ---------------------------------------------------------------------
      1         12           0       -5.883556    0.412844   -0.218404
      2          6           0       -3.501475   -2.199495   -0.292960
      3          6           0       -3.320211    2.636733   -0.078743
      4          6           0       -8.154483    2.688619    0.244677
      5          6           0       -8.340080   -2.109374   -0.294418
      6          7           0       -3.582137    0.246149   -0.447912
      7          6           0       -2.902623   -0.964611   -0.326591
      8          6           0       -1.384821   -0.648117   -0.202839
      9          6           0       -1.346369    0.856052    0.098088
     10          6           0       -2.798362    1.327605   -0.184945
     11          6           0       -0.890052    1.220059    1.657218
     12          6           0       -0.619273   -1.212703   -1.452599
     13          6           0        0.687774   -1.994804   -1.223385
     14          6           0        1.635643   -1.587349   -0.021004
     15          8           0        1.350069   -1.789830    1.150362
     16          8           0        2.815831   -0.989267   -0.424063
     17          7           0       -5.801979    2.455784    0.073803
     18          6           0       -4.606360    3.239347   -0.036692
     19          6           0       -4.922056    4.594874    0.169168
     20          6           0       -6.349929    4.625378    0.432701
     21          6           0       -6.813782    3.184720    0.267023
     22          6           0       -3.941166    5.624795   -0.043856
     23          6           0       -7.245154    5.877178    0.517574
     24          8           0       -8.456863    5.783041    0.681311
     25          6           0       -6.688316    7.270186    0.393100
     26          7           0       -8.004658    0.273784    0.121742
     27          6           0       -8.703121    1.364599    0.172726
     28          6           0      -10.234927    1.123978    0.081611
     29          6           0      -10.243902   -0.438717   -0.323484
     30          6           0       -8.789909   -0.803542   -0.121431
     31          6           0      -10.949342    1.357625    1.427783
     32          6           0      -10.904600   -0.701317   -1.684129
     33          6           0      -10.107860   -0.483794   -2.994174
     34          7           0       -5.986109   -1.799172   -0.138948
     35          6           0       -7.090008   -2.647798   -0.206997
     36          6           0       -6.596806   -3.963629   -0.362639
     37          6           0       -5.167417   -3.882704   -0.304543
     38          6           0       -4.870362   -2.532033   -0.238973
     39          6           0       -7.394816   -5.219624   -0.366430
     40          6           0       -3.902957   -4.586150   -0.218799
     41          8           0       -3.615353   -5.773169   -0.190154
     42          6           0       -2.819262   -3.544847   -0.214237
     43          6           0       -2.136857   -3.640796    1.159287
     44          8           0       -2.307859   -2.935364    2.092298
     45          8           0       -1.147362   -4.536807    1.116430
     46          6           0       -0.144639   -4.553557    2.239085
     47          6           0        3.918322   -0.896904    0.601718
     48          6           0        5.282845   -1.009347    0.201215
     49          6           0        6.384114   -0.669356    0.918425
     50          6           0        6.512517   -0.150065    2.289145
     51          6           0        7.795199   -0.885510    0.284560
     52          6           0        8.234020    0.331699   -0.473271
     53          6           0        8.902289   -0.052062   -1.868303
     54          6           0        9.501110    1.172450   -2.582638
     55          6           0        8.534322    2.332367   -3.078984
     56          6           0       10.444801    0.819073   -3.784122
     57          6           0       11.971198    1.148488   -3.513383
     58          6           0       12.700657    0.024804   -2.706970
     59          6           0       13.327881    0.565565   -1.390595
     60          6           0       14.761561   -0.039557   -1.404906
     61          6           0       12.529427    0.091430   -0.176577
     62          6           0       13.008224    0.793421    1.175017
     63          6           0       11.748159    1.296409    1.953132
     64          6           0       11.915731    1.028596    3.439330
     65          6           0       11.503770   -0.450983    3.762123
     66          6           0       11.193049    2.118767    4.188182
     67          1           0       -2.523887    3.365166    0.085277
     68          1           0       -8.924102    3.464154    0.246813
     69          1           0       -8.986049   -2.901272   -0.679426
     70          1           0       -1.095224   -1.182204    0.702590
     71          1           0       -0.624559    1.201333   -0.642121
     72          1           0       -1.784450    1.527340    2.198779
     73          1           0       -0.211786    2.072343    1.615169
     74          1           0       -0.388643    0.428860    2.213557
     75          1           0       -0.439619   -0.424737   -2.183227
     76          1           0       -1.283815   -1.876224   -2.005779
     77          1           0        1.194068   -1.897680   -2.183828
     78          1           0        0.481704   -3.013543   -0.896680
     79          1           0       -2.902565    5.296978   -0.086625
     80          1           0       -3.906543    6.291893    0.816692
     81          1           0       -4.212866    5.938698   -1.051906
     82          1           0       -6.100092    7.409581   -0.514177
     83          1           0       -6.014830    7.362928    1.244698
     84          1           0       -7.529778    7.955285    0.500905
     85          1           0      -10.706330    1.738080   -0.685474
     86          1           0      -10.699041   -1.150994    0.364902
     87          1           0      -10.196015    1.707664    2.132922
     88          1           0      -11.548257    0.569301    1.883558
     89          1           0      -11.579639    2.240328    1.323011
     90          1           0      -11.790986   -0.069093   -1.628054
     91          1           0      -11.377443   -1.683660   -1.698653
     92          1           0      -10.727582    0.211632   -3.561124
     93          1           0       -9.974162   -1.378750   -3.600569
     94          1           0       -9.107638   -0.074705   -2.845472
     95          1           0       -6.886193   -6.092813   -0.773446
     96          1           0       -8.362211   -5.077752   -0.849752
     97          1           0       -7.652497   -5.525217    0.647660
     98          1           0       -1.979176   -3.656425   -0.899911
     99          1           0       -0.275740   -3.891911    3.096197
    100          1           0        0.824873   -4.446936    1.752915
    101          1           0       -0.146079   -5.555810    2.667638
    102          1           0        3.800846   -1.764681    1.251983
    103          1           0        3.925106    0.025602    1.181209
    104          1           0        5.321862   -1.321679   -0.842659
    105          1           0        5.609906   -0.515210    2.778623
    106          1           0        6.527824    0.939584    2.288192
    107          1           0        7.153863   -0.718815    2.961420
    108          1           0        7.800472   -1.701059   -0.438465
    109          1           0        8.433685   -1.065921    1.149119
    110          1           0        8.864431    0.868019    0.236126
    111          1           0        7.423148    1.030669   -0.678310
    112          1           0        7.996308   -0.364416   -2.387513
    113          1           0        9.592969   -0.891834   -1.785368
    114          1           0       10.099014    1.748947   -1.876722
    115          1           0        7.550580    2.210497   -2.627019
    116          1           0        8.395960    2.427461   -4.155823
    117          1           0        8.993453    3.272696   -2.771818
    118          1           0       10.152388    1.234127   -4.748133
    119          1           0       10.356326   -0.259410   -3.912714
    120          1           0       12.090794    2.154349   -3.112884
    121          1           0       12.403952    1.285595   -4.504879
    122          1           0       13.464178   -0.206865   -3.449835
    123          1           0       12.019349   -0.815000   -2.570901
    124          1           0       13.315222    1.655991   -1.394906
    125          1           0       14.933629   -0.611532   -0.492805
    126          1           0       15.492500    0.764364   -1.484671
    127          1           0       14.947482   -0.753571   -2.206282
    128          1           0       12.673061   -0.987226   -0.122165
    129          1           0       11.479757    0.283034   -0.399191
    130          1           0       13.518716    1.703745    0.859980
    131          1           0       13.600307    0.129884    1.806813
    132          1           0       10.835373    0.889472    1.518123
    133          1           0       11.748439    2.381817    1.855395
    134          1           0       12.981239    1.079470    3.660019
    135          1           0       10.609314   -0.571611    4.373671
    136          1           0       12.313353   -0.853568    4.370434
    137          1           0       11.430550   -1.051859    2.855980
    138          1           0       10.407759    2.565286    3.577718
    139          1           0       11.904753    2.911065    4.421033
    140          1           0       10.720527    1.675555    5.065122
 ---------------------------------------------------------------------

 SCF Done:  E(RCAM-B3LYP) =  -3007.11496348     A.U. after   18 cycles

 Excitation energies and oscillator strengths:

 Excited State   1:      Singlet-A      1.7324 eV  715.68 nm  f=0.3767  <S**2>=0.000
     245 -> 248        0.17722
     246 -> 247        0.68599
     245 <- 248        0.10522
 This state for optimization and/or second-order correction.
 Total Energy, E(TD-HF/TD-DFT) =  -3007.05129933
 Copying the excited state density for this state as the 1-particle RhoCI density.

 Excited State   2:      Singlet-A      2.1463 eV  577.67 nm  f=0.1679  <S**2>=0.000
     245 -> 247        0.66082
     246 -> 248       -0.23690

 Excited State   3:      Singlet-A      3.1915 eV  388.48 nm  f=0.0070  <S**2>=0.000
     242 -> 247       -0.15403
     244 -> 247        0.67436

 Excited State   4:      Singlet-A      3.4590 eV  358.44 nm  f=0.0047  <S**2>=0.000
     239 -> 247        0.13719
     241 -> 247        0.23367
     241 -> 249        0.20225
     241 -> 250       -0.10465
     242 -> 247        0.54432
     243 -> 247       -0.13647
     244 -> 247        0.13483
     246 -> 248        0.10604

 Excited State   5:      Singlet-A      3.4779 eV  356.49 nm  f=0.0013  <S**2>=0.000
     241 -> 247        0.54533
     241 -> 249        0.17373
     242 -> 247       -0.28075
     246 -> 248       -0.16052

 The electronic state is 1-A.
 Alpha  occ. eigenvalues --  -46.89926 -19.26020 -19.23747 -19.21039 -19.18462
 Alpha  occ. eigenvalues --  -19.18317 -19.17461 -14.41961 -14.41440 -14.39447
 Alpha  occ. eigenvalues --  -14.37760 -10.40755 -10.37853 -10.34821 -10.33761
 Alpha  occ. eigenvalues --  -10.32254 -10.31457 -10.30780 -10.30741 -10.30415
 Alpha  occ. eigenvalues --  -10.30268 -10.30201 -10.29994 -10.28725 -10.28666
 Alpha  occ. eigenvalues --  -10.28579 -10.27970 -10.27916 -10.27779 -10.27731
 Alpha  occ. eigenvalues --  -10.27509 -10.27386 -10.27376 -10.27297 -10.27274
 Alpha  occ. eigenvalues --  -10.27116 -10.27076 -10.27022 -10.26821 -10.26504
 Alpha  occ. eigenvalues --  -10.26295 -10.26215 -10.26139 -10.26020 -10.25959
 Alpha  occ. eigenvalues --  -10.25891 -10.25696 -10.25659 -10.25400 -10.25363
 Alpha  occ. eigenvalues --  -10.25333 -10.25332 -10.25255 -10.25161 -10.25133
 Alpha  occ. eigenvalues --  -10.25130 -10.24791 -10.24786 -10.24776 -10.24684
 Alpha  occ. eigenvalues --  -10.24638 -10.24536 -10.24445 -10.24374 -10.24060
 Alpha  occ. eigenvalues --  -10.24047  -3.18141  -1.93070  -1.92589  -1.92428
 Alpha  occ. eigenvalues --   -1.16685  -1.16241  -1.09461  -1.08757  -1.08211
 Alpha  occ. eigenvalues --   -1.07415  -1.05177  -1.04174  -1.02889  -1.01949
 Alpha  occ. eigenvalues --   -0.92766  -0.91549  -0.90149  -0.89942  -0.89075
 Alpha  occ. eigenvalues --   -0.88814  -0.88502  -0.87763  -0.87022  -0.86392
 Alpha  occ. eigenvalues --   -0.85598  -0.85389  -0.84144  -0.83304  -0.82992
 Alpha  occ. eigenvalues --   -0.82431  -0.81896  -0.81540  -0.80766  -0.80073
 Alpha  occ. eigenvalues --   -0.79648  -0.78426  -0.77472  -0.77257  -0.76184
 Alpha  occ. eigenvalues --   -0.75914  -0.75706  -0.75032  -0.74329  -0.73946
 Alpha  occ. eigenvalues --   -0.73309  -0.72649  -0.71571  -0.70877  -0.70064
 Alpha  occ. eigenvalues --   -0.68412  -0.68131  -0.66769  -0.66467  -0.65129
 Alpha  occ. eigenvalues --   -0.64985  -0.64863  -0.64446  -0.63834  -0.63797
 Alpha  occ. eigenvalues --   -0.63662  -0.63443  -0.62882  -0.61137  -0.60718
 Alpha  occ. eigenvalues --   -0.60276  -0.59353  -0.58915  -0.58127  -0.57583
 Alpha  occ. eigenvalues --   -0.57108  -0.56817  -0.56544  -0.56383  -0.55530
 Alpha  occ. eigenvalues --   -0.55057  -0.54850  -0.54340  -0.54289  -0.54175
 Alpha  occ. eigenvalues --   -0.53916  -0.53455  -0.53259  -0.52989  -0.52874
 Alpha  occ. eigenvalues --   -0.52780  -0.52473  -0.52362  -0.52322  -0.52043
 Alpha  occ. eigenvalues --   -0.51636  -0.51580  -0.50870  -0.50775  -0.50661
 Alpha  occ. eigenvalues --   -0.50458  -0.49971  -0.49936  -0.49628  -0.49530
 Alpha  occ. eigenvalues --   -0.49365  -0.48965  -0.48932  -0.48756  -0.48502
 Alpha  occ. eigenvalues --   -0.48311  -0.48292  -0.48062  -0.48023  -0.47821
 Alpha  occ. eigenvalues --   -0.47469  -0.47258  -0.47050  -0.46789  -0.46549
 Alpha  occ. eigenvalues --   -0.46217  -0.45925  -0.45679  -0.45557  -0.45415
 Alpha  occ. eigenvalues --   -0.45338  -0.45154  -0.45118  -0.45018  -0.44874
 Alpha  occ. eigenvalues --   -0.44655  -0.44469  -0.44330  -0.44164  -0.43735
 Alpha  occ. eigenvalues --   -0.43609  -0.43509  -0.43330  -0.43080  -0.43011
 Alpha  occ. eigenvalues --   -0.42668  -0.42475  -0.42183  -0.42092  -0.41883
 Alpha  occ. eigenvalues --   -0.41781  -0.41496  -0.41427  -0.41147  -0.40788
 Alpha  occ. eigenvalues --   -0.40717  -0.40694  -0.40519  -0.40381  -0.40361
 Alpha  occ. eigenvalues --   -0.39978  -0.39723  -0.39185  -0.39068  -0.38612
 Alpha  occ. eigenvalues --   -0.38384  -0.38009  -0.37981  -0.37810  -0.37054
 Alpha  occ. eigenvalues --   -0.36919  -0.36847  -0.36645  -0.36452  -0.35903
 Alpha  occ. eigenvalues --   -0.35540  -0.35497  -0.34767  -0.34222  -0.33884
 Alpha  occ. eigenvalues --   -0.33523  -0.33253  -0.33206  -0.30816  -0.30578
 Alpha  occ. eigenvalues --   -0.29948  -0.29554  -0.29522  -0.28365  -0.23338
 Alpha  occ. eigenvalues --   -0.21108
 Alpha virt. eigenvalues --   -0.08613  -0.00869   0.00952   0.02821   0.03135
 Alpha virt. eigenvalues --    0.03917   0.04835   0.06082   0.06725   0.07489
 Alpha virt. eigenvalues --    0.07616   0.08444   0.08830   0.09133   0.09349

 Mulliken charges:
               1
     1  Mg   0.782598
     2  C    0.075243
     3  C   -0.056813
     4  C   -0.057783
     5  C   -0.082412
     6  N   -0.273178
     7  C   -0.108890
     8  C   -0.047675
     9  C    0.001704
    10  C    0.005509
    11  C    0.039176
    12  C    0.063056
    13  C    0.081933
    14  C    0.158471
    15  O   -0.236592
    16  O   -0.348109
    17  N   -0.361761
    18  C    0.150020
    19  C   -0.145837
    20  C   -0.043323
    21  C    0.118643
    22  C    0.115712
    23  C   -0.022853
    24  O   -0.212733
    25  C    0.070925
    26  N   -0.236109
    27  C    0.021105
    28  C   -0.050948
    29  C   -0.004687
    30  C    0.043124
    31  C    0.067472
    32  C    0.021567
    33  C    0.014431
    34  N   -0.320331
    35  C    0.092611
    36  C   -0.165980
    37  C    0.036289
    38  C    0.067715
    39  C    0.106068
    40  C    0.049227
    41  O   -0.168972
    42  C   -0.051029
    43  C    0.172174
    44  O   -0.187668
    45  O   -0.321025
    46  C    0.178910
    47  C    0.281839
    48  C   -0.121783
    49  C   -0.229040
    50  C    0.100172
    51  C    0.112000
    52  C   -0.010557
    53  C    0.046556
    54  C   -0.111575
    55  C    0.025801
    56  C    0.043518
    57  C   -0.015444
    58  C    0.075334
    59  C   -0.147959
    60  C    0.058696
    61  C    0.022300
    62  C    0.039093
    63  C    0.009591
    64  C   -0.171761
    65  C    0.041128
    66  C    0.072503
    67  H   -0.038148
    68  H   -0.012434
    69  H   -0.035107
    70  H    0.045918
    71  H   -0.000194
    72  H    0.026866
    73  H    0.013252
    74  H    0.049256
    75  H    0.002493
    76  H    0.019702
    77  H    0.027483
    78  H    0.042898
    79  H    0.009410
    80  H    0.031614
    81  H    0.054127
    82  H    0.031065
    83  H    0.025256
    84  H    0.034969
    85  H    0.021065
    86  H    0.007148
    87  H    0.018862
    88  H    0.026797
    89  H    0.012369
    90  H    0.001888
    91  H   -0.003559
    92  H    0.015788
    93  H    0.019160
    94  H    0.023857
    95  H    0.030274
    96  H    0.002805
    97  H    0.027749
    98  H    0.031143
    99  H    0.059920
   100  H    0.035067
   101  H    0.027232
   102  H    0.041775
   103  H    0.034184
   104  H   -0.000984
   105  H   -0.004605
   106  H    0.048241
   107  H    0.028081
   108  H   -0.002272
   109  H   -0.005965
   110  H   -0.011900
   111  H    0.000762
   112  H   -0.000526
   113  H    0.014680
   114  H   -0.000958
   115  H    0.002627
   116  H    0.009047
   117  H    0.007582
   118  H   -0.008558
   119  H   -0.017603
   120  H   -0.009781
   121  H   -0.015290
   122  H    0.002967
   123  H    0.000352
   124  H   -0.003306
   125  H   -0.003649
   126  H    0.008248
   127  H    0.009224
   128  H   -0.009172
   129  H    0.001466
   130  H   -0.001675
   131  H    0.014166
   132  H    0.014298
   133  H   -0.013172
   134  H   -0.002517
   135  H    0.005720
   136  H    0.004262
   137  H    0.013279
   138  H    0.005320
   139  H    0.012747
   140  H   -0.002474
 Sum of Mulliken charges =  -0.00000

 Dipole moment (field-independent basis, Debye):
    X=              4.5490    Y=              4.0529    Z=             -2.0824  Tot=              6.4386
 Quadrupole moment (field-independent basis, Debye-Ang):
   XX=           -380.4246   YY=           -423.6083   ZZ=           -402.5767
   XY=              5.9416   XZ=             22.2476   YZ=             -2.9438

 Normal termination of Gaussian 16 at Wed May  4 13:03:32 2022.
