 Gaussian 16, Revision A.03,
 Gaussian 16:  ES64L-G16RevA.03 25-Dec-2016

 ---------------------------------
 #p PBE1PBE/Def2SVP td=(nstates=5)
 ---------------------------------

 ------------------------------------------------------
 step_1751_chromophore_19 TDDFT with PBE1PBE functional
 ------------------------------------------------------
 Symbolic Z-matrix:
 Charge =  0 Multiplicity = 1

                         Standard orientation:
 ---------------------------------------------------------------------
 Center     Atomic      Atomic             Coordinates (Angstroms)
 Number     Number       Type             X           Y           Z
 ---------------------------------------------------------------------
      1         12           0       -5.883556    0.412844   -0.218404
      2          6           0       -3.501475   -2.199495   -0.292960
      3          6           0       -3.320211    2.636733   -0.078743
      4          6           0       -8.154483    2.688619    0.244677
      5          6           0       -8.340080   -2.109374   -0.294418
      6          7           0       -3.582137    0.246149   -0.447912
      7          6           0       -2.902623   -0.964611   -0.326591
      8          6           0       -1.384821   -0.648117   -0.202839
      9          6           0       -1.346369    0.856052    0.098088
     10          6           0       -2.798362    1.327605   -0.184945
     11          6           0       -0.890052    1.220059    1.657218
     12          6           0       -0.619273   -1.212703   -1.452599
     13          6           0        0.687774   -1.994804   -1.223385
     14          6           0        1.635643   -1.587349   -0.021004
     15          8           0        1.350069   -1.789830    1.150362
     16          8           0        2.815831   -0.989267   -0.424063
     17          7           0       -5.801979    2.455784    0.073803
     18          6           0       -4.606360    3.239347   -0.036692
     19          6           0       -4.922056    4.594874    0.169168
     20          6           0       -6.349929    4.625378    0.432701
     21          6           0       -6.813782    3.184720    0.267023
     22          6           0       -3.941166    5.624795   -0.043856
     23          6           0       -7.245154    5.877178    0.517574
     24          8           0       -8.456863    5.783041    0.681311
     25          6           0       -6.688316    7.270186    0.393100
     26          7           0       -8.004658    0.273784    0.121742
     27          6           0       -8.703121    1.364599    0.172726
     28          6           0      -10.234927    1.123978    0.081611
     29          6           0      -10.243902   -0.438717   -0.323484
     30          6           0       -8.789909   -0.803542   -0.121431
     31          6           0      -10.949342    1.357625    1.427783
     32          6           0      -10.904600   -0.701317   -1.684129
     33          6           0      -10.107860   -0.483794   -2.994174
     34          7           0       -5.986109   -1.799172   -0.138948
     35          6           0       -7.090008   -2.647798   -0.206997
     36          6           0       -6.596806   -3.963629   -0.362639
     37          6           0       -5.167417   -3.882704   -0.304543
     38          6           0       -4.870362   -2.532033   -0.238973
     39          6           0       -7.394816   -5.219624   -0.366430
     40          6           0       -3.902957   -4.586150   -0.218799
     41          8           0       -3.615353   -5.773169   -0.190154
     42          6           0       -2.819262   -3.544847   -0.214237
     43          6           0       -2.136857   -3.640796    1.159287
     44          8           0       -2.307859   -2.935364    2.092298
     45          8           0       -1.147362   -4.536807    1.116430
     46          6           0       -0.144639   -4.553557    2.239085
     47          6           0        3.918322   -0.896904    0.601718
     48          6           0        5.282845   -1.009347    0.201215
     49          6           0        6.384114   -0.669356    0.918425
     50          6           0        6.512517   -0.150065    2.289145
     51          6           0        7.795199   -0.885510    0.284560
     52          6           0        8.234020    0.331699   -0.473271
     53          6           0        8.902289   -0.052062   -1.868303
     54          6           0        9.501110    1.172450   -2.582638
     55          6           0        8.534322    2.332367   -3.078984
     56          6           0       10.444801    0.819073   -3.784122
     57          6           0       11.971198    1.148488   -3.513383
     58          6           0       12.700657    0.024804   -2.706970
     59          6           0       13.327881    0.565565   -1.390595
     60          6           0       14.761561   -0.039557   -1.404906
     61          6           0       12.529427    0.091430   -0.176577
     62          6           0       13.008224    0.793421    1.175017
     63          6           0       11.748159    1.296409    1.953132
     64          6           0       11.915731    1.028596    3.439330
     65          6           0       11.503770   -0.450983    3.762123
     66          6           0       11.193049    2.118767    4.188182
     67          1           0       -2.523887    3.365166    0.085277
     68          1           0       -8.924102    3.464154    0.246813
     69          1           0       -8.986049   -2.901272   -0.679426
     70          1           0       -1.095224   -1.182204    0.702590
     71          1           0       -0.624559    1.201333   -0.642121
     72          1           0       -1.784450    1.527340    2.198779
     73          1           0       -0.211786    2.072343    1.615169
     74          1           0       -0.388643    0.428860    2.213557
     75          1           0       -0.439619   -0.424737   -2.183227
     76          1           0       -1.283815   -1.876224   -2.005779
     77          1           0        1.194068   -1.897680   -2.183828
     78          1           0        0.481704   -3.013543   -0.896680
     79          1           0       -2.902565    5.296978   -0.086625
     80          1           0       -3.906543    6.291893    0.816692
     81          1           0       -4.212866    5.938698   -1.051906
     82          1           0       -6.100092    7.409581   -0.514177
     83          1           0       -6.014830    7.362928    1.244698
     84          1           0       -7.529778    7.955285    0.500905
     85          1           0      -10.706330    1.738080   -0.685474
     86          1           0      -10.699041   -1.150994    0.364902
     87          1           0      -10.196015    1.707664    2.132922
     88          1           0      -11.548257    0.569301    1.883558
     89          1           0      -11.579639    2.240328    1.323011
     90          1           0      -11.790986   -0.069093   -1.628054
     91          1           0      -11.377443   -1.683660   -1.698653
     92          1           0      -10.727582    0.211632   -3.561124
     93          1           0       -9.974162   -1.378750   -3.600569
     94          1           0       -9.107638   -0.074705   -2.845472
     95          1           0       -6.886193   -6.092813   -0.773446
     96          1           0       -8.362211   -5.077752   -0.849752
     97          1           0       -7.652497   -5.525217    0.647660
     98          1           0       -1.979176   -3.656425   -0.899911
     99          1           0       -0.275740   -3.891911    3.096197
    100          1           0        0.824873   -4.446936    1.752915
    101          1           0       -0.146079   -5.555810    2.667638
    102          1           0        3.800846   -1.764681    1.251983
    103          1           0        3.925106    0.025602    1.181209
    104          1           0        5.321862   -1.321679   -0.842659
    105          1           0        5.609906   -0.515210    2.778623
    106          1           0        6.527824    0.939584    2.288192
    107          1           0        7.153863   -0.718815    2.961420
    108          1           0        7.800472   -1.701059   -0.438465
    109          1           0        8.433685   -1.065921    1.149119
    110          1           0        8.864431    0.868019    0.236126
    111          1           0        7.423148    1.030669   -0.678310
    112          1           0        7.996308   -0.364416   -2.387513
    113          1           0        9.592969   -0.891834   -1.785368
    114          1           0       10.099014    1.748947   -1.876722
    115          1           0        7.550580    2.210497   -2.627019
    116          1           0        8.395960    2.427461   -4.155823
    117          1           0        8.993453    3.272696   -2.771818
    118          1           0       10.152388    1.234127   -4.748133
    119          1           0       10.356326   -0.259410   -3.912714
    120          1           0       12.090794    2.154349   -3.112884
    121          1           0       12.403952    1.285595   -4.504879
    122          1           0       13.464178   -0.206865   -3.449835
    123          1           0       12.019349   -0.815000   -2.570901
    124          1           0       13.315222    1.655991   -1.394906
    125          1           0       14.933629   -0.611532   -0.492805
    126          1           0       15.492500    0.764364   -1.484671
    127          1           0       14.947482   -0.753571   -2.206282
    128          1           0       12.673061   -0.987226   -0.122165
    129          1           0       11.479757    0.283034   -0.399191
    130          1           0       13.518716    1.703745    0.859980
    131          1           0       13.600307    0.129884    1.806813
    132          1           0       10.835373    0.889472    1.518123
    133          1           0       11.748439    2.381817    1.855395
    134          1           0       12.981239    1.079470    3.660019
    135          1           0       10.609314   -0.571611    4.373671
    136          1           0       12.313353   -0.853568    4.370434
    137          1           0       11.430550   -1.051859    2.855980
    138          1           0       10.407759    2.565286    3.577718
    139          1           0       11.904753    2.911065    4.421033
    140          1           0       10.720527    1.675555    5.065122
 ---------------------------------------------------------------------

 SCF Done:  E(RPBE1PBE) =  -3005.30441194     A.U. after   15 cycles

 Excitation energies and oscillator strengths:

 Excited State   1:      Singlet-A      1.8746 eV  661.39 nm  f=0.3521  <S**2>=0.000
     245 -> 248        0.16634
     246 -> 247        0.69220
     246 <- 247       -0.10604
 This state for optimization and/or second-order correction.
 Total Energy, E(TD-HF/TD-DFT) =  -3005.23552202
 Copying the excited state density for this state as the 1-particle RhoCI density.

 Excited State   2:      Singlet-A      2.1542 eV  575.54 nm  f=0.1626  <S**2>=0.000
     245 -> 247        0.66598
     246 -> 248       -0.21432

 Excited State   3:      Singlet-A      2.8273 eV  438.53 nm  f=0.0101  <S**2>=0.000
     242 -> 247       -0.19574
     243 -> 247       -0.18011
     244 -> 247        0.63975

 Excited State   4:      Singlet-A      2.9166 eV  425.10 nm  f=0.0032  <S**2>=0.000
     240 -> 247       -0.14691
     242 -> 247        0.44303
     243 -> 247        0.41802
     244 -> 247        0.26754

 Excited State   5:      Singlet-A      2.9751 eV  416.74 nm  f=0.0010  <S**2>=0.000
     240 -> 247        0.31134
     241 -> 247        0.60623
     241 -> 249       -0.11378

 The electronic state is 1-A.
 Alpha  occ. eigenvalues --  -46.93284 -19.26718 -19.24462 -19.21308 -19.18736
 Alpha  occ. eigenvalues --  -19.18386 -19.17806 -14.41351 -14.40994 -14.38977
 Alpha  occ. eigenvalues --  -14.37528 -10.37819 -10.34927 -10.31810 -10.30994
 Alpha  occ. eigenvalues --  -10.29629 -10.28994 -10.28360 -10.28072 -10.28059
 Alpha  occ. eigenvalues --  -10.27890 -10.27870 -10.27726 -10.26323 -10.26238
 Alpha  occ. eigenvalues --  -10.26017 -10.25891 -10.25623 -10.25564 -10.25300
 Alpha  occ. eigenvalues --  -10.25212 -10.25044 -10.25016 -10.24974 -10.24965
 Alpha  occ. eigenvalues --  -10.24953 -10.24948 -10.24609 -10.24542 -10.23922
 Alpha  occ. eigenvalues --  -10.23886 -10.23784 -10.23601 -10.23577 -10.23535
 Alpha  occ. eigenvalues --  -10.23431 -10.23428 -10.23168 -10.23058 -10.22986
 Alpha  occ. eigenvalues --  -10.22882 -10.22854 -10.22812 -10.22749 -10.22692
 Alpha  occ. eigenvalues --  -10.22622 -10.22346 -10.22260 -10.22230 -10.22192
 Alpha  occ. eigenvalues --  -10.22165 -10.22128 -10.22012 -10.21977 -10.21743
 Alpha  occ. eigenvalues --  -10.21440  -3.15091  -1.87959  -1.87456  -1.87299
 Alpha  occ. eigenvalues --   -1.11520  -1.11038  -1.04050  -1.03604  -1.03082
 Alpha  occ. eigenvalues --   -1.02315  -0.99840  -0.98751  -0.97634  -0.96565
 Alpha  occ. eigenvalues --   -0.87220  -0.85695  -0.84273  -0.84017  -0.83268
 Alpha  occ. eigenvalues --   -0.82933  -0.82831  -0.81885  -0.81413  -0.80677
 Alpha  occ. eigenvalues --   -0.79844  -0.79722  -0.78341  -0.77640  -0.77161
 Alpha  occ. eigenvalues --   -0.76659  -0.76068  -0.75694  -0.75071  -0.74416
 Alpha  occ. eigenvalues --   -0.73780  -0.72546  -0.71839  -0.71556  -0.70260
 Alpha  occ. eigenvalues --   -0.70206  -0.69932  -0.69393  -0.68457  -0.68131
 Alpha  occ. eigenvalues --   -0.67583  -0.67137  -0.66000  -0.65198  -0.64432
 Alpha  occ. eigenvalues --   -0.62752  -0.62469  -0.61055  -0.60852  -0.59652
 Alpha  occ. eigenvalues --   -0.59375  -0.59185  -0.58960  -0.58467  -0.58257
 Alpha  occ. eigenvalues --   -0.57775  -0.57581  -0.57070  -0.55781  -0.55085
 Alpha  occ. eigenvalues --   -0.54728  -0.53946  -0.53427  -0.52804  -0.51978
 Alpha  occ. eigenvalues --   -0.51723  -0.51261  -0.51087  -0.50927  -0.50076
 Alpha  occ. eigenvalues --   -0.49539  -0.49406  -0.48881  -0.48609  -0.48566
 Alpha  occ. eigenvalues --   -0.48380  -0.47951  -0.47827  -0.47430  -0.47407
 Alpha  occ. eigenvalues --   -0.47333  -0.47109  -0.46933  -0.46776  -0.46554
 Alpha  occ. eigenvalues --   -0.46163  -0.46104  -0.45460  -0.45412  -0.45004
 Alpha  occ. eigenvalues --   -0.44978  -0.44567  -0.44518  -0.44166  -0.44126
 Alpha  occ. eigenvalues --   -0.43924  -0.43578  -0.43503  -0.43408  -0.43169
 Alpha  occ. eigenvalues --   -0.42911  -0.42897  -0.42617  -0.42536  -0.42400
 Alpha  occ. eigenvalues --   -0.42100  -0.41939  -0.41682  -0.41451  -0.41169
 Alpha  occ. eigenvalues --   -0.40783  -0.40698  -0.40424  -0.40277  -0.40118
 Alpha  occ. eigenvalues --   -0.40018  -0.39892  -0.39810  -0.39709  -0.39556
 Alpha  occ. eigenvalues --   -0.39400  -0.39302  -0.39073  -0.38916  -0.38519
 Alpha  occ. eigenvalues --   -0.38430  -0.38183  -0.38133  -0.37851  -0.37777
 Alpha  occ. eigenvalues --   -0.37505  -0.37239  -0.36965  -0.36896  -0.36714
 Alpha  occ. eigenvalues --   -0.36543  -0.36294  -0.36172  -0.35999  -0.35612
 Alpha  occ. eigenvalues --   -0.35549  -0.35463  -0.35422  -0.35224  -0.35139
 Alpha  occ. eigenvalues --   -0.34834  -0.34540  -0.34160  -0.34019  -0.33392
 Alpha  occ. eigenvalues --   -0.33138  -0.32923  -0.32772  -0.32754  -0.31940
 Alpha  occ. eigenvalues --   -0.31850  -0.31660  -0.31532  -0.31489  -0.30966
 Alpha  occ. eigenvalues --   -0.30509  -0.30452  -0.29674  -0.29263  -0.29200
 Alpha  occ. eigenvalues --   -0.28631  -0.28462  -0.28095  -0.26427  -0.25217
 Alpha  occ. eigenvalues --   -0.25203  -0.24818  -0.24807  -0.24186  -0.20311
 Alpha  occ. eigenvalues --   -0.18693
 Alpha virt. eigenvalues --   -0.11013  -0.04445  -0.03181  -0.01382  -0.00668
 Alpha virt. eigenvalues --    0.00136   0.00423   0.02157   0.02812   0.03207
 Alpha virt. eigenvalues --    0.04059   0.04426   0.05160   0.05472   0.06016

 Mulliken charges:
               1
     1  Mg   0.923651
     2  C    0.044751
     3  C   -0.067727
     4  C   -0.044854
     5  C   -0.081977
     6  N   -0.371222
     7  C   -0.028495
     8  C   -0.111626
     9  C   -0.078188
    10  C    0.047074
    11  C   -0.018180
    12  C    0.012328
    13  C    0.001122
    14  C    0.224477
    15  O   -0.267694
    16  O   -0.380631
    17  N   -0.477196
    18  C    0.174495
    19  C   -0.183418
    20  C   -0.080322
    21  C    0.153564
    22  C    0.053907
    23  C    0.025584
    24  O   -0.249766
    25  C   -0.002504
    26  N   -0.344577
    27  C    0.052086
    28  C   -0.130302
    29  C   -0.070470
    30  C    0.078682
    31  C    0.014656
    32  C   -0.041268
    33  C   -0.059486
    34  N   -0.442194
    35  C    0.125818
    36  C   -0.186255
    37  C   -0.010471
    38  C    0.135056
    39  C    0.057358
    40  C    0.141147
    41  O   -0.215102
    42  C   -0.167606
    43  C    0.268768
    44  O   -0.222024
    45  O   -0.354396
    46  C    0.123864
    47  C    0.244781
    48  C   -0.131368
    49  C   -0.275181
    50  C    0.036677
    51  C    0.042970
    52  C   -0.066917
    53  C   -0.022786
    54  C   -0.188923
    55  C   -0.032100
    56  C   -0.011688
    57  C   -0.076495
    58  C    0.019558
    59  C   -0.233976
    60  C    0.000694
    61  C   -0.040344
    62  C   -0.020653
    63  C   -0.059904
    64  C   -0.259858
    65  C   -0.018401
    66  C    0.007714
    67  H   -0.003854
    68  H    0.020912
    69  H   -0.001067
    70  H    0.091008
    71  H    0.036896
    72  H    0.054772
    73  H    0.040418
    74  H    0.073885
    75  H    0.034734
    76  H    0.052579
    77  H    0.059205
    78  H    0.076491
    79  H    0.035592
    80  H    0.057936
    81  H    0.081162
    82  H    0.057308
    83  H    0.052743
    84  H    0.061364
    85  H    0.055665
    86  H    0.043963
    87  H    0.047347
    88  H    0.052544
    89  H    0.040146
    90  H    0.036212
    91  H    0.028419
    92  H    0.043574
    93  H    0.046382
    94  H    0.054580
    95  H    0.058148
    96  H    0.030270
    97  H    0.057040
    98  H    0.069513
    99  H    0.079921
   100  H    0.057250
   101  H    0.049707
   102  H    0.068080
   103  H    0.060388
   104  H    0.028894
   105  H    0.023770
   106  H    0.075067
   107  H    0.053785
   108  H    0.030459
   109  H    0.028204
   110  H    0.024599
   111  H    0.034207
   112  H    0.035076
   113  H    0.044707
   114  H    0.036909
   115  H    0.030226
   116  H    0.035566
   117  H    0.034910
   118  H    0.022810
   119  H    0.016676
   120  H    0.021826
   121  H    0.017958
   122  H    0.036478
   123  H    0.031750
   124  H    0.032493
   125  H    0.024085
   126  H    0.036077
   127  H    0.035542
   128  H    0.023738
   129  H    0.045004
   130  H    0.032298
   131  H    0.044557
   132  H    0.054781
   133  H    0.021826
   134  H    0.035395
   135  H    0.032361
   136  H    0.031999
   137  H    0.040915
   138  H    0.032990
   139  H    0.040910
   140  H    0.025688
 Sum of Mulliken charges =  -0.00000

 Dipole moment (field-independent basis, Debye):
    X=              4.3571    Y=              3.6000    Z=             -2.1121  Tot=              6.0337
 Quadrupole moment (field-independent basis, Debye-Ang):
   XX=           -373.1070   YY=           -421.3689   ZZ=           -399.9027
   XY=              9.3801   XZ=             22.6515   YZ=             -3.0560

 Normal termination of Gaussian 16 at Wed May  4 13:20:37 2022.
