 Gaussian 16, Revision A.03,
 Gaussian 16:  ES64L-G16RevA.03 25-Dec-2016

 --------------------------------
 #p wB97XD/Def2SVP td=(nstates=5)
 --------------------------------

 -----------------------------------------------------
 step_1751_chromophore_19 TDDFT with wB97XD functional
 -----------------------------------------------------
 Symbolic Z-matrix:
 Charge =  0 Multiplicity = 1

                         Standard orientation:
 ---------------------------------------------------------------------
 Center     Atomic      Atomic             Coordinates (Angstroms)
 Number     Number       Type             X           Y           Z
 ---------------------------------------------------------------------
      1         12           0       -5.883556    0.412844   -0.218404
      2          6           0       -3.501475   -2.199495   -0.292960
      3          6           0       -3.320211    2.636733   -0.078743
      4          6           0       -8.154483    2.688619    0.244677
      5          6           0       -8.340080   -2.109374   -0.294418
      6          7           0       -3.582137    0.246149   -0.447912
      7          6           0       -2.902623   -0.964611   -0.326591
      8          6           0       -1.384821   -0.648117   -0.202839
      9          6           0       -1.346369    0.856052    0.098088
     10          6           0       -2.798362    1.327605   -0.184945
     11          6           0       -0.890052    1.220059    1.657218
     12          6           0       -0.619273   -1.212703   -1.452599
     13          6           0        0.687774   -1.994804   -1.223385
     14          6           0        1.635643   -1.587349   -0.021004
     15          8           0        1.350069   -1.789830    1.150362
     16          8           0        2.815831   -0.989267   -0.424063
     17          7           0       -5.801979    2.455784    0.073803
     18          6           0       -4.606360    3.239347   -0.036692
     19          6           0       -4.922056    4.594874    0.169168
     20          6           0       -6.349929    4.625378    0.432701
     21          6           0       -6.813782    3.184720    0.267023
     22          6           0       -3.941166    5.624795   -0.043856
     23          6           0       -7.245154    5.877178    0.517574
     24          8           0       -8.456863    5.783041    0.681311
     25          6           0       -6.688316    7.270186    0.393100
     26          7           0       -8.004658    0.273784    0.121742
     27          6           0       -8.703121    1.364599    0.172726
     28          6           0      -10.234927    1.123978    0.081611
     29          6           0      -10.243902   -0.438717   -0.323484
     30          6           0       -8.789909   -0.803542   -0.121431
     31          6           0      -10.949342    1.357625    1.427783
     32          6           0      -10.904600   -0.701317   -1.684129
     33          6           0      -10.107860   -0.483794   -2.994174
     34          7           0       -5.986109   -1.799172   -0.138948
     35          6           0       -7.090008   -2.647798   -0.206997
     36          6           0       -6.596806   -3.963629   -0.362639
     37          6           0       -5.167417   -3.882704   -0.304543
     38          6           0       -4.870362   -2.532033   -0.238973
     39          6           0       -7.394816   -5.219624   -0.366430
     40          6           0       -3.902957   -4.586150   -0.218799
     41          8           0       -3.615353   -5.773169   -0.190154
     42          6           0       -2.819262   -3.544847   -0.214237
     43          6           0       -2.136857   -3.640796    1.159287
     44          8           0       -2.307859   -2.935364    2.092298
     45          8           0       -1.147362   -4.536807    1.116430
     46          6           0       -0.144639   -4.553557    2.239085
     47          6           0        3.918322   -0.896904    0.601718
     48          6           0        5.282845   -1.009347    0.201215
     49          6           0        6.384114   -0.669356    0.918425
     50          6           0        6.512517   -0.150065    2.289145
     51          6           0        7.795199   -0.885510    0.284560
     52          6           0        8.234020    0.331699   -0.473271
     53          6           0        8.902289   -0.052062   -1.868303
     54          6           0        9.501110    1.172450   -2.582638
     55          6           0        8.534322    2.332367   -3.078984
     56          6           0       10.444801    0.819073   -3.784122
     57          6           0       11.971198    1.148488   -3.513383
     58          6           0       12.700657    0.024804   -2.706970
     59          6           0       13.327881    0.565565   -1.390595
     60          6           0       14.761561   -0.039557   -1.404906
     61          6           0       12.529427    0.091430   -0.176577
     62          6           0       13.008224    0.793421    1.175017
     63          6           0       11.748159    1.296409    1.953132
     64          6           0       11.915731    1.028596    3.439330
     65          6           0       11.503770   -0.450983    3.762123
     66          6           0       11.193049    2.118767    4.188182
     67          1           0       -2.523887    3.365166    0.085277
     68          1           0       -8.924102    3.464154    0.246813
     69          1           0       -8.986049   -2.901272   -0.679426
     70          1           0       -1.095224   -1.182204    0.702590
     71          1           0       -0.624559    1.201333   -0.642121
     72          1           0       -1.784450    1.527340    2.198779
     73          1           0       -0.211786    2.072343    1.615169
     74          1           0       -0.388643    0.428860    2.213557
     75          1           0       -0.439619   -0.424737   -2.183227
     76          1           0       -1.283815   -1.876224   -2.005779
     77          1           0        1.194068   -1.897680   -2.183828
     78          1           0        0.481704   -3.013543   -0.896680
     79          1           0       -2.902565    5.296978   -0.086625
     80          1           0       -3.906543    6.291893    0.816692
     81          1           0       -4.212866    5.938698   -1.051906
     82          1           0       -6.100092    7.409581   -0.514177
     83          1           0       -6.014830    7.362928    1.244698
     84          1           0       -7.529778    7.955285    0.500905
     85          1           0      -10.706330    1.738080   -0.685474
     86          1           0      -10.699041   -1.150994    0.364902
     87          1           0      -10.196015    1.707664    2.132922
     88          1           0      -11.548257    0.569301    1.883558
     89          1           0      -11.579639    2.240328    1.323011
     90          1           0      -11.790986   -0.069093   -1.628054
     91          1           0      -11.377443   -1.683660   -1.698653
     92          1           0      -10.727582    0.211632   -3.561124
     93          1           0       -9.974162   -1.378750   -3.600569
     94          1           0       -9.107638   -0.074705   -2.845472
     95          1           0       -6.886193   -6.092813   -0.773446
     96          1           0       -8.362211   -5.077752   -0.849752
     97          1           0       -7.652497   -5.525217    0.647660
     98          1           0       -1.979176   -3.656425   -0.899911
     99          1           0       -0.275740   -3.891911    3.096197
    100          1           0        0.824873   -4.446936    1.752915
    101          1           0       -0.146079   -5.555810    2.667638
    102          1           0        3.800846   -1.764681    1.251983
    103          1           0        3.925106    0.025602    1.181209
    104          1           0        5.321862   -1.321679   -0.842659
    105          1           0        5.609906   -0.515210    2.778623
    106          1           0        6.527824    0.939584    2.288192
    107          1           0        7.153863   -0.718815    2.961420
    108          1           0        7.800472   -1.701059   -0.438465
    109          1           0        8.433685   -1.065921    1.149119
    110          1           0        8.864431    0.868019    0.236126
    111          1           0        7.423148    1.030669   -0.678310
    112          1           0        7.996308   -0.364416   -2.387513
    113          1           0        9.592969   -0.891834   -1.785368
    114          1           0       10.099014    1.748947   -1.876722
    115          1           0        7.550580    2.210497   -2.627019
    116          1           0        8.395960    2.427461   -4.155823
    117          1           0        8.993453    3.272696   -2.771818
    118          1           0       10.152388    1.234127   -4.748133
    119          1           0       10.356326   -0.259410   -3.912714
    120          1           0       12.090794    2.154349   -3.112884
    121          1           0       12.403952    1.285595   -4.504879
    122          1           0       13.464178   -0.206865   -3.449835
    123          1           0       12.019349   -0.815000   -2.570901
    124          1           0       13.315222    1.655991   -1.394906
    125          1           0       14.933629   -0.611532   -0.492805
    126          1           0       15.492500    0.764364   -1.484671
    127          1           0       14.947482   -0.753571   -2.206282
    128          1           0       12.673061   -0.987226   -0.122165
    129          1           0       11.479757    0.283034   -0.399191
    130          1           0       13.518716    1.703745    0.859980
    131          1           0       13.600307    0.129884    1.806813
    132          1           0       10.835373    0.889472    1.518123
    133          1           0       11.748439    2.381817    1.855395
    134          1           0       12.981239    1.079470    3.660019
    135          1           0       10.609314   -0.571611    4.373671
    136          1           0       12.313353   -0.853568    4.370434
    137          1           0       11.430550   -1.051859    2.855980
    138          1           0       10.407759    2.565286    3.577718
    139          1           0       11.904753    2.911065    4.421033
    140          1           0       10.720527    1.675555    5.065122
 ---------------------------------------------------------------------

 SCF Done:  E(RwB97XD) =  -3007.81703452     A.U. after   20 cycles

 Excitation energies and oscillator strengths:

 Excited State   1:      Singlet-A      1.6810 eV  737.56 nm  f=0.3757  <S**2>=0.000
     245 -> 248        0.18272
     246 -> 247        0.68375
     245 <- 248        0.11428
 This state for optimization and/or second-order correction.
 Total Energy, E(TD-HF/TD-DFT) =  -3007.75525853
 Copying the excited state density for this state as the 1-particle RhoCI density.

 Excited State   2:      Singlet-A      2.0912 eV  592.89 nm  f=0.1628  <S**2>=0.000
     245 -> 247        0.65833
     246 -> 248       -0.24124

 Excited State   3:      Singlet-A      3.2285 eV  384.03 nm  f=0.0062  <S**2>=0.000
     241 -> 247        0.11049
     242 -> 247       -0.15074
     244 -> 247        0.66118

 Excited State   4:      Singlet-A      3.4933 eV  354.92 nm  f=0.0030  <S**2>=0.000
     239 -> 247        0.15585
     241 -> 247       -0.32054
     241 -> 249        0.10087
     242 -> 247        0.51639
     244 -> 247        0.15707
     246 -> 248        0.21707

 Excited State   5:      Singlet-A      3.5148 eV  352.75 nm  f=0.0033  <S**2>=0.000
     241 -> 247        0.49603
     241 -> 249        0.18945
     241 -> 250       -0.13681
     242 -> 247        0.27564
     242 -> 249        0.22290
     242 -> 250       -0.15302

 The electronic state is 1-A.
 Alpha  occ. eigenvalues --  -46.96244 -19.31263 -19.28948 -19.25950 -19.23389
 Alpha  occ. eigenvalues --  -19.23360 -19.22472 -14.46591 -14.45981 -14.44040
 Alpha  occ. eigenvalues --  -14.42317 -10.44573 -10.41667 -10.38833 -10.37726
 Alpha  occ. eigenvalues --  -10.36138 -10.35540 -10.34776 -10.34545 -10.34475
 Alpha  occ. eigenvalues --  -10.34400 -10.34218 -10.33943 -10.32841 -10.32656
 Alpha  occ. eigenvalues --  -10.32644 -10.31928 -10.31904 -10.31893 -10.31825
 Alpha  occ. eigenvalues --  -10.31614 -10.31387 -10.31313 -10.31310 -10.31265
 Alpha  occ. eigenvalues --  -10.31199 -10.31125 -10.31046 -10.30933 -10.30342
 Alpha  occ. eigenvalues --  -10.30205 -10.30125 -10.30029 -10.29924 -10.29920
 Alpha  occ. eigenvalues --  -10.29896 -10.29741 -10.29650 -10.29349 -10.29270
 Alpha  occ. eigenvalues --  -10.29267 -10.29203 -10.29190 -10.29074 -10.28984
 Alpha  occ. eigenvalues --  -10.28982 -10.28733 -10.28628 -10.28610 -10.28589
 Alpha  occ. eigenvalues --  -10.28579 -10.28486 -10.28372 -10.28180 -10.28051
 Alpha  occ. eigenvalues --  -10.27879  -3.21945  -1.95556  -1.95053  -1.94893
 Alpha  occ. eigenvalues --   -1.18827  -1.18402  -1.11716  -1.10950  -1.10407
 Alpha  occ. eigenvalues --   -1.09591  -1.07172  -1.06240  -1.04882  -1.03966
 Alpha  occ. eigenvalues --   -0.94733  -0.93377  -0.92138  -0.91696  -0.90915
 Alpha  occ. eigenvalues --   -0.90594  -0.90342  -0.89554  -0.88919  -0.88352
 Alpha  occ. eigenvalues --   -0.87454  -0.87294  -0.86023  -0.85174  -0.84849
 Alpha  occ. eigenvalues --   -0.84360  -0.83816  -0.83371  -0.82701  -0.82026
 Alpha  occ. eigenvalues --   -0.81461  -0.80435  -0.79373  -0.79156  -0.77966
 Alpha  occ. eigenvalues --   -0.77806  -0.77588  -0.76953  -0.76147  -0.75800
 Alpha  occ. eigenvalues --   -0.75216  -0.74614  -0.73533  -0.72808  -0.71941
 Alpha  occ. eigenvalues --   -0.70335  -0.70075  -0.68664  -0.68462  -0.67063
 Alpha  occ. eigenvalues --   -0.66959  -0.66759  -0.66428  -0.65833  -0.65746
 Alpha  occ. eigenvalues --   -0.65470  -0.65258  -0.64718  -0.63123  -0.62616
 Alpha  occ. eigenvalues --   -0.62314  -0.61336  -0.60871  -0.60110  -0.59499
 Alpha  occ. eigenvalues --   -0.59103  -0.58706  -0.58485  -0.58350  -0.57463
 Alpha  occ. eigenvalues --   -0.56948  -0.56840  -0.56263  -0.56244  -0.56053
 Alpha  occ. eigenvalues --   -0.55820  -0.55314  -0.55178  -0.54847  -0.54779
 Alpha  occ. eigenvalues --   -0.54713  -0.54380  -0.54274  -0.54183  -0.53972
 Alpha  occ. eigenvalues --   -0.53498  -0.53444  -0.52815  -0.52710  -0.52624
 Alpha  occ. eigenvalues --   -0.52339  -0.51862  -0.51843  -0.51600  -0.51416
 Alpha  occ. eigenvalues --   -0.51240  -0.50875  -0.50861  -0.50666  -0.50411
 Alpha  occ. eigenvalues --   -0.50247  -0.50190  -0.50040  -0.49948  -0.49686
 Alpha  occ. eigenvalues --   -0.49374  -0.49178  -0.48943  -0.48702  -0.48427
 Alpha  occ. eigenvalues --   -0.48055  -0.47840  -0.47584  -0.47475  -0.47274
 Alpha  occ. eigenvalues --   -0.47229  -0.47044  -0.47001  -0.46907  -0.46742
 Alpha  occ. eigenvalues --   -0.46558  -0.46377  -0.46218  -0.46061  -0.45619
 Alpha  occ. eigenvalues --   -0.45506  -0.45376  -0.45257  -0.44953  -0.44944
 Alpha  occ. eigenvalues --   -0.44649  -0.44408  -0.44041  -0.44014  -0.43875
 Alpha  occ. eigenvalues --   -0.43663  -0.43481  -0.43386  -0.43088  -0.42672
 Alpha  occ. eigenvalues --   -0.42644  -0.42539  -0.42389  -0.42250  -0.42219
 Alpha  occ. eigenvalues --   -0.41863  -0.41597  -0.41107  -0.40968  -0.40491
 Alpha  occ. eigenvalues --   -0.40219  -0.39921  -0.39836  -0.39744  -0.38912
 Alpha  occ. eigenvalues --   -0.38878  -0.38700  -0.38551  -0.38491  -0.37823
 Alpha  occ. eigenvalues --   -0.37501  -0.37365  -0.36678  -0.36058  -0.36003
 Alpha  occ. eigenvalues --   -0.35376  -0.35358  -0.35119  -0.33031  -0.32559
 Alpha  occ. eigenvalues --   -0.31965  -0.31721  -0.31554  -0.30484  -0.25252
 Alpha  occ. eigenvalues --   -0.22915
 Alpha virt. eigenvalues --   -0.06972   0.01043   0.03006   0.05093   0.06032
 Alpha virt. eigenvalues --    0.06229   0.07099   0.08901   0.09212   0.09762
 Alpha virt. eigenvalues --    0.10749   0.11080   0.12067   0.12315   0.12686

 Mulliken charges:
               1
     1  Mg   0.917456
     2  C    0.054740
     3  C   -0.074785
     4  C   -0.067594
     5  C   -0.092024
     6  N   -0.339146
     7  C   -0.062252
     8  C   -0.081655
     9  C   -0.054269
    10  C    0.032856
    11  C   -0.005606
    12  C    0.021419
    13  C    0.024356
    14  C    0.209677
    15  O   -0.263832
    16  O   -0.380049
    17  N   -0.446424
    18  C    0.166533
    19  C   -0.164054
    20  C   -0.079299
    21  C    0.145553
    22  C    0.062879
    23  C    0.023178
    24  O   -0.243272
    25  C    0.009277
    26  N   -0.309919
    27  C    0.042519
    28  C   -0.106019
    29  C   -0.047860
    30  C    0.061985
    31  C    0.022281
    32  C   -0.026550
    33  C   -0.041871
    34  N   -0.404715
    35  C    0.111268
    36  C   -0.182508
    37  C   -0.007844
    38  C    0.107804
    39  C    0.065763
    40  C    0.123571
    41  O   -0.206428
    42  C   -0.122685
    43  C    0.242223
    44  O   -0.217104
    45  O   -0.351932
    46  C    0.139387
    47  C    0.258249
    48  C   -0.141786
    49  C   -0.258348
    50  C    0.048158
    51  C    0.064800
    52  C   -0.047436
    53  C    0.001289
    54  C   -0.163767
    55  C   -0.018917
    56  C    0.005490
    57  C   -0.058955
    58  C    0.035482
    59  C   -0.204939
    60  C    0.011696
    61  C   -0.005172
    62  C   -0.008231
    63  C   -0.028043
    64  C   -0.231220
    65  C   -0.008237
    66  C    0.020917
    67  H   -0.012887
    68  H    0.015226
    69  H   -0.010087
    70  H    0.065566
    71  H    0.027586
    72  H    0.047653
    73  H    0.034564
    74  H    0.071626
    75  H    0.027882
    76  H    0.043448
    77  H    0.055403
    78  H    0.066654
    79  H    0.033548
    80  H    0.054318
    81  H    0.076760
    82  H    0.052538
    83  H    0.046537
    84  H    0.061365
    85  H    0.047216
    86  H    0.033909
    87  H    0.040226
    88  H    0.048604
    89  H    0.034620
    90  H    0.026205
    91  H    0.021794
    92  H    0.037779
    93  H    0.041419
    94  H    0.044368
    95  H    0.053923
    96  H    0.023528
    97  H    0.050619
    98  H    0.058495
    99  H    0.077344
   100  H    0.052426
   101  H    0.045956
   102  H    0.062409
   103  H    0.054392
   104  H    0.026862
   105  H    0.016731
   106  H    0.071242
   107  H    0.049919
   108  H    0.021546
   109  H    0.018977
   110  H    0.010826
   111  H    0.021372
   112  H    0.023869
   113  H    0.034922
   114  H    0.020593
   115  H    0.023287
   116  H    0.029550
   117  H    0.029510
   118  H    0.015512
   119  H    0.005747
   120  H    0.011814
   121  H    0.010925
   122  H    0.027420
   123  H    0.020248
   124  H    0.019671
   125  H    0.017285
   126  H    0.031115
   127  H    0.029527
   128  H    0.014251
   129  H    0.013269
   130  H    0.023153
   131  H    0.035945
   132  H    0.032064
   133  H    0.011979
   134  H    0.023685
   135  H    0.026892
   136  H    0.026437
   137  H    0.033481
   138  H    0.025876
   139  H    0.035578
   140  H    0.019930
 Sum of Mulliken charges =  -0.00000

 Dipole moment (field-independent basis, Debye):
    X=              4.6030    Y=              4.2704    Z=             -2.0859  Tot=              6.6162
 Quadrupole moment (field-independent basis, Debye-Ang):
   XX=           -375.7175   YY=           -419.1741   ZZ=           -399.4580
   XY=              5.3028   XZ=             22.5259   YZ=             -2.9416

 Normal termination of Gaussian 16 at Wed May  4 13:54:58 2022.
