 Gaussian 16, Revision A.03,
 Gaussian 16:  ES64L-G16RevA.03 25-Dec-2016

 --------------------
 #p ZINDO=(nstates=5)
 --------------------

 ------------------------------
 step_1751_chromophore_19 ZINDO
 ------------------------------
 Symbolic Z-matrix:
 Charge =  0 Multiplicity = 1

                         Standard orientation:
 ---------------------------------------------------------------------
 Center     Atomic      Atomic             Coordinates (Angstroms)
 Number     Number       Type             X           Y           Z
 ---------------------------------------------------------------------
      1         12           0       -5.883556    0.412844   -0.218404
      2          6           0       -3.501475   -2.199495   -0.292960
      3          6           0       -3.320211    2.636733   -0.078743
      4          6           0       -8.154483    2.688619    0.244677
      5          6           0       -8.340080   -2.109374   -0.294418
      6          7           0       -3.582137    0.246149   -0.447912
      7          6           0       -2.902623   -0.964611   -0.326591
      8          6           0       -1.384821   -0.648117   -0.202839
      9          6           0       -1.346369    0.856052    0.098088
     10          6           0       -2.798362    1.327605   -0.184945
     11          6           0       -0.890052    1.220059    1.657218
     12          6           0       -0.619273   -1.212703   -1.452599
     13          6           0        0.687774   -1.994804   -1.223385
     14          6           0        1.635643   -1.587349   -0.021004
     15          8           0        1.350069   -1.789830    1.150362
     16          8           0        2.815831   -0.989267   -0.424063
     17          7           0       -5.801979    2.455784    0.073803
     18          6           0       -4.606360    3.239347   -0.036692
     19          6           0       -4.922056    4.594874    0.169168
     20          6           0       -6.349929    4.625378    0.432701
     21          6           0       -6.813782    3.184720    0.267023
     22          6           0       -3.941166    5.624795   -0.043856
     23          6           0       -7.245154    5.877178    0.517574
     24          8           0       -8.456863    5.783041    0.681311
     25          6           0       -6.688316    7.270186    0.393100
     26          7           0       -8.004658    0.273784    0.121742
     27          6           0       -8.703121    1.364599    0.172726
     28          6           0      -10.234927    1.123978    0.081611
     29          6           0      -10.243902   -0.438717   -0.323484
     30          6           0       -8.789909   -0.803542   -0.121431
     31          6           0      -10.949342    1.357625    1.427783
     32          6           0      -10.904600   -0.701317   -1.684129
     33          6           0      -10.107860   -0.483794   -2.994174
     34          7           0       -5.986109   -1.799172   -0.138948
     35          6           0       -7.090008   -2.647798   -0.206997
     36          6           0       -6.596806   -3.963629   -0.362639
     37          6           0       -5.167417   -3.882704   -0.304543
     38          6           0       -4.870362   -2.532033   -0.238973
     39          6           0       -7.394816   -5.219624   -0.366430
     40          6           0       -3.902957   -4.586150   -0.218799
     41          8           0       -3.615353   -5.773169   -0.190154
     42          6           0       -2.819262   -3.544847   -0.214237
     43          6           0       -2.136857   -3.640796    1.159287
     44          8           0       -2.307859   -2.935364    2.092298
     45          8           0       -1.147362   -4.536807    1.116430
     46          6           0       -0.144639   -4.553557    2.239085
     47          6           0        3.918322   -0.896904    0.601718
     48          6           0        5.282845   -1.009347    0.201215
     49          6           0        6.384114   -0.669356    0.918425
     50          6           0        6.512517   -0.150065    2.289145
     51          6           0        7.795199   -0.885510    0.284560
     52          6           0        8.234020    0.331699   -0.473271
     53          6           0        8.902289   -0.052062   -1.868303
     54          6           0        9.501110    1.172450   -2.582638
     55          6           0        8.534322    2.332367   -3.078984
     56          6           0       10.444801    0.819073   -3.784122
     57          6           0       11.971198    1.148488   -3.513383
     58          6           0       12.700657    0.024804   -2.706970
     59          6           0       13.327881    0.565565   -1.390595
     60          6           0       14.761561   -0.039557   -1.404906
     61          6           0       12.529427    0.091430   -0.176577
     62          6           0       13.008224    0.793421    1.175017
     63          6           0       11.748159    1.296409    1.953132
     64          6           0       11.915731    1.028596    3.439330
     65          6           0       11.503770   -0.450983    3.762123
     66          6           0       11.193049    2.118767    4.188182
     67          1           0       -2.523887    3.365166    0.085277
     68          1           0       -8.924102    3.464154    0.246813
     69          1           0       -8.986049   -2.901272   -0.679426
     70          1           0       -1.095224   -1.182204    0.702590
     71          1           0       -0.624559    1.201333   -0.642121
     72          1           0       -1.784450    1.527340    2.198779
     73          1           0       -0.211786    2.072343    1.615169
     74          1           0       -0.388643    0.428860    2.213557
     75          1           0       -0.439619   -0.424737   -2.183227
     76          1           0       -1.283815   -1.876224   -2.005779
     77          1           0        1.194068   -1.897680   -2.183828
     78          1           0        0.481704   -3.013543   -0.896680
     79          1           0       -2.902565    5.296978   -0.086625
     80          1           0       -3.906543    6.291893    0.816692
     81          1           0       -4.212866    5.938698   -1.051906
     82          1           0       -6.100092    7.409581   -0.514177
     83          1           0       -6.014830    7.362928    1.244698
     84          1           0       -7.529778    7.955285    0.500905
     85          1           0      -10.706330    1.738080   -0.685474
     86          1           0      -10.699041   -1.150994    0.364902
     87          1           0      -10.196015    1.707664    2.132922
     88          1           0      -11.548257    0.569301    1.883558
     89          1           0      -11.579639    2.240328    1.323011
     90          1           0      -11.790986   -0.069093   -1.628054
     91          1           0      -11.377443   -1.683660   -1.698653
     92          1           0      -10.727582    0.211632   -3.561124
     93          1           0       -9.974162   -1.378750   -3.600569
     94          1           0       -9.107638   -0.074705   -2.845472
     95          1           0       -6.886193   -6.092813   -0.773446
     96          1           0       -8.362211   -5.077752   -0.849752
     97          1           0       -7.652497   -5.525217    0.647660
     98          1           0       -1.979176   -3.656425   -0.899911
     99          1           0       -0.275740   -3.891911    3.096197
    100          1           0        0.824873   -4.446936    1.752915
    101          1           0       -0.146079   -5.555810    2.667638
    102          1           0        3.800846   -1.764681    1.251983
    103          1           0        3.925106    0.025602    1.181209
    104          1           0        5.321862   -1.321679   -0.842659
    105          1           0        5.609906   -0.515210    2.778623
    106          1           0        6.527824    0.939584    2.288192
    107          1           0        7.153863   -0.718815    2.961420
    108          1           0        7.800472   -1.701059   -0.438465
    109          1           0        8.433685   -1.065921    1.149119
    110          1           0        8.864431    0.868019    0.236126
    111          1           0        7.423148    1.030669   -0.678310
    112          1           0        7.996308   -0.364416   -2.387513
    113          1           0        9.592969   -0.891834   -1.785368
    114          1           0       10.099014    1.748947   -1.876722
    115          1           0        7.550580    2.210497   -2.627019
    116          1           0        8.395960    2.427461   -4.155823
    117          1           0        8.993453    3.272696   -2.771818
    118          1           0       10.152388    1.234127   -4.748133
    119          1           0       10.356326   -0.259410   -3.912714
    120          1           0       12.090794    2.154349   -3.112884
    121          1           0       12.403952    1.285595   -4.504879
    122          1           0       13.464178   -0.206865   -3.449835
    123          1           0       12.019349   -0.815000   -2.570901
    124          1           0       13.315222    1.655991   -1.394906
    125          1           0       14.933629   -0.611532   -0.492805
    126          1           0       15.492500    0.764364   -1.484671
    127          1           0       14.947482   -0.753571   -2.206282
    128          1           0       12.673061   -0.987226   -0.122165
    129          1           0       11.479757    0.283034   -0.399191
    130          1           0       13.518716    1.703745    0.859980
    131          1           0       13.600307    0.129884    1.806813
    132          1           0       10.835373    0.889472    1.518123
    133          1           0       11.748439    2.381817    1.855395
    134          1           0       12.981239    1.079470    3.660019
    135          1           0       10.609314   -0.571611    4.373671
    136          1           0       12.313353   -0.853568    4.370434
    137          1           0       11.430550   -1.051859    2.855980
    138          1           0       10.407759    2.565286    3.577718
    139          1           0       11.904753    2.911065    4.421033
    140          1           0       10.720527    1.675555    5.065122
 ---------------------------------------------------------------------

 SCF Done:  E(RZINDO/S) =  -474.356329713     A.U. after   20 cycles

 Excitation energies and oscillator strengths:

 Excited State   1:      Singlet-A      1.2716 eV  975.04 nm  f=0.5955  <S**2>=0.000
     175 ->178        -0.18737
     176 ->177         0.66528
 This state for optimization and/or second-order correction.
 Total Energy, E(CIS/TDA) =  -474.309599797
 Copying the excited state density for this state as the 1-particle RhoCI density.

 Excited State   2:      Singlet-A      1.8625 eV  665.70 nm  f=0.1395  <S**2>=0.000
     175 ->177         0.60174
     176 ->178         0.34058

 Excited State   3:      Singlet-A      2.9812 eV  415.88 nm  f=0.0015  <S**2>=0.000
     168 ->177         0.30545
     168 ->179        -0.31739
     168 ->180        -0.18486
     168 ->181         0.21667
     168 ->184         0.14204
     168 ->186        -0.18756
     169 ->177         0.15354
     169 ->179        -0.15555

 Excited State   4:      Singlet-A      3.0159 eV  411.11 nm  f=0.0132  <S**2>=0.000
     170 ->177         0.27593
     170 ->179         0.31398
     170 ->180        -0.18424
     170 ->181         0.24767
     170 ->186         0.11495
     170 ->188         0.13929
     172 ->177         0.12912
     174 ->177        -0.20405
     176 ->179        -0.10140

 Excited State   5:      Singlet-A      3.0771 eV  402.93 nm  f=0.7841  <S**2>=0.000
     171 ->177        -0.26648
     172 ->177        -0.22368
     175 ->177        -0.26517
     176 ->178         0.50382
     176 ->179         0.11267

 The electronic state is 1-A.
 Alpha  occ. eigenvalues --   -1.84254  -1.82469  -1.79912  -1.72876  -1.71756
 Alpha  occ. eigenvalues --   -1.69517  -1.65795  -1.60586  -1.58918  -1.58755
 Alpha  occ. eigenvalues --   -1.57494  -1.51697  -1.49387  -1.48280  -1.46714
 Alpha  occ. eigenvalues --   -1.43021  -1.42173  -1.42000  -1.39228  -1.38148
 Alpha  occ. eigenvalues --   -1.33780  -1.33182  -1.32114  -1.31036  -1.28873
 Alpha  occ. eigenvalues --   -1.27096  -1.24913  -1.23265  -1.22173  -1.18313
 Alpha  occ. eigenvalues --   -1.17568  -1.16424  -1.14550  -1.13957  -1.13829
 Alpha  occ. eigenvalues --   -1.11520  -1.10283  -1.09991  -1.05185  -1.03783
 Alpha  occ. eigenvalues --   -1.02588  -1.01378  -0.99511  -0.98529  -0.97260
 Alpha  occ. eigenvalues --   -0.96280  -0.94081  -0.93356  -0.92947  -0.91776
 Alpha  occ. eigenvalues --   -0.89951  -0.89778  -0.89768  -0.87503  -0.87220
 Alpha  occ. eigenvalues --   -0.85104  -0.84297  -0.82758  -0.81275  -0.80610
 Alpha  occ. eigenvalues --   -0.79953  -0.77692  -0.76386  -0.76271  -0.75663
 Alpha  occ. eigenvalues --   -0.75061  -0.74891  -0.74655  -0.73861  -0.73267
 Alpha  occ. eigenvalues --   -0.73040  -0.72508  -0.72097  -0.71735  -0.71124
 Alpha  occ. eigenvalues --   -0.69984  -0.69500  -0.69207  -0.68716  -0.68205
 Alpha  occ. eigenvalues --   -0.67672  -0.67223  -0.66430  -0.65944  -0.65164
 Alpha  occ. eigenvalues --   -0.64734  -0.64276  -0.63590  -0.63521  -0.62932
 Alpha  occ. eigenvalues --   -0.62680  -0.62581  -0.62534  -0.62104  -0.61834
 Alpha  occ. eigenvalues --   -0.61218  -0.60892  -0.60531  -0.60294  -0.60215
 Alpha  occ. eigenvalues --   -0.59742  -0.59637  -0.59095  -0.58830  -0.58491
 Alpha  occ. eigenvalues --   -0.58329  -0.57689  -0.57451  -0.56640  -0.56205
 Alpha  occ. eigenvalues --   -0.56023  -0.54990  -0.54822  -0.54469  -0.54368
 Alpha  occ. eigenvalues --   -0.53830  -0.53647  -0.53529  -0.53137  -0.52409
 Alpha  occ. eigenvalues --   -0.52283  -0.52169  -0.52099  -0.51617  -0.51438
 Alpha  occ. eigenvalues --   -0.50916  -0.50700  -0.50605  -0.50523  -0.50116
 Alpha  occ. eigenvalues --   -0.49708  -0.49363  -0.49267  -0.49139  -0.48958
 Alpha  occ. eigenvalues --   -0.48860  -0.48450  -0.48243  -0.47859  -0.47662
 Alpha  occ. eigenvalues --   -0.47367  -0.47269  -0.46636  -0.46185  -0.46035
 Alpha  occ. eigenvalues --   -0.45889  -0.45635  -0.45136  -0.45104  -0.45039
 Alpha  occ. eigenvalues --   -0.44668  -0.44397  -0.44087  -0.44021  -0.43855
 Alpha  occ. eigenvalues --   -0.43819  -0.42940  -0.42106  -0.41801  -0.41750
 Alpha  occ. eigenvalues --   -0.41517  -0.40956  -0.40352  -0.39010  -0.38433
 Alpha  occ. eigenvalues --   -0.37061  -0.36410  -0.35331  -0.34829  -0.33954
 Alpha  occ. eigenvalues --   -0.32760  -0.31567  -0.31172  -0.31080  -0.25830
 Alpha  occ. eigenvalues --   -0.21753
 Alpha virt. eigenvalues --   -0.08505  -0.01119   0.00007   0.01697   0.01785
 Alpha virt. eigenvalues --    0.02662   0.03564   0.04474   0.04680   0.05140
 Alpha virt. eigenvalues --    0.06403   0.06573   0.07428   0.07517   0.08122

 Mulliken charges:
               1
     1  Mg   0.432455
     2  C   -0.024601
     3  C   -0.068971
     4  C   -0.105310
     5  C   -0.055166
     6  N   -0.287699
     7  C    0.099184
     8  C   -0.000228
     9  C    0.007182
    10  C    0.152675
    11  C   -0.052526
    12  C   -0.017034
    13  C    0.005997
    14  C    0.461387
    15  O   -0.513752
    16  O   -0.279561
    17  N   -0.310573
    18  C    0.093527
    19  C    0.044797
    20  C   -0.078645
    21  C    0.183169
    22  C   -0.038295
    23  C    0.322281
    24  O   -0.525552
    25  C   -0.027944
    26  N   -0.252523
    27  C    0.172310
    28  C    0.007143
    29  C   -0.004745
    30  C    0.101832
    31  C   -0.052292
    32  C   -0.025876
    33  C   -0.052083
    34  N   -0.345219
    35  C    0.082083
    36  C    0.018589
    37  C   -0.070263
    38  C    0.116068
    39  C   -0.040261
    40  C    0.342943
    41  O   -0.538453
    42  C    0.052547
    43  C    0.494686
    44  O   -0.520069
    45  O   -0.269318
    46  C    0.073651
    47  C    0.104140
    48  C   -0.074732
    49  C   -0.022931
    50  C   -0.047259
    51  C   -0.031010
    52  C   -0.035853
    53  C   -0.029509
    54  C   -0.015916
    55  C   -0.061144
    56  C   -0.042916
    57  C   -0.048177
    58  C   -0.039885
    59  C   -0.011752
    60  C   -0.059056
    61  C   -0.040459
    62  C   -0.049986
    63  C   -0.038668
    64  C   -0.010642
    65  C   -0.060907
    66  C   -0.052795
    67  H    0.013582
    68  H    0.034966
    69  H    0.020384
    70  H    0.049405
    71  H    0.031623
    72  H    0.027167
    73  H    0.015233
    74  H    0.043436
    75  H    0.020353
    76  H    0.022143
    77  H    0.036005
    78  H    0.051371
    79  H    0.021086
    80  H    0.036423
    81  H    0.048223
    82  H    0.036647
    83  H    0.034062
    84  H    0.044466
    85  H    0.039050
    86  H    0.032181
    87  H    0.022789
    88  H    0.031551
    89  H    0.015502
    90  H    0.011643
    91  H    0.015172
    92  H    0.016734
    93  H    0.022947
    94  H    0.026406
    95  H    0.030859
    96  H    0.017028
    97  H    0.028848
    98  H    0.056699
    99  H    0.061769
   100  H    0.036875
   101  H    0.029244
   102  H    0.054875
   103  H    0.051907
   104  H    0.029803
   105  H    0.007371
   106  H    0.045074
   107  H    0.038217
   108  H    0.022603
   109  H    0.022495
   110  H    0.014441
   111  H    0.021428
   112  H    0.019505
   113  H    0.031659
   114  H    0.016929
   115  H    0.016535
   116  H    0.021501
   117  H    0.016619
   118  H    0.020372
   119  H    0.010367
   120  H    0.020401
   121  H    0.006778
   122  H    0.019537
   123  H    0.029915
   124  H    0.029463
   125  H    0.013779
   126  H    0.016112
   127  H    0.022245
   128  H    0.017472
   129  H    0.020373
   130  H    0.023116
   131  H    0.032952
   132  H    0.028382
   133  H    0.009723
   134  H    0.019704
   135  H    0.022009
   136  H    0.011420
   137  H    0.021483
   138  H    0.016962
   139  H    0.020466
   140  H    0.016043
 Sum of Mulliken charges =  -0.00000

 Dipole moment (field-independent basis, Debye):
    X=              5.4372    Y=              7.2504    Z=             -4.3837  Tot=             10.0672
 N-N= 4.328350195130D+03 E-N= 0.000000000000D+00  KE=-9.331812289381D+03
 Leave Link  601 at Wed May  4 14:09:09 2022, MaxMem=  6710886400 cpu:               0.8 elap:               0.0
 (Enter /sw/apps/gaussian-16.0/g16/l9999.exe)
 1\1\GINC-BP1-COMPUTE036\SP\RZINDO CIS\STO-3G\C55H74Mg1N4O6\OF15641\04-
 May-2022\0\\#p ZINDO=(nstates=5)\\step_1751_chromophore_19 ZINDO\\0,1\
 Mg,0,25.97,50.131,26.772\C,0,23.737,50.804,29.43\C,0,28.306,49.235,29.
 069\C,0,28.045,49.931,24.281\C,0,23.391,51.185,24.618\N,0,25.935,49.78
 1,29.064\C,0,24.92,50.274,29.882\C,0,25.393,50.144,31.358\C,0,26.899,4
 9.875,31.239\C,0,27.102,49.566,29.731\C,0,27.852,51.151,31.724\C,0,24.
 477,49.123,32.123\C,0,23.954,49.507,33.52\C,0,24.859,50.394,34.471\O,0

 Normal termination of Gaussian 16 at Wed May  4 14:09:09 2022.
