 Gaussian 16, Revision A.03,
 Gaussian 16:  ES64L-G16RevA.03 25-Dec-2016

 ------------------------------
 #p blyp/Def2SVP td=(nstates=5)
 ------------------------------

 --------------------------------------------------
 step_501_chromophore_27 TDDFT with blyp functional
 --------------------------------------------------
 Symbolic Z-matrix:
 Charge =  0 Multiplicity = 1

                         Standard orientation:
 ---------------------------------------------------------------------
 Center     Atomic      Atomic             Coordinates (Angstroms)
 Number     Number       Type             X           Y           Z
 ---------------------------------------------------------------------
      1         12           0       -4.730958    0.894399    0.083161
      2          6           0       -3.759485   -2.558704    0.460171
      3          6           0       -1.370616    1.713587    0.661396
      4          6           0       -5.570399    4.035371   -0.374575
      5          6           0       -8.068101   -0.118293   -0.159852
      6          7           0       -2.785758   -0.363672    0.541805
      7          6           0       -2.607781   -1.706526    0.430820
      8          6           0       -1.136070   -2.084042    0.386169
      9          6           0       -0.365856   -0.711873    0.809316
     10          6           0       -1.565051    0.272926    0.693377
     11          6           0        0.359710   -0.763702    2.177183
     12          6           0       -0.696570   -2.640875   -1.010024
     13          6           0       -0.064621   -4.055847   -0.953731
     14          6           0        1.504499   -4.094924   -1.415068
     15          8           0        1.959732   -4.625848   -2.442438
     16          8           0        2.272727   -3.676867   -0.337185
     17          7           0       -3.654782    2.579339    0.128631
     18          6           0       -2.263080    2.790314    0.412903
     19          6           0       -1.856916    4.213895    0.342420
     20          6           0       -3.091588    4.847006   -0.017128
     21          6           0       -4.149535    3.826180   -0.101083
     22          6           0       -0.448614    4.740587    0.625711
     23          6           0       -3.370179    6.292029   -0.186023
     24          8           0       -4.367686    6.770122   -0.715326
     25          6           0       -2.263162    7.289924    0.206952
     26          7           0       -6.506846    1.769505   -0.386361
     27          6           0       -6.620011    3.112570   -0.499939
     28          6           0       -8.048310    3.580039   -0.541903
     29          6           0       -8.880312    2.274117   -0.523175
     30          6           0       -7.768745    1.207095   -0.405022
     31          6           0       -8.411324    4.604915    0.512129
     32          6           0       -9.716605    2.101070   -1.923795
     33          6           0      -11.315859    1.865835   -1.764672
     34          7           0       -5.780119   -0.927573    0.400742
     35          6           0       -7.157174   -1.166584    0.175270
     36          6           0       -7.385360   -2.610430    0.303255
     37          6           0       -6.073715   -3.152949    0.272573
     38          6           0       -5.163108   -2.110777    0.453254
     39          6           0       -8.693156   -3.393011    0.374483
     40          6           0       -5.359346   -4.450639    0.435209
     41          8           0       -5.705497   -5.656547    0.574531
     42          6           0       -3.827462   -4.073527    0.432299
     43          6           0       -3.182673   -4.697290    1.634800
     44          8           0       -3.655114   -4.687438    2.736205
     45          8           0       -2.054059   -5.367524    1.252099
     46          6           0       -1.552039   -6.283937    2.306953
     47          6           0        3.692417   -4.000254   -0.340195
     48          6           0        4.543017   -2.714295   -0.598089
     49          6           0        5.825099   -2.605662   -0.958810
     50          6           0        6.807194   -3.700150   -0.926281
     51          6           0        6.394891   -1.190499   -1.159269
     52          6           0        6.468878   -0.776839   -2.680119
     53          6           0        7.987161   -0.675030   -3.116448
     54          6           0        8.101640    0.439922   -4.187346
     55          6           0        8.035564   -0.118826   -5.642056
     56          6           0        9.470940    1.138527   -3.972915
     57          6           0        9.455485    2.277607   -2.868488
     58          6           0       10.382374    1.939307   -1.663650
     59          6           0        9.717790    1.547638   -0.298212
     60          6           0       10.219604    0.123813    0.039285
     61          6           0       10.124862    2.607390    0.775644
     62          6           0        9.500795    2.334069    2.145326
     63          6           0       10.401078    2.270715    3.366117
     64          6           0        9.544806    1.901986    4.643625
     65          6           0       10.086822    2.805663    5.831169
     66          6           0        9.660698    0.438287    5.081471
     67          1           0       -0.346767    1.921169    0.978707
     68          1           0       -5.914287    5.059944   -0.532813
     69          1           0       -9.098581   -0.461504   -0.270741
     70          1           0       -0.988880   -2.809803    1.186027
     71          1           0        0.352230   -0.386809    0.055985
     72          1           0       -0.102243   -0.078028    2.888108
     73          1           0        1.415800   -0.518300    2.057830
     74          1           0        0.426509   -1.746696    2.643465
     75          1           0        0.042521   -1.996634   -1.486965
     76          1           0       -1.541852   -2.724047   -1.693685
     77          1           0       -0.475349   -4.737978   -1.698566
     78          1           0       -0.200700   -4.588402   -0.012996
     79          1           0        0.366535    4.016769    0.598908
     80          1           0       -0.337983    5.312689    1.546831
     81          1           0       -0.250665    5.449343   -0.179025
     82          1           0       -2.035836    7.205346    1.269588
     83          1           0       -2.515196    8.316272   -0.061992
     84          1           0       -1.368353    7.033529   -0.360191
     85          1           0       -8.189076    4.142440   -1.465927
     86          1           0       -9.524154    2.227684    0.354632
     87          1           0       -8.550265    5.609659    0.112078
     88          1           0       -7.651850    4.771865    1.275867
     89          1           0       -9.312503    4.258332    1.018375
     90          1           0       -9.365659    1.282066   -2.550777
     91          1           0       -9.634613    2.975406   -2.568947
     92          1           0      -11.567031    2.245648   -0.774145
     93          1           0      -11.583566    0.813168   -1.864782
     94          1           0      -11.881103    2.513506   -2.434330
     95          1           0       -8.604754   -4.383857   -0.070635
     96          1           0       -9.405996   -2.891620   -0.281201
     97          1           0       -8.993618   -3.286648    1.416941
     98          1           0       -3.401968   -4.588321   -0.428747
     99          1           0       -1.426862   -5.694653    3.215142
    100          1           0       -0.550935   -6.540942    1.961119
    101          1           0       -2.152255   -7.147949    2.591997
    102          1           0        3.913768   -4.733128   -1.116210
    103          1           0        4.075735   -4.498302    0.550167
    104          1           0        3.950310   -1.798960   -0.621382
    105          1           0        7.315616   -3.674072   -1.889891
    106          1           0        6.537438   -4.734975   -0.711491
    107          1           0        7.614428   -3.423711   -0.248544
    108          1           0        7.377605   -1.132620   -0.690965
    109          1           0        5.762162   -0.503753   -0.597573
    110          1           0        5.982820    0.194819   -2.763734
    111          1           0        5.889408   -1.423582   -3.338515
    112          1           0        8.341716   -1.596628   -3.576019
    113          1           0        8.601779   -0.458587   -2.242469
    114          1           0        7.300364    1.178214   -4.152539
    115          1           0        7.654150    0.582911   -6.384038
    116          1           0        7.516998   -1.075877   -5.595060
    117          1           0        9.059487   -0.361934   -5.925501
    118          1           0        9.700924    1.597814   -4.934305
    119          1           0       10.196824    0.353333   -3.761595
    120          1           0        8.443720    2.499251   -2.528815
    121          1           0        9.835490    3.116310   -3.452124
    122          1           0       10.912515    2.874062   -1.477222
    123          1           0       11.180202    1.225628   -1.869314
    124          1           0        8.648540    1.553893   -0.508957
    125          1           0       11.273319    0.155554    0.315451
    126          1           0       10.235376   -0.556629   -0.811305
    127          1           0        9.608612   -0.320224    0.825131
    128          1           0        9.715505    3.581640    0.507901
    129          1           0       11.202307    2.645630    0.934321
    130          1           0        8.969971    1.383928    2.080371
    131          1           0        8.686831    3.044836    2.290764
    132          1           0       10.677856    3.324636    3.342526
    133          1           0       11.242948    1.606270    3.172873
    134          1           0        8.482269    2.127750    4.547061
    135          1           0       10.262284    3.817012    5.464184
    136          1           0       11.051858    2.380826    6.107406
    137          1           0        9.382664    3.064983    6.621689
    138          1           0        8.684073   -0.045390    5.052539
    139          1           0       10.123351    0.450766    6.068824
    140          1           0       10.326273    0.001098    4.338015
 ---------------------------------------------------------------------

 SCF Done:  E(RB-LYP) =  -3007.39768095     A.U. after   20 cycles

 Excitation energies and oscillator strengths:

 Excited State   1:      Singlet-A      1.7648 eV  702.56 nm  f=0.2314  <S**2>=0.000
     243 -> 247       -0.21259
     245 -> 248        0.18400
     246 -> 247        0.64966
     246 <- 247       -0.13875
 This state for optimization and/or second-order correction.
 Total Energy, E(TD-HF/TD-DFT) =  -3007.33282741
 Copying the excited state density for this state as the 1-particle RhoCI density.

 Excited State   2:      Singlet-A      1.8523 eV  669.34 nm  f=0.0021  <S**2>=0.000
     243 -> 247        0.25371
     244 -> 247        0.65221

 Excited State   3:      Singlet-A      1.8715 eV  662.48 nm  f=0.0553  <S**2>=0.000
     243 -> 247        0.60260
     244 -> 247       -0.25269
     245 -> 247       -0.11366
     246 -> 247        0.22990

 Excited State   4:      Singlet-A      1.9619 eV  631.95 nm  f=0.1010  <S**2>=0.000
     243 -> 247        0.16109
     245 -> 247        0.63563
     246 -> 248       -0.23845

 Excited State   5:      Singlet-A      2.1887 eV  566.48 nm  f=0.0000  <S**2>=0.000
     242 -> 247        0.70710

 The electronic state is 1-A.
 Alpha  occ. eigenvalues --  -46.27079 -18.82776 -18.82480 -18.77522 -18.76751
 Alpha  occ. eigenvalues --  -18.75660 -18.75551 -14.03483 -14.03324 -14.02083
 Alpha  occ. eigenvalues --  -14.00991 -10.04740 -10.03573  -9.99841  -9.99740
 Alpha  occ. eigenvalues --   -9.98095  -9.97949  -9.97083  -9.96906  -9.96820
 Alpha  occ. eigenvalues --   -9.96796  -9.96617  -9.96350  -9.95976  -9.95546
 Alpha  occ. eigenvalues --   -9.94916  -9.94866  -9.94635  -9.94615  -9.94596
 Alpha  occ. eigenvalues --   -9.94330  -9.93844  -9.93843  -9.93707  -9.93587
 Alpha  occ. eigenvalues --   -9.93534  -9.93506  -9.93448  -9.93376  -9.92976
 Alpha  occ. eigenvalues --   -9.92687  -9.92606  -9.92551  -9.92421  -9.92404
 Alpha  occ. eigenvalues --   -9.92322  -9.92243  -9.92209  -9.92126  -9.91938
 Alpha  occ. eigenvalues --   -9.91909  -9.91781  -9.91686  -9.91614  -9.91561
 Alpha  occ. eigenvalues --   -9.91453  -9.91451  -9.91445  -9.91403  -9.91294
 Alpha  occ. eigenvalues --   -9.90953  -9.90918  -9.90868  -9.90857  -9.90792
 Alpha  occ. eigenvalues --   -9.90571  -2.91809  -1.72232  -1.71693  -1.71532
 Alpha  occ. eigenvalues --   -0.98474  -0.97046  -0.91388  -0.90796  -0.89433
 Alpha  occ. eigenvalues --   -0.88929  -0.86420  -0.85606  -0.85049  -0.84464
 Alpha  occ. eigenvalues --   -0.74561  -0.73500  -0.73083  -0.72097  -0.72010
 Alpha  occ. eigenvalues --   -0.71899  -0.71716  -0.70876  -0.70811  -0.70366
 Alpha  occ. eigenvalues --   -0.69339  -0.68429  -0.67659  -0.67164  -0.66750
 Alpha  occ. eigenvalues --   -0.66128  -0.65621  -0.64992  -0.64876  -0.64172
 Alpha  occ. eigenvalues --   -0.63845  -0.63191  -0.62070  -0.61701  -0.60875
 Alpha  occ. eigenvalues --   -0.60562  -0.60209  -0.59996  -0.59866  -0.58816
 Alpha  occ. eigenvalues --   -0.57994  -0.57554  -0.56591  -0.55393  -0.54422
 Alpha  occ. eigenvalues --   -0.53943  -0.53772  -0.52741  -0.52400  -0.51934
 Alpha  occ. eigenvalues --   -0.51443  -0.50522  -0.50513  -0.50147  -0.49980
 Alpha  occ. eigenvalues --   -0.49865  -0.49250  -0.48853  -0.48705  -0.47079
 Alpha  occ. eigenvalues --   -0.46378  -0.45813  -0.45290  -0.45059  -0.44501
 Alpha  occ. eigenvalues --   -0.43826  -0.43110  -0.42868  -0.42272  -0.41932
 Alpha  occ. eigenvalues --   -0.41811  -0.41681  -0.41472  -0.41278  -0.41188
 Alpha  occ. eigenvalues --   -0.41062  -0.40739  -0.40428  -0.39894  -0.39804
 Alpha  occ. eigenvalues --   -0.39642  -0.39507  -0.39437  -0.39160  -0.39016
 Alpha  occ. eigenvalues --   -0.38861  -0.38791  -0.38530  -0.38339  -0.38282
 Alpha  occ. eigenvalues --   -0.38127  -0.37772  -0.37637  -0.37345  -0.37171
 Alpha  occ. eigenvalues --   -0.37070  -0.36909  -0.36769  -0.36639  -0.36280
 Alpha  occ. eigenvalues --   -0.36067  -0.35994  -0.35803  -0.35513  -0.35483
 Alpha  occ. eigenvalues --   -0.35368  -0.35228  -0.35120  -0.34861  -0.34792
 Alpha  occ. eigenvalues --   -0.34720  -0.34295  -0.34182  -0.34134  -0.34072
 Alpha  occ. eigenvalues --   -0.33689  -0.33512  -0.33320  -0.33227  -0.33153
 Alpha  occ. eigenvalues --   -0.33009  -0.32886  -0.32793  -0.32716  -0.32328
 Alpha  occ. eigenvalues --   -0.32316  -0.32222  -0.31906  -0.31710  -0.31585
 Alpha  occ. eigenvalues --   -0.31458  -0.31326  -0.31087  -0.30903  -0.30700
 Alpha  occ. eigenvalues --   -0.30428  -0.30198  -0.30165  -0.29922  -0.29840
 Alpha  occ. eigenvalues --   -0.29700  -0.29618  -0.29317  -0.29229  -0.29133
 Alpha  occ. eigenvalues --   -0.28807  -0.28801  -0.28474  -0.28234  -0.28196
 Alpha  occ. eigenvalues --   -0.27980  -0.27847  -0.27650  -0.27576  -0.26974
 Alpha  occ. eigenvalues --   -0.26953  -0.26291  -0.26039  -0.25730  -0.25586
 Alpha  occ. eigenvalues --   -0.25540  -0.24709  -0.24059  -0.23944  -0.23698
 Alpha  occ. eigenvalues --   -0.23662  -0.22656  -0.21953  -0.21917  -0.21041
 Alpha  occ. eigenvalues --   -0.20456  -0.19833  -0.18540  -0.18487  -0.17220
 Alpha  occ. eigenvalues --   -0.15992
 Alpha virt. eigenvalues --   -0.11789  -0.06979  -0.06364  -0.04963  -0.04019
 Alpha virt. eigenvalues --   -0.02300  -0.02038  -0.01257  -0.01131  -0.00379
 Alpha virt. eigenvalues --    0.00560   0.01038   0.02258   0.02446   0.02748

 Mulliken charges:
               1
     1  Mg   0.715328
     2  C    0.022970
     3  C   -0.059885
     4  C   -0.046572
     5  C   -0.065163
     6  N   -0.172594
     7  C   -0.092532
     8  C    0.044223
     9  C   -0.011477
    10  C   -0.031246
    11  C    0.125224
    12  C    0.146473
    13  C    0.093272
    14  C    0.078394
    15  O   -0.191430
    16  O   -0.276235
    17  N   -0.338736
    18  C    0.162965
    19  C   -0.118248
    20  C    0.049940
    21  C    0.128508
    22  C    0.171998
    23  C   -0.095928
    24  O   -0.166362
    25  C    0.121841
    26  N   -0.260359
    27  C    0.033550
    28  C    0.031321
    29  C    0.038192
    30  C    0.062555
    31  C    0.121948
    32  C    0.058556
    33  C    0.031765
    34  N   -0.251191
    35  C    0.098053
    36  C   -0.167947
    37  C   -0.009364
    38  C    0.069634
    39  C    0.191028
    40  C    0.032441
    41  O   -0.173594
    42  C    0.059383
    43  C    0.077297
    44  O   -0.147458
    45  O   -0.275858
    46  C    0.215525
    47  C    0.295140
    48  C   -0.115442
    49  C   -0.125124
    50  C    0.166115
    51  C    0.106073
    52  C    0.081926
    53  C    0.091819
    54  C   -0.113191
    55  C    0.116586
    56  C    0.082311
    57  C    0.102597
    58  C    0.109690
    59  C   -0.086600
    60  C    0.093414
    61  C    0.149862
    62  C    0.010699
    63  C    0.120810
    64  C   -0.108141
    65  C    0.083935
    66  C    0.143043
    67  H   -0.063971
    68  H   -0.046395
    69  H   -0.064048
    70  H   -0.013553
    71  H   -0.016205
    72  H    0.000171
    73  H   -0.010023
    74  H   -0.005376
    75  H   -0.006795
    76  H   -0.008040
    77  H   -0.010424
    78  H    0.013911
    79  H   -0.006229
    80  H    0.011712
    81  H   -0.002733
    82  H    0.003648
    83  H   -0.009344
    84  H   -0.007065
    85  H   -0.015541
    86  H   -0.008237
    87  H   -0.006935
    88  H   -0.006423
    89  H   -0.017520
    90  H   -0.009239
    91  H   -0.015693
    92  H   -0.013494
    93  H    0.010582
    94  H   -0.004427
    95  H    0.014566
    96  H   -0.017106
    97  H    0.020988
    98  H   -0.003330
    99  H    0.008449
   100  H    0.011220
   101  H    0.035771
   102  H    0.002016
   103  H    0.000307
   104  H   -0.045624
   105  H   -0.020504
   106  H   -0.010706
   107  H   -0.012465
   108  H   -0.028088
   109  H   -0.032880
   110  H   -0.031558
   111  H   -0.013344
   112  H   -0.025871
   113  H   -0.017661
   114  H   -0.036516
   115  H   -0.008111
   116  H   -0.022397
   117  H   -0.028152
   118  H   -0.046326
   119  H   -0.028962
   120  H   -0.025947
   121  H   -0.031982
   122  H   -0.049541
   123  H   -0.040118
   124  H   -0.038933
   125  H   -0.022514
   126  H   -0.010787
   127  H   -0.001719
   128  H   -0.033628
   129  H   -0.035216
   130  H   -0.051458
   131  H   -0.040752
   132  H   -0.028054
   133  H   -0.020847
   134  H   -0.034746
   135  H   -0.033845
   136  H   -0.007997
   137  H   -0.015530
   138  H   -0.009919
   139  H   -0.014262
   140  H   -0.023962
 Sum of Mulliken charges =  -0.00000

 Dipole moment (field-independent basis, Debye):
    X=              3.5821    Y=              3.3297    Z=              0.8227  Tot=              4.9594
 Quadrupole moment (field-independent basis, Debye-Ang):
   XX=           -376.3316   YY=           -435.8199   ZZ=           -417.4900
   XY=            -19.4460   XZ=             12.3212   YZ=              0.1869

 Normal termination of Gaussian 16 at Thu May  5 01:12:42 2022.
