 Gaussian 16, Revision A.03,
 Gaussian 16:  ES64L-G16RevA.03 25-Dec-2016

 -----------------------------------
 #p cam-b3lyp/Def2SVP td=(nstates=5)
 -----------------------------------

 -------------------------------------------------------
 step_501_chromophore_27 TDDFT with cam-b3lyp functional
 -------------------------------------------------------
 Symbolic Z-matrix:
 Charge =  0 Multiplicity = 1

                         Standard orientation:
 ---------------------------------------------------------------------
 Center     Atomic      Atomic             Coordinates (Angstroms)
 Number     Number       Type             X           Y           Z
 ---------------------------------------------------------------------
      1         12           0       -4.730958    0.894399    0.083161
      2          6           0       -3.759485   -2.558704    0.460171
      3          6           0       -1.370616    1.713587    0.661396
      4          6           0       -5.570399    4.035371   -0.374575
      5          6           0       -8.068101   -0.118293   -0.159852
      6          7           0       -2.785758   -0.363672    0.541805
      7          6           0       -2.607781   -1.706526    0.430820
      8          6           0       -1.136070   -2.084042    0.386169
      9          6           0       -0.365856   -0.711873    0.809316
     10          6           0       -1.565051    0.272926    0.693377
     11          6           0        0.359710   -0.763702    2.177183
     12          6           0       -0.696570   -2.640875   -1.010024
     13          6           0       -0.064621   -4.055847   -0.953731
     14          6           0        1.504499   -4.094924   -1.415068
     15          8           0        1.959732   -4.625848   -2.442438
     16          8           0        2.272727   -3.676867   -0.337185
     17          7           0       -3.654782    2.579339    0.128631
     18          6           0       -2.263080    2.790314    0.412903
     19          6           0       -1.856916    4.213895    0.342420
     20          6           0       -3.091588    4.847006   -0.017128
     21          6           0       -4.149535    3.826180   -0.101083
     22          6           0       -0.448614    4.740587    0.625711
     23          6           0       -3.370179    6.292029   -0.186023
     24          8           0       -4.367686    6.770122   -0.715326
     25          6           0       -2.263162    7.289924    0.206952
     26          7           0       -6.506846    1.769505   -0.386361
     27          6           0       -6.620011    3.112570   -0.499939
     28          6           0       -8.048310    3.580039   -0.541903
     29          6           0       -8.880312    2.274117   -0.523175
     30          6           0       -7.768745    1.207095   -0.405022
     31          6           0       -8.411324    4.604915    0.512129
     32          6           0       -9.716605    2.101070   -1.923795
     33          6           0      -11.315859    1.865835   -1.764672
     34          7           0       -5.780119   -0.927573    0.400742
     35          6           0       -7.157174   -1.166584    0.175270
     36          6           0       -7.385360   -2.610430    0.303255
     37          6           0       -6.073715   -3.152949    0.272573
     38          6           0       -5.163108   -2.110777    0.453254
     39          6           0       -8.693156   -3.393011    0.374483
     40          6           0       -5.359346   -4.450639    0.435209
     41          8           0       -5.705497   -5.656547    0.574531
     42          6           0       -3.827462   -4.073527    0.432299
     43          6           0       -3.182673   -4.697290    1.634800
     44          8           0       -3.655114   -4.687438    2.736205
     45          8           0       -2.054059   -5.367524    1.252099
     46          6           0       -1.552039   -6.283937    2.306953
     47          6           0        3.692417   -4.000254   -0.340195
     48          6           0        4.543017   -2.714295   -0.598089
     49          6           0        5.825099   -2.605662   -0.958810
     50          6           0        6.807194   -3.700150   -0.926281
     51          6           0        6.394891   -1.190499   -1.159269
     52          6           0        6.468878   -0.776839   -2.680119
     53          6           0        7.987161   -0.675030   -3.116448
     54          6           0        8.101640    0.439922   -4.187346
     55          6           0        8.035564   -0.118826   -5.642056
     56          6           0        9.470940    1.138527   -3.972915
     57          6           0        9.455485    2.277607   -2.868488
     58          6           0       10.382374    1.939307   -1.663650
     59          6           0        9.717790    1.547638   -0.298212
     60          6           0       10.219604    0.123813    0.039285
     61          6           0       10.124862    2.607390    0.775644
     62          6           0        9.500795    2.334069    2.145326
     63          6           0       10.401078    2.270715    3.366117
     64          6           0        9.544806    1.901986    4.643625
     65          6           0       10.086822    2.805663    5.831169
     66          6           0        9.660698    0.438287    5.081471
     67          1           0       -0.346767    1.921169    0.978707
     68          1           0       -5.914287    5.059944   -0.532813
     69          1           0       -9.098581   -0.461504   -0.270741
     70          1           0       -0.988880   -2.809803    1.186027
     71          1           0        0.352230   -0.386809    0.055985
     72          1           0       -0.102243   -0.078028    2.888108
     73          1           0        1.415800   -0.518300    2.057830
     74          1           0        0.426509   -1.746696    2.643465
     75          1           0        0.042521   -1.996634   -1.486965
     76          1           0       -1.541852   -2.724047   -1.693685
     77          1           0       -0.475349   -4.737978   -1.698566
     78          1           0       -0.200700   -4.588402   -0.012996
     79          1           0        0.366535    4.016769    0.598908
     80          1           0       -0.337983    5.312689    1.546831
     81          1           0       -0.250665    5.449343   -0.179025
     82          1           0       -2.035836    7.205346    1.269588
     83          1           0       -2.515196    8.316272   -0.061992
     84          1           0       -1.368353    7.033529   -0.360191
     85          1           0       -8.189076    4.142440   -1.465927
     86          1           0       -9.524154    2.227684    0.354632
     87          1           0       -8.550265    5.609659    0.112078
     88          1           0       -7.651850    4.771865    1.275867
     89          1           0       -9.312503    4.258332    1.018375
     90          1           0       -9.365659    1.282066   -2.550777
     91          1           0       -9.634613    2.975406   -2.568947
     92          1           0      -11.567031    2.245648   -0.774145
     93          1           0      -11.583566    0.813168   -1.864782
     94          1           0      -11.881103    2.513506   -2.434330
     95          1           0       -8.604754   -4.383857   -0.070635
     96          1           0       -9.405996   -2.891620   -0.281201
     97          1           0       -8.993618   -3.286648    1.416941
     98          1           0       -3.401968   -4.588321   -0.428747
     99          1           0       -1.426862   -5.694653    3.215142
    100          1           0       -0.550935   -6.540942    1.961119
    101          1           0       -2.152255   -7.147949    2.591997
    102          1           0        3.913768   -4.733128   -1.116210
    103          1           0        4.075735   -4.498302    0.550167
    104          1           0        3.950310   -1.798960   -0.621382
    105          1           0        7.315616   -3.674072   -1.889891
    106          1           0        6.537438   -4.734975   -0.711491
    107          1           0        7.614428   -3.423711   -0.248544
    108          1           0        7.377605   -1.132620   -0.690965
    109          1           0        5.762162   -0.503753   -0.597573
    110          1           0        5.982820    0.194819   -2.763734
    111          1           0        5.889408   -1.423582   -3.338515
    112          1           0        8.341716   -1.596628   -3.576019
    113          1           0        8.601779   -0.458587   -2.242469
    114          1           0        7.300364    1.178214   -4.152539
    115          1           0        7.654150    0.582911   -6.384038
    116          1           0        7.516998   -1.075877   -5.595060
    117          1           0        9.059487   -0.361934   -5.925501
    118          1           0        9.700924    1.597814   -4.934305
    119          1           0       10.196824    0.353333   -3.761595
    120          1           0        8.443720    2.499251   -2.528815
    121          1           0        9.835490    3.116310   -3.452124
    122          1           0       10.912515    2.874062   -1.477222
    123          1           0       11.180202    1.225628   -1.869314
    124          1           0        8.648540    1.553893   -0.508957
    125          1           0       11.273319    0.155554    0.315451
    126          1           0       10.235376   -0.556629   -0.811305
    127          1           0        9.608612   -0.320224    0.825131
    128          1           0        9.715505    3.581640    0.507901
    129          1           0       11.202307    2.645630    0.934321
    130          1           0        8.969971    1.383928    2.080371
    131          1           0        8.686831    3.044836    2.290764
    132          1           0       10.677856    3.324636    3.342526
    133          1           0       11.242948    1.606270    3.172873
    134          1           0        8.482269    2.127750    4.547061
    135          1           0       10.262284    3.817012    5.464184
    136          1           0       11.051858    2.380826    6.107406
    137          1           0        9.382664    3.064983    6.621689
    138          1           0        8.684073   -0.045390    5.052539
    139          1           0       10.123351    0.450766    6.068824
    140          1           0       10.326273    0.001098    4.338015
 ---------------------------------------------------------------------

 SCF Done:  E(RCAM-B3LYP) =  -3007.17231423     A.U. after   18 cycles

 Excitation energies and oscillator strengths:

 Excited State   1:      Singlet-A      1.6718 eV  741.60 nm  f=0.3661  <S**2>=0.000
     245 -> 248        0.18792
     246 -> 247        0.68427
     245 <- 248        0.11173
 This state for optimization and/or second-order correction.
 Total Energy, E(TD-HF/TD-DFT) =  -3007.11087492
 Copying the excited state density for this state as the 1-particle RhoCI density.

 Excited State   2:      Singlet-A      2.1739 eV  570.33 nm  f=0.1375  <S**2>=0.000
     245 -> 247        0.64725
     246 -> 248       -0.27755

 Excited State   3:      Singlet-A      3.3166 eV  373.83 nm  f=0.0010  <S**2>=0.000
     241 -> 249        0.10611
     241 -> 250        0.11165
     242 -> 247       -0.12404
     244 -> 247        0.65663
     244 -> 249        0.10316

 Excited State   4:      Singlet-A      3.4929 eV  354.96 nm  f=0.0079  <S**2>=0.000
     241 -> 247        0.56813
     241 -> 249        0.25749
     241 -> 250        0.21411
     244 -> 247       -0.15308

 Excited State   5:      Singlet-A      3.5026 eV  353.98 nm  f=0.1283  <S**2>=0.000
     240 -> 247        0.45630
     240 -> 249       -0.27293
     240 -> 250        0.17756
     242 -> 247       -0.22108
     245 -> 247       -0.11512
     246 -> 248       -0.29539

 The electronic state is 1-A.
 Alpha  occ. eigenvalues --  -46.88542 -19.25750 -19.25318 -19.20506 -19.19808
 Alpha  occ. eigenvalues --  -19.18972 -19.18694 -14.42625 -14.41946 -14.40729
 Alpha  occ. eigenvalues --  -14.39261 -10.40160 -10.38883 -10.35155 -10.35142
 Alpha  occ. eigenvalues --  -10.32174 -10.32017 -10.31838 -10.31593 -10.31506
 Alpha  occ. eigenvalues --  -10.31310 -10.30878 -10.30807 -10.30688 -10.29987
 Alpha  occ. eigenvalues --  -10.29124 -10.29039 -10.29007 -10.28732 -10.28563
 Alpha  occ. eigenvalues --  -10.28453 -10.28251 -10.28103 -10.27967 -10.27862
 Alpha  occ. eigenvalues --  -10.27773 -10.27723 -10.27234 -10.27149 -10.26766
 Alpha  occ. eigenvalues --  -10.26553 -10.26472 -10.26355 -10.26191 -10.26138
 Alpha  occ. eigenvalues --  -10.26107 -10.26080 -10.25935 -10.25907 -10.25879
 Alpha  occ. eigenvalues --  -10.25688 -10.25497 -10.25418 -10.25417 -10.25360
 Alpha  occ. eigenvalues --  -10.25321 -10.25198 -10.25171 -10.25159 -10.25131
 Alpha  occ. eigenvalues --  -10.24653 -10.24596 -10.24545 -10.24514 -10.24425
 Alpha  occ. eigenvalues --  -10.24267  -3.17185  -1.92082  -1.91640  -1.91506
 Alpha  occ. eigenvalues --   -1.17044  -1.15424  -1.09987  -1.08759  -1.07272
 Alpha  occ. eigenvalues --   -1.07076  -1.04010  -1.03287  -1.02596  -1.02031
 Alpha  occ. eigenvalues --   -0.91602  -0.90415  -0.89935  -0.88851  -0.88686
 Alpha  occ. eigenvalues --   -0.88583  -0.88502  -0.87488  -0.87430  -0.87062
 Alpha  occ. eigenvalues --   -0.85647  -0.84817  -0.83919  -0.83216  -0.82875
 Alpha  occ. eigenvalues --   -0.82203  -0.81593  -0.81032  -0.80662  -0.80024
 Alpha  occ. eigenvalues --   -0.79764  -0.79160  -0.77655  -0.77110  -0.76294
 Alpha  occ. eigenvalues --   -0.75948  -0.75579  -0.75251  -0.75224  -0.74070
 Alpha  occ. eigenvalues --   -0.73036  -0.72535  -0.71477  -0.70247  -0.68950
 Alpha  occ. eigenvalues --   -0.68581  -0.68392  -0.67162  -0.66793  -0.65935
 Alpha  occ. eigenvalues --   -0.65711  -0.64715  -0.64416  -0.64116  -0.64052
 Alpha  occ. eigenvalues --   -0.63671  -0.63252  -0.62794  -0.62429  -0.60822
 Alpha  occ. eigenvalues --   -0.59887  -0.59302  -0.58816  -0.58397  -0.58011
 Alpha  occ. eigenvalues --   -0.57179  -0.56490  -0.56161  -0.55212  -0.55139
 Alpha  occ. eigenvalues --   -0.55077  -0.54861  -0.54467  -0.54362  -0.53868
 Alpha  occ. eigenvalues --   -0.53790  -0.53619  -0.53360  -0.52707  -0.52587
 Alpha  occ. eigenvalues --   -0.52503  -0.52157  -0.51959  -0.51679  -0.51455
 Alpha  occ. eigenvalues --   -0.51421  -0.51392  -0.50960  -0.50696  -0.50571
 Alpha  occ. eigenvalues --   -0.50473  -0.50086  -0.50043  -0.49858  -0.49606
 Alpha  occ. eigenvalues --   -0.49467  -0.49284  -0.49154  -0.48937  -0.48707
 Alpha  occ. eigenvalues --   -0.48356  -0.48145  -0.48014  -0.47757  -0.47541
 Alpha  occ. eigenvalues --   -0.47484  -0.47403  -0.47239  -0.46999  -0.46798
 Alpha  occ. eigenvalues --   -0.46544  -0.46232  -0.46014  -0.45964  -0.45922
 Alpha  occ. eigenvalues --   -0.45612  -0.45221  -0.45049  -0.44942  -0.44796
 Alpha  occ. eigenvalues --   -0.44695  -0.44609  -0.44528  -0.44387  -0.43999
 Alpha  occ. eigenvalues --   -0.43871  -0.43782  -0.43731  -0.43375  -0.43224
 Alpha  occ. eigenvalues --   -0.42937  -0.42825  -0.42603  -0.42324  -0.42209
 Alpha  occ. eigenvalues --   -0.42049  -0.41673  -0.41526  -0.41294  -0.40993
 Alpha  occ. eigenvalues --   -0.40920  -0.40695  -0.40531  -0.40437  -0.40402
 Alpha  occ. eigenvalues --   -0.40178  -0.39895  -0.39377  -0.39186  -0.39159
 Alpha  occ. eigenvalues --   -0.38930  -0.38732  -0.38716  -0.38446  -0.38153
 Alpha  occ. eigenvalues --   -0.37788  -0.37438  -0.37257  -0.36649  -0.36425
 Alpha  occ. eigenvalues --   -0.36402  -0.35508  -0.34980  -0.34599  -0.34432
 Alpha  occ. eigenvalues --   -0.34100  -0.33795  -0.33032  -0.31653  -0.31010
 Alpha  occ. eigenvalues --   -0.30607  -0.30290  -0.29470  -0.29391  -0.23923
 Alpha  occ. eigenvalues --   -0.21319
 Alpha virt. eigenvalues --   -0.08993  -0.01859   0.00117   0.02067   0.03557
 Alpha virt. eigenvalues --    0.03825   0.05271   0.05590   0.05877   0.05961
 Alpha virt. eigenvalues --    0.07713   0.08037   0.08516   0.08761   0.08996

 Mulliken charges:
               1
     1  Mg   0.848297
     2  C   -0.003183
     3  C   -0.069940
     4  C   -0.074539
     5  C   -0.071324
     6  N   -0.234067
     7  C   -0.054877
     8  C   -0.007758
     9  C   -0.057050
    10  C   -0.013668
    11  C    0.065780
    12  C    0.093486
    13  C    0.032206
    14  C    0.157587
    15  O   -0.234736
    16  O   -0.341175
    17  N   -0.426884
    18  C    0.167524
    19  C   -0.118188
    20  C   -0.023528
    21  C    0.156061
    22  C    0.116769
    23  C   -0.017443
    24  O   -0.205426
    25  C    0.043869
    26  N   -0.341298
    27  C    0.066892
    28  C   -0.028598
    29  C   -0.019935
    30  C    0.080001
    31  C    0.060048
    32  C    0.009195
    33  C   -0.025248
    34  N   -0.337565
    35  C    0.099390
    36  C   -0.169784
    37  C   -0.076691
    38  C    0.107675
    39  C    0.138029
    40  C    0.126774
    41  O   -0.213506
    42  C   -0.018932
    43  C    0.168205
    44  O   -0.184502
    45  O   -0.342598
    46  C    0.175592
    47  C    0.265907
    48  C   -0.134471
    49  C   -0.146168
    50  C    0.101027
    51  C    0.050731
    52  C    0.029402
    53  C    0.045722
    54  C   -0.165852
    55  C    0.058241
    56  C    0.028958
    57  C    0.045982
    58  C    0.052943
    59  C   -0.140373
    60  C    0.033891
    61  C    0.094115
    62  C   -0.036201
    63  C    0.063034
    64  C   -0.168369
    65  C    0.024968
    66  C    0.082001
    67  H   -0.029267
    68  H   -0.005793
    69  H   -0.030277
    70  H    0.019376
    71  H    0.017265
    72  H    0.025244
    73  H    0.014135
    74  H    0.020619
    75  H    0.021846
    76  H    0.024079
    77  H    0.023442
    78  H    0.043811
    79  H    0.023489
    80  H    0.039833
    81  H    0.023354
    82  H    0.031073
    83  H    0.026949
    84  H    0.018492
    85  H    0.020044
    86  H    0.024850
    87  H    0.017961
    88  H    0.020656
    89  H    0.007179
    90  H    0.019329
    91  H    0.011389
    92  H    0.007477
    93  H    0.031187
    94  H    0.018796
    95  H    0.040722
    96  H    0.005713
    97  H    0.045620
    98  H    0.038767
    99  H    0.033685
   100  H    0.033049
   101  H    0.058818
   102  H    0.033696
   103  H    0.026395
   104  H   -0.014163
   105  H    0.003498
   106  H    0.015025
   107  H    0.012403
   108  H   -0.003068
   109  H   -0.001635
   110  H   -0.002658
   111  H    0.014680
   112  H    0.001238
   113  H    0.000035
   114  H   -0.005857
   115  H    0.016705
   116  H    0.001760
   117  H   -0.003725
   118  H   -0.014730
   119  H   -0.002791
   120  H    0.000492
   121  H   -0.000936
   122  H   -0.016829
   123  H   -0.010211
   124  H   -0.010168
   125  H    0.002847
   126  H    0.012991
   127  H    0.019438
   128  H   -0.003242
   129  H   -0.006276
   130  H   -0.025072
   131  H   -0.011625
   132  H    0.000289
   133  H    0.005289
   134  H   -0.002558
   135  H   -0.008964
   136  H    0.014387
   137  H    0.010041
   138  H    0.013971
   139  H    0.010897
   140  H   -0.000905
 Sum of Mulliken charges =  -0.00000

 Dipole moment (field-independent basis, Debye):
    X=              4.3684    Y=              4.1331    Z=              0.9274  Tot=              6.0849
 Quadrupole moment (field-independent basis, Debye-Ang):
   XX=           -380.1551   YY=           -430.9665   ZZ=           -418.1636
   XY=            -21.2270   XZ=             13.0418   YZ=              0.5853

 Normal termination of Gaussian 16 at Thu May  5 00:03:07 2022.
