 Gaussian 16, Revision A.03,
 Gaussian 16:  ES64L-G16RevA.03 25-Dec-2016

 ---------------------------------
 #p PBE1PBE/Def2SVP td=(nstates=5)
 ---------------------------------

 -----------------------------------------------------
 step_501_chromophore_27 TDDFT with PBE1PBE functional
 -----------------------------------------------------
 Symbolic Z-matrix:
 Charge =  0 Multiplicity = 1

                         Standard orientation:
 ---------------------------------------------------------------------
 Center     Atomic      Atomic             Coordinates (Angstroms)
 Number     Number       Type             X           Y           Z
 ---------------------------------------------------------------------
      1         12           0       -4.730958    0.894399    0.083161
      2          6           0       -3.759485   -2.558704    0.460171
      3          6           0       -1.370616    1.713587    0.661396
      4          6           0       -5.570399    4.035371   -0.374575
      5          6           0       -8.068101   -0.118293   -0.159852
      6          7           0       -2.785758   -0.363672    0.541805
      7          6           0       -2.607781   -1.706526    0.430820
      8          6           0       -1.136070   -2.084042    0.386169
      9          6           0       -0.365856   -0.711873    0.809316
     10          6           0       -1.565051    0.272926    0.693377
     11          6           0        0.359710   -0.763702    2.177183
     12          6           0       -0.696570   -2.640875   -1.010024
     13          6           0       -0.064621   -4.055847   -0.953731
     14          6           0        1.504499   -4.094924   -1.415068
     15          8           0        1.959732   -4.625848   -2.442438
     16          8           0        2.272727   -3.676867   -0.337185
     17          7           0       -3.654782    2.579339    0.128631
     18          6           0       -2.263080    2.790314    0.412903
     19          6           0       -1.856916    4.213895    0.342420
     20          6           0       -3.091588    4.847006   -0.017128
     21          6           0       -4.149535    3.826180   -0.101083
     22          6           0       -0.448614    4.740587    0.625711
     23          6           0       -3.370179    6.292029   -0.186023
     24          8           0       -4.367686    6.770122   -0.715326
     25          6           0       -2.263162    7.289924    0.206952
     26          7           0       -6.506846    1.769505   -0.386361
     27          6           0       -6.620011    3.112570   -0.499939
     28          6           0       -8.048310    3.580039   -0.541903
     29          6           0       -8.880312    2.274117   -0.523175
     30          6           0       -7.768745    1.207095   -0.405022
     31          6           0       -8.411324    4.604915    0.512129
     32          6           0       -9.716605    2.101070   -1.923795
     33          6           0      -11.315859    1.865835   -1.764672
     34          7           0       -5.780119   -0.927573    0.400742
     35          6           0       -7.157174   -1.166584    0.175270
     36          6           0       -7.385360   -2.610430    0.303255
     37          6           0       -6.073715   -3.152949    0.272573
     38          6           0       -5.163108   -2.110777    0.453254
     39          6           0       -8.693156   -3.393011    0.374483
     40          6           0       -5.359346   -4.450639    0.435209
     41          8           0       -5.705497   -5.656547    0.574531
     42          6           0       -3.827462   -4.073527    0.432299
     43          6           0       -3.182673   -4.697290    1.634800
     44          8           0       -3.655114   -4.687438    2.736205
     45          8           0       -2.054059   -5.367524    1.252099
     46          6           0       -1.552039   -6.283937    2.306953
     47          6           0        3.692417   -4.000254   -0.340195
     48          6           0        4.543017   -2.714295   -0.598089
     49          6           0        5.825099   -2.605662   -0.958810
     50          6           0        6.807194   -3.700150   -0.926281
     51          6           0        6.394891   -1.190499   -1.159269
     52          6           0        6.468878   -0.776839   -2.680119
     53          6           0        7.987161   -0.675030   -3.116448
     54          6           0        8.101640    0.439922   -4.187346
     55          6           0        8.035564   -0.118826   -5.642056
     56          6           0        9.470940    1.138527   -3.972915
     57          6           0        9.455485    2.277607   -2.868488
     58          6           0       10.382374    1.939307   -1.663650
     59          6           0        9.717790    1.547638   -0.298212
     60          6           0       10.219604    0.123813    0.039285
     61          6           0       10.124862    2.607390    0.775644
     62          6           0        9.500795    2.334069    2.145326
     63          6           0       10.401078    2.270715    3.366117
     64          6           0        9.544806    1.901986    4.643625
     65          6           0       10.086822    2.805663    5.831169
     66          6           0        9.660698    0.438287    5.081471
     67          1           0       -0.346767    1.921169    0.978707
     68          1           0       -5.914287    5.059944   -0.532813
     69          1           0       -9.098581   -0.461504   -0.270741
     70          1           0       -0.988880   -2.809803    1.186027
     71          1           0        0.352230   -0.386809    0.055985
     72          1           0       -0.102243   -0.078028    2.888108
     73          1           0        1.415800   -0.518300    2.057830
     74          1           0        0.426509   -1.746696    2.643465
     75          1           0        0.042521   -1.996634   -1.486965
     76          1           0       -1.541852   -2.724047   -1.693685
     77          1           0       -0.475349   -4.737978   -1.698566
     78          1           0       -0.200700   -4.588402   -0.012996
     79          1           0        0.366535    4.016769    0.598908
     80          1           0       -0.337983    5.312689    1.546831
     81          1           0       -0.250665    5.449343   -0.179025
     82          1           0       -2.035836    7.205346    1.269588
     83          1           0       -2.515196    8.316272   -0.061992
     84          1           0       -1.368353    7.033529   -0.360191
     85          1           0       -8.189076    4.142440   -1.465927
     86          1           0       -9.524154    2.227684    0.354632
     87          1           0       -8.550265    5.609659    0.112078
     88          1           0       -7.651850    4.771865    1.275867
     89          1           0       -9.312503    4.258332    1.018375
     90          1           0       -9.365659    1.282066   -2.550777
     91          1           0       -9.634613    2.975406   -2.568947
     92          1           0      -11.567031    2.245648   -0.774145
     93          1           0      -11.583566    0.813168   -1.864782
     94          1           0      -11.881103    2.513506   -2.434330
     95          1           0       -8.604754   -4.383857   -0.070635
     96          1           0       -9.405996   -2.891620   -0.281201
     97          1           0       -8.993618   -3.286648    1.416941
     98          1           0       -3.401968   -4.588321   -0.428747
     99          1           0       -1.426862   -5.694653    3.215142
    100          1           0       -0.550935   -6.540942    1.961119
    101          1           0       -2.152255   -7.147949    2.591997
    102          1           0        3.913768   -4.733128   -1.116210
    103          1           0        4.075735   -4.498302    0.550167
    104          1           0        3.950310   -1.798960   -0.621382
    105          1           0        7.315616   -3.674072   -1.889891
    106          1           0        6.537438   -4.734975   -0.711491
    107          1           0        7.614428   -3.423711   -0.248544
    108          1           0        7.377605   -1.132620   -0.690965
    109          1           0        5.762162   -0.503753   -0.597573
    110          1           0        5.982820    0.194819   -2.763734
    111          1           0        5.889408   -1.423582   -3.338515
    112          1           0        8.341716   -1.596628   -3.576019
    113          1           0        8.601779   -0.458587   -2.242469
    114          1           0        7.300364    1.178214   -4.152539
    115          1           0        7.654150    0.582911   -6.384038
    116          1           0        7.516998   -1.075877   -5.595060
    117          1           0        9.059487   -0.361934   -5.925501
    118          1           0        9.700924    1.597814   -4.934305
    119          1           0       10.196824    0.353333   -3.761595
    120          1           0        8.443720    2.499251   -2.528815
    121          1           0        9.835490    3.116310   -3.452124
    122          1           0       10.912515    2.874062   -1.477222
    123          1           0       11.180202    1.225628   -1.869314
    124          1           0        8.648540    1.553893   -0.508957
    125          1           0       11.273319    0.155554    0.315451
    126          1           0       10.235376   -0.556629   -0.811305
    127          1           0        9.608612   -0.320224    0.825131
    128          1           0        9.715505    3.581640    0.507901
    129          1           0       11.202307    2.645630    0.934321
    130          1           0        8.969971    1.383928    2.080371
    131          1           0        8.686831    3.044836    2.290764
    132          1           0       10.677856    3.324636    3.342526
    133          1           0       11.242948    1.606270    3.172873
    134          1           0        8.482269    2.127750    4.547061
    135          1           0       10.262284    3.817012    5.464184
    136          1           0       11.051858    2.380826    6.107406
    137          1           0        9.382664    3.064983    6.621689
    138          1           0        8.684073   -0.045390    5.052539
    139          1           0       10.123351    0.450766    6.068824
    140          1           0       10.326273    0.001098    4.338015
 ---------------------------------------------------------------------

 SCF Done:  E(RPBE1PBE) =  -3005.35968874     A.U. after   15 cycles

 Excitation energies and oscillator strengths:

 Excited State   1:      Singlet-A      1.8266 eV  678.76 nm  f=0.3501  <S**2>=0.000
     245 -> 248        0.18254
     246 -> 247        0.69151
     246 <- 247       -0.10658
 This state for optimization and/or second-order correction.
 Total Energy, E(TD-HF/TD-DFT) =  -3005.29256099
 Copying the excited state density for this state as the 1-particle RhoCI density.

 Excited State   2:      Singlet-A      2.1727 eV  570.64 nm  f=0.1354  <S**2>=0.000
     245 -> 247        0.65744
     246 -> 248       -0.25542

 Excited State   3:      Singlet-A      2.8800 eV  430.49 nm  f=0.0014  <S**2>=0.000
     241 -> 247       -0.21569
     241 -> 249       -0.10225
     243 -> 247        0.64867

 Excited State   4:      Singlet-A      2.9703 eV  417.41 nm  f=0.0004  <S**2>=0.000
     240 -> 247        0.12518
     242 -> 247        0.65806
     242 -> 249       -0.15959

 Excited State   5:      Singlet-A      3.0629 eV  404.79 nm  f=0.0015  <S**2>=0.000
     240 -> 247       -0.12412
     241 -> 247        0.63419
     243 -> 247        0.24025

 The electronic state is 1-A.
 Alpha  occ. eigenvalues --  -46.91984 -19.26405 -19.26049 -19.20847 -19.20028
 Alpha  occ. eigenvalues --  -19.19074 -19.19060 -14.41979 -14.41607 -14.40326
 Alpha  occ. eigenvalues --  -14.39030 -10.37305 -10.35914 -10.32450 -10.32137
 Alpha  occ. eigenvalues --  -10.29587 -10.29462 -10.29244 -10.29117 -10.29104
 Alpha  occ. eigenvalues --  -10.29064 -10.28706 -10.28499 -10.28112 -10.27956
 Alpha  occ. eigenvalues --  -10.26901 -10.26869 -10.26799 -10.26552 -10.26406
 Alpha  occ. eigenvalues --  -10.25930 -10.25834 -10.25694 -10.25636 -10.25504
 Alpha  occ. eigenvalues --  -10.25395 -10.25261 -10.25004 -10.24979 -10.24566
 Alpha  occ. eigenvalues --  -10.24173 -10.24051 -10.23931 -10.23881 -10.23873
 Alpha  occ. eigenvalues --  -10.23684 -10.23504 -10.23431 -10.23257 -10.23247
 Alpha  occ. eigenvalues --  -10.23226 -10.23103 -10.23032 -10.23006 -10.22970
 Alpha  occ. eigenvalues --  -10.22961 -10.22934 -10.22714 -10.22712 -10.22545
 Alpha  occ. eigenvalues --  -10.22237 -10.22178 -10.21924 -10.21910 -10.21820
 Alpha  occ. eigenvalues --  -10.21769  -3.14203  -1.87042  -1.86578  -1.86448
 Alpha  occ. eigenvalues --   -1.11815  -1.10270  -1.04588  -1.03591  -1.02176
 Alpha  occ. eigenvalues --   -1.01912  -0.98674  -0.97878  -0.97272  -0.96651
 Alpha  occ. eigenvalues --   -0.85978  -0.84502  -0.84017  -0.83006  -0.82898
 Alpha  occ. eigenvalues --   -0.82800  -0.82744  -0.81734  -0.81586  -0.81313
 Alpha  occ. eigenvalues --   -0.80096  -0.79029  -0.78049  -0.77551  -0.77066
 Alpha  occ. eigenvalues --   -0.76406  -0.75817  -0.75197  -0.74959  -0.74199
 Alpha  occ. eigenvalues --   -0.73964  -0.73310  -0.71940  -0.71491  -0.70627
 Alpha  occ. eigenvalues --   -0.70121  -0.69691  -0.69625  -0.69298  -0.68237
 Alpha  occ. eigenvalues --   -0.67391  -0.66967  -0.65898  -0.64539  -0.63315
 Alpha  occ. eigenvalues --   -0.62976  -0.62642  -0.61670  -0.60991  -0.60403
 Alpha  occ. eigenvalues --   -0.60115  -0.59031  -0.58921  -0.58678  -0.58202
 Alpha  occ. eigenvalues --   -0.58119  -0.57414  -0.57022  -0.56994  -0.55311
 Alpha  occ. eigenvalues --   -0.54240  -0.53897  -0.53397  -0.53011  -0.52550
 Alpha  occ. eigenvalues --   -0.51784  -0.50928  -0.50708  -0.49744  -0.49557
 Alpha  occ. eigenvalues --   -0.49509  -0.49353  -0.49025  -0.48901  -0.48405
 Alpha  occ. eigenvalues --   -0.48239  -0.48158  -0.47879  -0.47307  -0.46972
 Alpha  occ. eigenvalues --   -0.46913  -0.46709  -0.46423  -0.46245  -0.46069
 Alpha  occ. eigenvalues --   -0.46014  -0.45936  -0.45489  -0.45298  -0.45099
 Alpha  occ. eigenvalues --   -0.45086  -0.44738  -0.44619  -0.44447  -0.44129
 Alpha  occ. eigenvalues --   -0.43961  -0.43802  -0.43712  -0.43535  -0.43230
 Alpha  occ. eigenvalues --   -0.43030  -0.42789  -0.42684  -0.42323  -0.42289
 Alpha  occ. eigenvalues --   -0.42100  -0.42006  -0.41831  -0.41672  -0.41540
 Alpha  occ. eigenvalues --   -0.41172  -0.40973  -0.40746  -0.40626  -0.40544
 Alpha  occ. eigenvalues --   -0.40328  -0.39930  -0.39800  -0.39654  -0.39597
 Alpha  occ. eigenvalues --   -0.39385  -0.39281  -0.39256  -0.39253  -0.38783
 Alpha  occ. eigenvalues --   -0.38734  -0.38491  -0.38471  -0.38156  -0.37908
 Alpha  occ. eigenvalues --   -0.37710  -0.37621  -0.37378  -0.37202  -0.36984
 Alpha  occ. eigenvalues --   -0.36793  -0.36567  -0.36349  -0.36109  -0.35818
 Alpha  occ. eigenvalues --   -0.35724  -0.35601  -0.35412  -0.35363  -0.35153
 Alpha  occ. eigenvalues --   -0.35141  -0.34713  -0.34465  -0.33975  -0.33896
 Alpha  occ. eigenvalues --   -0.33713  -0.33638  -0.33435  -0.33238  -0.33177
 Alpha  occ. eigenvalues --   -0.32613  -0.32368  -0.32285  -0.31626  -0.31478
 Alpha  occ. eigenvalues --   -0.31225  -0.30457  -0.30201  -0.29504  -0.29387
 Alpha  occ. eigenvalues --   -0.29061  -0.28754  -0.28592  -0.27161  -0.26020
 Alpha  occ. eigenvalues --   -0.25710  -0.25589  -0.25029  -0.24745  -0.20868
 Alpha  occ. eigenvalues --   -0.18942
 Alpha virt. eigenvalues --   -0.11419  -0.05348  -0.04092  -0.02381  -0.00816
 Alpha virt. eigenvalues --    0.00628   0.00915   0.01308   0.01711   0.02297
 Alpha virt. eigenvalues --    0.03480   0.04011   0.05128   0.05304   0.05610

 Mulliken charges:
               1
     1  Mg   1.003668
     2  C   -0.018880
     3  C   -0.066095
     4  C   -0.064661
     5  C   -0.060506
     6  N   -0.332787
     7  C    0.018257
     8  C   -0.082995
     9  C   -0.128510
    10  C    0.026464
    11  C    0.010210
    12  C    0.045536
    13  C   -0.044408
    14  C    0.219591
    15  O   -0.266304
    16  O   -0.368472
    17  N   -0.540865
    18  C    0.176771
    19  C   -0.135404
    20  C   -0.079066
    21  C    0.187762
    22  C    0.057186
    23  C    0.034327
    24  O   -0.243757
    25  C   -0.031329
    26  N   -0.451259
    27  C    0.101791
    28  C   -0.101588
    29  C   -0.103031
    30  C    0.113156
    31  C    0.002426
    32  C   -0.041576
    33  C   -0.098384
    34  N   -0.461369
    35  C    0.121699
    36  C   -0.188590
    37  C   -0.113668
    38  C    0.168310
    39  C    0.079604
    40  C    0.211652
    41  O   -0.255200
    42  C   -0.129446
    43  C    0.262845
    44  O   -0.219129
    45  O   -0.375701
    46  C    0.118994
    47  C    0.227699
    48  C   -0.139663
    49  C   -0.195595
    50  C    0.037725
    51  C   -0.020020
    52  C   -0.024968
    53  C   -0.021409
    54  C   -0.247341
    55  C   -0.002457
    56  C   -0.029951
    57  C   -0.017258
    58  C    0.003647
    59  C   -0.232612
    60  C   -0.026305
    61  C    0.038643
    62  C   -0.094264
    63  C    0.000741
    64  C   -0.257137
    65  C   -0.039276
    66  C    0.022342
    67  H    0.002345
    68  H    0.027128
    69  H    0.003436
    70  H    0.059124
    71  H    0.052782
    72  H    0.052297
    73  H    0.040736
    74  H    0.046488
    75  H    0.054215
    76  H    0.056155
    77  H    0.056067
    78  H    0.078965
    79  H    0.048943
    80  H    0.065718
    81  H    0.050837
    82  H    0.058089
    83  H    0.054027
    84  H    0.046043
    85  H    0.056837
    86  H    0.059437
    87  H    0.044955
    88  H    0.049216
    89  H    0.035059
    90  H    0.050800
    91  H    0.043274
    92  H    0.035822
    93  H    0.057656
    94  H    0.046854
    95  H    0.067964
    96  H    0.033978
    97  H    0.074396
    98  H    0.075724
    99  H    0.055604
   100  H    0.053793
   101  H    0.080211
   102  H    0.059615
   103  H    0.053253
   104  H    0.015762
   105  H    0.034046
   106  H    0.040781
   107  H    0.040047
   108  H    0.032901
   109  H    0.030081
   110  H    0.029675
   111  H    0.045941
   112  H    0.033363
   113  H    0.045468
   114  H    0.030969
   115  H    0.044242
   116  H    0.030262
   117  H    0.024629
   118  H    0.019381
   119  H    0.029199
   120  H    0.031446
   121  H    0.032398
   122  H    0.017026
   123  H    0.021615
   124  H    0.028179
   125  H    0.031165
   126  H    0.038266
   127  H    0.046091
   128  H    0.030840
   129  H    0.025616
   130  H    0.010853
   131  H    0.021455
   132  H    0.034114
   133  H    0.036208
   134  H    0.034009
   135  H    0.019880
   136  H    0.042184
   137  H    0.037882
   138  H    0.041312
   139  H    0.037967
   140  H    0.027093
 Sum of Mulliken charges =  -0.00000

 Dipole moment (field-independent basis, Debye):
    X=              4.0376    Y=              3.8796    Z=              0.8760  Tot=              5.6675
 Quadrupole moment (field-independent basis, Debye-Ang):
   XX=           -370.7937   YY=           -428.8193   ZZ=           -415.7858
   XY=            -20.9383   XZ=             13.1243   YZ=              0.5010

 Normal termination of Gaussian 16 at Thu May  5 00:22:39 2022.
