 Gaussian 16, Revision A.03,
 Gaussian 16:  ES64L-G16RevA.03 25-Dec-2016

 --------------------------------
 #p wB97XD/Def2SVP td=(nstates=5)
 --------------------------------

 ----------------------------------------------------
 step_501_chromophore_27 TDDFT with wB97XD functional
 ----------------------------------------------------
 Symbolic Z-matrix:
 Charge =  0 Multiplicity = 1

                         Standard orientation:
 ---------------------------------------------------------------------
 Center     Atomic      Atomic             Coordinates (Angstroms)
 Number     Number       Type             X           Y           Z
 ---------------------------------------------------------------------
      1         12           0       -4.730958    0.894399    0.083161
      2          6           0       -3.759485   -2.558704    0.460171
      3          6           0       -1.370616    1.713587    0.661396
      4          6           0       -5.570399    4.035371   -0.374575
      5          6           0       -8.068101   -0.118293   -0.159852
      6          7           0       -2.785758   -0.363672    0.541805
      7          6           0       -2.607781   -1.706526    0.430820
      8          6           0       -1.136070   -2.084042    0.386169
      9          6           0       -0.365856   -0.711873    0.809316
     10          6           0       -1.565051    0.272926    0.693377
     11          6           0        0.359710   -0.763702    2.177183
     12          6           0       -0.696570   -2.640875   -1.010024
     13          6           0       -0.064621   -4.055847   -0.953731
     14          6           0        1.504499   -4.094924   -1.415068
     15          8           0        1.959732   -4.625848   -2.442438
     16          8           0        2.272727   -3.676867   -0.337185
     17          7           0       -3.654782    2.579339    0.128631
     18          6           0       -2.263080    2.790314    0.412903
     19          6           0       -1.856916    4.213895    0.342420
     20          6           0       -3.091588    4.847006   -0.017128
     21          6           0       -4.149535    3.826180   -0.101083
     22          6           0       -0.448614    4.740587    0.625711
     23          6           0       -3.370179    6.292029   -0.186023
     24          8           0       -4.367686    6.770122   -0.715326
     25          6           0       -2.263162    7.289924    0.206952
     26          7           0       -6.506846    1.769505   -0.386361
     27          6           0       -6.620011    3.112570   -0.499939
     28          6           0       -8.048310    3.580039   -0.541903
     29          6           0       -8.880312    2.274117   -0.523175
     30          6           0       -7.768745    1.207095   -0.405022
     31          6           0       -8.411324    4.604915    0.512129
     32          6           0       -9.716605    2.101070   -1.923795
     33          6           0      -11.315859    1.865835   -1.764672
     34          7           0       -5.780119   -0.927573    0.400742
     35          6           0       -7.157174   -1.166584    0.175270
     36          6           0       -7.385360   -2.610430    0.303255
     37          6           0       -6.073715   -3.152949    0.272573
     38          6           0       -5.163108   -2.110777    0.453254
     39          6           0       -8.693156   -3.393011    0.374483
     40          6           0       -5.359346   -4.450639    0.435209
     41          8           0       -5.705497   -5.656547    0.574531
     42          6           0       -3.827462   -4.073527    0.432299
     43          6           0       -3.182673   -4.697290    1.634800
     44          8           0       -3.655114   -4.687438    2.736205
     45          8           0       -2.054059   -5.367524    1.252099
     46          6           0       -1.552039   -6.283937    2.306953
     47          6           0        3.692417   -4.000254   -0.340195
     48          6           0        4.543017   -2.714295   -0.598089
     49          6           0        5.825099   -2.605662   -0.958810
     50          6           0        6.807194   -3.700150   -0.926281
     51          6           0        6.394891   -1.190499   -1.159269
     52          6           0        6.468878   -0.776839   -2.680119
     53          6           0        7.987161   -0.675030   -3.116448
     54          6           0        8.101640    0.439922   -4.187346
     55          6           0        8.035564   -0.118826   -5.642056
     56          6           0        9.470940    1.138527   -3.972915
     57          6           0        9.455485    2.277607   -2.868488
     58          6           0       10.382374    1.939307   -1.663650
     59          6           0        9.717790    1.547638   -0.298212
     60          6           0       10.219604    0.123813    0.039285
     61          6           0       10.124862    2.607390    0.775644
     62          6           0        9.500795    2.334069    2.145326
     63          6           0       10.401078    2.270715    3.366117
     64          6           0        9.544806    1.901986    4.643625
     65          6           0       10.086822    2.805663    5.831169
     66          6           0        9.660698    0.438287    5.081471
     67          1           0       -0.346767    1.921169    0.978707
     68          1           0       -5.914287    5.059944   -0.532813
     69          1           0       -9.098581   -0.461504   -0.270741
     70          1           0       -0.988880   -2.809803    1.186027
     71          1           0        0.352230   -0.386809    0.055985
     72          1           0       -0.102243   -0.078028    2.888108
     73          1           0        1.415800   -0.518300    2.057830
     74          1           0        0.426509   -1.746696    2.643465
     75          1           0        0.042521   -1.996634   -1.486965
     76          1           0       -1.541852   -2.724047   -1.693685
     77          1           0       -0.475349   -4.737978   -1.698566
     78          1           0       -0.200700   -4.588402   -0.012996
     79          1           0        0.366535    4.016769    0.598908
     80          1           0       -0.337983    5.312689    1.546831
     81          1           0       -0.250665    5.449343   -0.179025
     82          1           0       -2.035836    7.205346    1.269588
     83          1           0       -2.515196    8.316272   -0.061992
     84          1           0       -1.368353    7.033529   -0.360191
     85          1           0       -8.189076    4.142440   -1.465927
     86          1           0       -9.524154    2.227684    0.354632
     87          1           0       -8.550265    5.609659    0.112078
     88          1           0       -7.651850    4.771865    1.275867
     89          1           0       -9.312503    4.258332    1.018375
     90          1           0       -9.365659    1.282066   -2.550777
     91          1           0       -9.634613    2.975406   -2.568947
     92          1           0      -11.567031    2.245648   -0.774145
     93          1           0      -11.583566    0.813168   -1.864782
     94          1           0      -11.881103    2.513506   -2.434330
     95          1           0       -8.604754   -4.383857   -0.070635
     96          1           0       -9.405996   -2.891620   -0.281201
     97          1           0       -8.993618   -3.286648    1.416941
     98          1           0       -3.401968   -4.588321   -0.428747
     99          1           0       -1.426862   -5.694653    3.215142
    100          1           0       -0.550935   -6.540942    1.961119
    101          1           0       -2.152255   -7.147949    2.591997
    102          1           0        3.913768   -4.733128   -1.116210
    103          1           0        4.075735   -4.498302    0.550167
    104          1           0        3.950310   -1.798960   -0.621382
    105          1           0        7.315616   -3.674072   -1.889891
    106          1           0        6.537438   -4.734975   -0.711491
    107          1           0        7.614428   -3.423711   -0.248544
    108          1           0        7.377605   -1.132620   -0.690965
    109          1           0        5.762162   -0.503753   -0.597573
    110          1           0        5.982820    0.194819   -2.763734
    111          1           0        5.889408   -1.423582   -3.338515
    112          1           0        8.341716   -1.596628   -3.576019
    113          1           0        8.601779   -0.458587   -2.242469
    114          1           0        7.300364    1.178214   -4.152539
    115          1           0        7.654150    0.582911   -6.384038
    116          1           0        7.516998   -1.075877   -5.595060
    117          1           0        9.059487   -0.361934   -5.925501
    118          1           0        9.700924    1.597814   -4.934305
    119          1           0       10.196824    0.353333   -3.761595
    120          1           0        8.443720    2.499251   -2.528815
    121          1           0        9.835490    3.116310   -3.452124
    122          1           0       10.912515    2.874062   -1.477222
    123          1           0       11.180202    1.225628   -1.869314
    124          1           0        8.648540    1.553893   -0.508957
    125          1           0       11.273319    0.155554    0.315451
    126          1           0       10.235376   -0.556629   -0.811305
    127          1           0        9.608612   -0.320224    0.825131
    128          1           0        9.715505    3.581640    0.507901
    129          1           0       11.202307    2.645630    0.934321
    130          1           0        8.969971    1.383928    2.080371
    131          1           0        8.686831    3.044836    2.290764
    132          1           0       10.677856    3.324636    3.342526
    133          1           0       11.242948    1.606270    3.172873
    134          1           0        8.482269    2.127750    4.547061
    135          1           0       10.262284    3.817012    5.464184
    136          1           0       11.051858    2.380826    6.107406
    137          1           0        9.382664    3.064983    6.621689
    138          1           0        8.684073   -0.045390    5.052539
    139          1           0       10.123351    0.450766    6.068824
    140          1           0       10.326273    0.001098    4.338015
 ---------------------------------------------------------------------

 SCF Done:  E(RwB97XD) =  -3007.87116625     A.U. after   20 cycles

 Excitation energies and oscillator strengths:

 Excited State   1:      Singlet-A      1.6153 eV  767.55 nm  f=0.3646  <S**2>=0.000
     245 -> 248        0.19306
     246 -> 247        0.68205
     245 <- 248        0.12112
 This state for optimization and/or second-order correction.
 Total Energy, E(TD-HF/TD-DFT) =  -3007.81180438
 Copying the excited state density for this state as the 1-particle RhoCI density.

 Excited State   2:      Singlet-A      2.1190 eV  585.10 nm  f=0.1336  <S**2>=0.000
     245 -> 247        0.64516
     246 -> 248       -0.27984

 Excited State   3:      Singlet-A      3.3518 eV  369.90 nm  f=0.0004  <S**2>=0.000
     241 -> 250        0.10149
     242 -> 247       -0.13795
     243 -> 247        0.63749
     243 -> 249        0.12744
     244 -> 247        0.12480

 Excited State   4:      Singlet-A      3.5152 eV  352.71 nm  f=0.1656  <S**2>=0.000
     240 -> 247        0.40442
     240 -> 249       -0.27450
     240 -> 250        0.17299
     241 -> 247       -0.11422
     242 -> 247       -0.23227
     245 -> 247       -0.12844
     246 -> 248       -0.32992

 Excited State   5:      Singlet-A      3.5315 eV  351.08 nm  f=0.0220  <S**2>=0.000
     241 -> 247        0.52203
     241 -> 249        0.23226
     241 -> 250        0.19736
     242 -> 247       -0.18415
     242 -> 249       -0.15190
     242 -> 250       -0.11143
     246 -> 248       -0.12190

 The electronic state is 1-A.
 Alpha  occ. eigenvalues --  -46.94874 -19.30977 -19.30599 -19.25502 -19.24732
 Alpha  occ. eigenvalues --  -19.24036 -19.23756 -14.47269 -14.46517 -14.45384
 Alpha  occ. eigenvalues --  -14.43842 -10.44057 -10.42723 -10.39198 -10.39143
 Alpha  occ. eigenvalues --  -10.36084 -10.35925 -10.35771 -10.35705 -10.35647
 Alpha  occ. eigenvalues --  -10.35322 -10.34938 -10.34918 -10.34784 -10.33986
 Alpha  occ. eigenvalues --  -10.33320 -10.33125 -10.32973 -10.32821 -10.32565
 Alpha  occ. eigenvalues --  -10.32510 -10.32386 -10.32253 -10.32037 -10.31903
 Alpha  occ. eigenvalues --  -10.31751 -10.31683 -10.31186 -10.31167 -10.30728
 Alpha  occ. eigenvalues --  -10.30545 -10.30353 -10.30340 -10.30205 -10.30156
 Alpha  occ. eigenvalues --  -10.29977 -10.29935 -10.29894 -10.29722 -10.29694
 Alpha  occ. eigenvalues --  -10.29645 -10.29371 -10.29357 -10.29351 -10.29326
 Alpha  occ. eigenvalues --  -10.29315 -10.29220 -10.29110 -10.29093 -10.29010
 Alpha  occ. eigenvalues --  -10.28598 -10.28542 -10.28359 -10.28346 -10.28264
 Alpha  occ. eigenvalues --  -10.28173  -3.20951  -1.94540  -1.94075  -1.93941
 Alpha  occ. eigenvalues --   -1.19207  -1.17650  -1.12234  -1.10952  -1.09516
 Alpha  occ. eigenvalues --   -1.09304  -1.05994  -1.05296  -1.04645  -1.04084
 Alpha  occ. eigenvalues --   -0.93570  -0.92204  -0.91709  -0.90692  -0.90603
 Alpha  occ. eigenvalues --   -0.90448  -0.90369  -0.89380  -0.89266  -0.89009
 Alpha  occ. eigenvalues --   -0.87563  -0.86727  -0.85740  -0.85115  -0.84753
 Alpha  occ. eigenvalues --   -0.84089  -0.83490  -0.82949  -0.82585  -0.81906
 Alpha  occ. eigenvalues --   -0.81676  -0.81149  -0.79561  -0.79029  -0.78231
 Alpha  occ. eigenvalues --   -0.77809  -0.77395  -0.77193  -0.77021  -0.75916
 Alpha  occ. eigenvalues --   -0.74979  -0.74516  -0.73457  -0.72193  -0.70878
 Alpha  occ. eigenvalues --   -0.70536  -0.70293  -0.69190  -0.68662  -0.67845
 Alpha  occ. eigenvalues --   -0.67692  -0.66576  -0.66441  -0.66135  -0.65847
 Alpha  occ. eigenvalues --   -0.65667  -0.65094  -0.64646  -0.64407  -0.62862
 Alpha  occ. eigenvalues --   -0.61788  -0.61259  -0.60816  -0.60382  -0.59982
 Alpha  occ. eigenvalues --   -0.59174  -0.58413  -0.58177  -0.57155  -0.57007
 Alpha  occ. eigenvalues --   -0.56979  -0.56801  -0.56423  -0.56319  -0.55773
 Alpha  occ. eigenvalues --   -0.55650  -0.55554  -0.55285  -0.54668  -0.54544
 Alpha  occ. eigenvalues --   -0.54381  -0.54138  -0.53842  -0.53614  -0.53360
 Alpha  occ. eigenvalues --   -0.53325  -0.53281  -0.52869  -0.52611  -0.52449
 Alpha  occ. eigenvalues --   -0.52417  -0.52001  -0.51964  -0.51757  -0.51545
 Alpha  occ. eigenvalues --   -0.51403  -0.51231  -0.51060  -0.50861  -0.50656
 Alpha  occ. eigenvalues --   -0.50303  -0.50089  -0.49946  -0.49642  -0.49489
 Alpha  occ. eigenvalues --   -0.49417  -0.49351  -0.49119  -0.48938  -0.48725
 Alpha  occ. eigenvalues --   -0.48430  -0.48162  -0.47897  -0.47844  -0.47813
 Alpha  occ. eigenvalues --   -0.47509  -0.47125  -0.46964  -0.46827  -0.46693
 Alpha  occ. eigenvalues --   -0.46622  -0.46468  -0.46451  -0.46351  -0.45916
 Alpha  occ. eigenvalues --   -0.45776  -0.45721  -0.45620  -0.45331  -0.45097
 Alpha  occ. eigenvalues --   -0.44818  -0.44722  -0.44526  -0.44267  -0.44094
 Alpha  occ. eigenvalues --   -0.44036  -0.43627  -0.43504  -0.43205  -0.42895
 Alpha  occ. eigenvalues --   -0.42811  -0.42603  -0.42469  -0.42384  -0.42257
 Alpha  occ. eigenvalues --   -0.42067  -0.41787  -0.41304  -0.41040  -0.40990
 Alpha  occ. eigenvalues --   -0.40782  -0.40649  -0.40538  -0.40295  -0.40074
 Alpha  occ. eigenvalues --   -0.39649  -0.39461  -0.39186  -0.38651  -0.38531
 Alpha  occ. eigenvalues --   -0.38271  -0.37393  -0.36963  -0.36583  -0.36295
 Alpha  occ. eigenvalues --   -0.35949  -0.35743  -0.35266  -0.33880  -0.32985
 Alpha  occ. eigenvalues --   -0.32611  -0.32495  -0.31511  -0.31496  -0.25836
 Alpha  occ. eigenvalues --   -0.23127
 Alpha virt. eigenvalues --   -0.07359   0.00046   0.02159   0.04154   0.06056
 Alpha virt. eigenvalues --    0.06634   0.07739   0.07836   0.08350   0.08527
 Alpha virt. eigenvalues --    0.10173   0.10832   0.11834   0.11982   0.12326

 Mulliken charges:
               1
     1  Mg   0.991031
     2  C   -0.018400
     3  C   -0.078094
     4  C   -0.086293
     5  C   -0.079602
     6  N   -0.297553
     7  C   -0.015166
     8  C   -0.053220
     9  C   -0.102810
    10  C    0.009172
    11  C    0.018436
    12  C    0.054293
    13  C   -0.023361
    14  C    0.209478
    15  O   -0.264603
    16  O   -0.369041
    17  N   -0.512308
    18  C    0.177325
    19  C   -0.130191
    20  C   -0.070847
    21  C    0.182058
    22  C    0.070309
    23  C    0.029684
    24  O   -0.236559
    25  C   -0.016451
    26  N   -0.420832
    27  C    0.094014
    28  C   -0.078848
    29  C   -0.074253
    30  C    0.102105
    31  C    0.012609
    32  C   -0.031891
    33  C   -0.079637
    34  N   -0.424297
    35  C    0.112338
    36  C   -0.186183
    37  C   -0.110721
    38  C    0.145483
    39  C    0.092583
    40  C    0.194027
    41  O   -0.247355
    42  C   -0.088529
    43  C    0.237754
    44  O   -0.214563
    45  O   -0.373130
    46  C    0.134121
    47  C    0.242181
    48  C   -0.152630
    49  C   -0.178369
    50  C    0.050798
    51  C    0.009347
    52  C   -0.015180
    53  C    0.014748
    54  C   -0.221216
    55  C    0.009486
    56  C   -0.008955
    57  C   -0.001342
    58  C    0.014806
    59  C   -0.196290
    60  C   -0.014390
    61  C    0.049957
    62  C   -0.073369
    63  C    0.017564
    64  C   -0.231095
    65  C   -0.023334
    66  C    0.033251
    67  H   -0.004527
    68  H    0.020982
    69  H   -0.003176
    70  H    0.042257
    71  H    0.043119
    72  H    0.046513
    73  H    0.035816
    74  H    0.042410
    75  H    0.046142
    76  H    0.049136
    77  H    0.050952
    78  H    0.067047
    79  H    0.046799
    80  H    0.062830
    81  H    0.044747
    82  H    0.052717
    83  H    0.053709
    84  H    0.038383
    85  H    0.046361
    86  H    0.048432
    87  H    0.040284
    88  H    0.042028
    89  H    0.029194
    90  H    0.043258
    91  H    0.034741
    92  H    0.027454
    93  H    0.052047
    94  H    0.040986
    95  H    0.064165
    96  H    0.026601
    97  H    0.068648
    98  H    0.069084
    99  H    0.050818
   100  H    0.050758
   101  H    0.077231
   102  H    0.054102
   103  H    0.048987
   104  H    0.011424
   105  H    0.025805
   106  H    0.037671
   107  H    0.034005
   108  H    0.017588
   109  H    0.023375
   110  H    0.021199
   111  H    0.038354
   112  H    0.024603
   113  H    0.008504
   114  H    0.018164
   115  H    0.039986
   116  H    0.023588
   117  H    0.017043
   118  H    0.010814
   119  H    0.017513
   120  H    0.022013
   121  H    0.026116
   122  H    0.008336
   123  H    0.012019
   124  H    0.013405
   125  H    0.024956
   126  H    0.034374
   127  H    0.039502
   128  H    0.022948
   129  H    0.016460
   130  H   -0.005129
   131  H    0.013437
   132  H    0.023321
   133  H    0.027772
   134  H    0.023915
   135  H    0.012052
   136  H    0.034471
   137  H    0.033164
   138  H    0.036702
   139  H    0.031906
   140  H    0.019542
 Sum of Mulliken charges =  -0.00000

 Dipole moment (field-independent basis, Debye):
    X=              4.5320    Y=              4.2698    Z=              0.9511  Tot=              6.2988
 Quadrupole moment (field-independent basis, Debye-Ang):
   XX=           -375.9249   YY=           -426.3351   ZZ=           -415.3915
   XY=            -21.6758   XZ=             13.2411   YZ=              0.6382

 Normal termination of Gaussian 16 at Thu May  5 00:59:35 2022.
