 Gaussian 16, Revision A.03,
 Gaussian 16:  ES64L-G16RevA.03 25-Dec-2016

 --------------------
 #p ZINDO=(nstates=5)
 --------------------

 -----------------------------
 step_501_chromophore_27 ZINDO
 -----------------------------
 Symbolic Z-matrix:
 Charge =  0 Multiplicity = 1

                         Standard orientation:
 ---------------------------------------------------------------------
 Center     Atomic      Atomic             Coordinates (Angstroms)
 Number     Number       Type             X           Y           Z
 ---------------------------------------------------------------------
      1         12           0       -4.730958    0.894399    0.083161
      2          6           0       -3.759485   -2.558704    0.460171
      3          6           0       -1.370616    1.713587    0.661396
      4          6           0       -5.570399    4.035371   -0.374575
      5          6           0       -8.068101   -0.118293   -0.159852
      6          7           0       -2.785758   -0.363672    0.541805
      7          6           0       -2.607781   -1.706526    0.430820
      8          6           0       -1.136070   -2.084042    0.386169
      9          6           0       -0.365856   -0.711873    0.809316
     10          6           0       -1.565051    0.272926    0.693377
     11          6           0        0.359710   -0.763702    2.177183
     12          6           0       -0.696570   -2.640875   -1.010024
     13          6           0       -0.064621   -4.055847   -0.953731
     14          6           0        1.504499   -4.094924   -1.415068
     15          8           0        1.959732   -4.625848   -2.442438
     16          8           0        2.272727   -3.676867   -0.337185
     17          7           0       -3.654782    2.579339    0.128631
     18          6           0       -2.263080    2.790314    0.412903
     19          6           0       -1.856916    4.213895    0.342420
     20          6           0       -3.091588    4.847006   -0.017128
     21          6           0       -4.149535    3.826180   -0.101083
     22          6           0       -0.448614    4.740587    0.625711
     23          6           0       -3.370179    6.292029   -0.186023
     24          8           0       -4.367686    6.770122   -0.715326
     25          6           0       -2.263162    7.289924    0.206952
     26          7           0       -6.506846    1.769505   -0.386361
     27          6           0       -6.620011    3.112570   -0.499939
     28          6           0       -8.048310    3.580039   -0.541903
     29          6           0       -8.880312    2.274117   -0.523175
     30          6           0       -7.768745    1.207095   -0.405022
     31          6           0       -8.411324    4.604915    0.512129
     32          6           0       -9.716605    2.101070   -1.923795
     33          6           0      -11.315859    1.865835   -1.764672
     34          7           0       -5.780119   -0.927573    0.400742
     35          6           0       -7.157174   -1.166584    0.175270
     36          6           0       -7.385360   -2.610430    0.303255
     37          6           0       -6.073715   -3.152949    0.272573
     38          6           0       -5.163108   -2.110777    0.453254
     39          6           0       -8.693156   -3.393011    0.374483
     40          6           0       -5.359346   -4.450639    0.435209
     41          8           0       -5.705497   -5.656547    0.574531
     42          6           0       -3.827462   -4.073527    0.432299
     43          6           0       -3.182673   -4.697290    1.634800
     44          8           0       -3.655114   -4.687438    2.736205
     45          8           0       -2.054059   -5.367524    1.252099
     46          6           0       -1.552039   -6.283937    2.306953
     47          6           0        3.692417   -4.000254   -0.340195
     48          6           0        4.543017   -2.714295   -0.598089
     49          6           0        5.825099   -2.605662   -0.958810
     50          6           0        6.807194   -3.700150   -0.926281
     51          6           0        6.394891   -1.190499   -1.159269
     52          6           0        6.468878   -0.776839   -2.680119
     53          6           0        7.987161   -0.675030   -3.116448
     54          6           0        8.101640    0.439922   -4.187346
     55          6           0        8.035564   -0.118826   -5.642056
     56          6           0        9.470940    1.138527   -3.972915
     57          6           0        9.455485    2.277607   -2.868488
     58          6           0       10.382374    1.939307   -1.663650
     59          6           0        9.717790    1.547638   -0.298212
     60          6           0       10.219604    0.123813    0.039285
     61          6           0       10.124862    2.607390    0.775644
     62          6           0        9.500795    2.334069    2.145326
     63          6           0       10.401078    2.270715    3.366117
     64          6           0        9.544806    1.901986    4.643625
     65          6           0       10.086822    2.805663    5.831169
     66          6           0        9.660698    0.438287    5.081471
     67          1           0       -0.346767    1.921169    0.978707
     68          1           0       -5.914287    5.059944   -0.532813
     69          1           0       -9.098581   -0.461504   -0.270741
     70          1           0       -0.988880   -2.809803    1.186027
     71          1           0        0.352230   -0.386809    0.055985
     72          1           0       -0.102243   -0.078028    2.888108
     73          1           0        1.415800   -0.518300    2.057830
     74          1           0        0.426509   -1.746696    2.643465
     75          1           0        0.042521   -1.996634   -1.486965
     76          1           0       -1.541852   -2.724047   -1.693685
     77          1           0       -0.475349   -4.737978   -1.698566
     78          1           0       -0.200700   -4.588402   -0.012996
     79          1           0        0.366535    4.016769    0.598908
     80          1           0       -0.337983    5.312689    1.546831
     81          1           0       -0.250665    5.449343   -0.179025
     82          1           0       -2.035836    7.205346    1.269588
     83          1           0       -2.515196    8.316272   -0.061992
     84          1           0       -1.368353    7.033529   -0.360191
     85          1           0       -8.189076    4.142440   -1.465927
     86          1           0       -9.524154    2.227684    0.354632
     87          1           0       -8.550265    5.609659    0.112078
     88          1           0       -7.651850    4.771865    1.275867
     89          1           0       -9.312503    4.258332    1.018375
     90          1           0       -9.365659    1.282066   -2.550777
     91          1           0       -9.634613    2.975406   -2.568947
     92          1           0      -11.567031    2.245648   -0.774145
     93          1           0      -11.583566    0.813168   -1.864782
     94          1           0      -11.881103    2.513506   -2.434330
     95          1           0       -8.604754   -4.383857   -0.070635
     96          1           0       -9.405996   -2.891620   -0.281201
     97          1           0       -8.993618   -3.286648    1.416941
     98          1           0       -3.401968   -4.588321   -0.428747
     99          1           0       -1.426862   -5.694653    3.215142
    100          1           0       -0.550935   -6.540942    1.961119
    101          1           0       -2.152255   -7.147949    2.591997
    102          1           0        3.913768   -4.733128   -1.116210
    103          1           0        4.075735   -4.498302    0.550167
    104          1           0        3.950310   -1.798960   -0.621382
    105          1           0        7.315616   -3.674072   -1.889891
    106          1           0        6.537438   -4.734975   -0.711491
    107          1           0        7.614428   -3.423711   -0.248544
    108          1           0        7.377605   -1.132620   -0.690965
    109          1           0        5.762162   -0.503753   -0.597573
    110          1           0        5.982820    0.194819   -2.763734
    111          1           0        5.889408   -1.423582   -3.338515
    112          1           0        8.341716   -1.596628   -3.576019
    113          1           0        8.601779   -0.458587   -2.242469
    114          1           0        7.300364    1.178214   -4.152539
    115          1           0        7.654150    0.582911   -6.384038
    116          1           0        7.516998   -1.075877   -5.595060
    117          1           0        9.059487   -0.361934   -5.925501
    118          1           0        9.700924    1.597814   -4.934305
    119          1           0       10.196824    0.353333   -3.761595
    120          1           0        8.443720    2.499251   -2.528815
    121          1           0        9.835490    3.116310   -3.452124
    122          1           0       10.912515    2.874062   -1.477222
    123          1           0       11.180202    1.225628   -1.869314
    124          1           0        8.648540    1.553893   -0.508957
    125          1           0       11.273319    0.155554    0.315451
    126          1           0       10.235376   -0.556629   -0.811305
    127          1           0        9.608612   -0.320224    0.825131
    128          1           0        9.715505    3.581640    0.507901
    129          1           0       11.202307    2.645630    0.934321
    130          1           0        8.969971    1.383928    2.080371
    131          1           0        8.686831    3.044836    2.290764
    132          1           0       10.677856    3.324636    3.342526
    133          1           0       11.242948    1.606270    3.172873
    134          1           0        8.482269    2.127750    4.547061
    135          1           0       10.262284    3.817012    5.464184
    136          1           0       11.051858    2.380826    6.107406
    137          1           0        9.382664    3.064983    6.621689
    138          1           0        8.684073   -0.045390    5.052539
    139          1           0       10.123351    0.450766    6.068824
    140          1           0       10.326273    0.001098    4.338015
 ---------------------------------------------------------------------

 SCF Done:  E(RZINDO/S) =  -473.706899096     A.U. after   20 cycles

 Excitation energies and oscillator strengths:

 Excited State   1:      Singlet-A      1.2306 eV 1007.53 nm  f=0.5813  <S**2>=0.000
     175 ->178         0.19491
     176 ->177         0.66216
 This state for optimization and/or second-order correction.
 Total Energy, E(CIS/TDA) =  -473.661676304
 Copying the excited state density for this state as the 1-particle RhoCI density.

 Excited State   2:      Singlet-A      1.8700 eV  663.03 nm  f=0.0656  <S**2>=0.000
     175 ->177         0.56141
     176 ->178        -0.40099

 Excited State   3:      Singlet-A      2.9179 eV  424.91 nm  f=0.0215  <S**2>=0.000
     168 ->177         0.33219
     168 ->179        -0.44645
     168 ->181         0.24076
     168 ->185        -0.21934
     168 ->187        -0.12524
     168 ->195        -0.10187

 Excited State   4:      Singlet-A      2.9592 eV  418.98 nm  f=0.7214  <S**2>=0.000
     170 ->177         0.12928
     170 ->181         0.17138
     173 ->177        -0.12427
     175 ->177         0.29788
     176 ->178         0.45501
     176 ->179        -0.20495
     176 ->181        -0.14679

 Excited State   5:      Singlet-A      3.0274 eV  409.54 nm  f=0.4969  <S**2>=0.000
     169 ->177         0.17146
     169 ->179         0.13264
     169 ->181         0.21166
     169 ->185         0.10061
     170 ->177         0.16724
     170 ->179         0.16789
     170 ->181         0.26892
     170 ->185         0.13940
     175 ->177        -0.22267
     176 ->178        -0.30141
     176 ->179        -0.12218

 The electronic state is 1-A.
 Alpha  occ. eigenvalues --   -1.81968  -1.80238  -1.77356  -1.72966  -1.70468
 Alpha  occ. eigenvalues --   -1.68875  -1.65679  -1.61058  -1.58815  -1.56307
 Alpha  occ. eigenvalues --   -1.54518  -1.51630  -1.46525  -1.45360  -1.44698
 Alpha  occ. eigenvalues --   -1.43694  -1.42882  -1.40760  -1.38700  -1.38155
 Alpha  occ. eigenvalues --   -1.35819  -1.33071  -1.32173  -1.30845  -1.28177
 Alpha  occ. eigenvalues --   -1.26792  -1.24280  -1.21149  -1.19717  -1.17789
 Alpha  occ. eigenvalues --   -1.16377  -1.15464  -1.15085  -1.14944  -1.13887
 Alpha  occ. eigenvalues --   -1.12260  -1.11216  -1.09885  -1.05181  -1.03731
 Alpha  occ. eigenvalues --   -1.01924  -1.01180  -0.98932  -0.97607  -0.96303
 Alpha  occ. eigenvalues --   -0.95743  -0.94825  -0.94453  -0.93234  -0.92120
 Alpha  occ. eigenvalues --   -0.91170  -0.90418  -0.88307  -0.87455  -0.86075
 Alpha  occ. eigenvalues --   -0.85941  -0.84686  -0.82996  -0.81989  -0.80892
 Alpha  occ. eigenvalues --   -0.80412  -0.79845  -0.78152  -0.77207  -0.75776
 Alpha  occ. eigenvalues --   -0.75585  -0.74683  -0.74255  -0.73962  -0.73573
 Alpha  occ. eigenvalues --   -0.73309  -0.72538  -0.71617  -0.71385  -0.70809
 Alpha  occ. eigenvalues --   -0.70643  -0.69563  -0.69090  -0.68575  -0.67837
 Alpha  occ. eigenvalues --   -0.67388  -0.66606  -0.66582  -0.66510  -0.65990
 Alpha  occ. eigenvalues --   -0.65623  -0.65039  -0.64699  -0.64276  -0.63888
 Alpha  occ. eigenvalues --   -0.63023  -0.62591  -0.62269  -0.62088  -0.61509
 Alpha  occ. eigenvalues --   -0.61073  -0.60897  -0.60475  -0.60410  -0.60096
 Alpha  occ. eigenvalues --   -0.59158  -0.58888  -0.58584  -0.58158  -0.58126
 Alpha  occ. eigenvalues --   -0.57833  -0.57599  -0.57393  -0.56977  -0.56666
 Alpha  occ. eigenvalues --   -0.56110  -0.55722  -0.55515  -0.55008  -0.54590
 Alpha  occ. eigenvalues --   -0.54362  -0.54052  -0.53806  -0.53728  -0.53670
 Alpha  occ. eigenvalues --   -0.53100  -0.52731  -0.52565  -0.52368  -0.51666
 Alpha  occ. eigenvalues --   -0.51365  -0.51299  -0.50974  -0.50668  -0.50507
 Alpha  occ. eigenvalues --   -0.50330  -0.50248  -0.50050  -0.49637  -0.49495
 Alpha  occ. eigenvalues --   -0.49250  -0.48676  -0.48443  -0.48150  -0.47991
 Alpha  occ. eigenvalues --   -0.47669  -0.47536  -0.47392  -0.47341  -0.47076
 Alpha  occ. eigenvalues --   -0.46911  -0.46458  -0.46319  -0.46153  -0.45843
 Alpha  occ. eigenvalues --   -0.45826  -0.45412  -0.44913  -0.44734  -0.44176
 Alpha  occ. eigenvalues --   -0.43946  -0.43826  -0.43647  -0.42845  -0.42433
 Alpha  occ. eigenvalues --   -0.41875  -0.41763  -0.41404  -0.39409  -0.38777
 Alpha  occ. eigenvalues --   -0.38009  -0.37813  -0.35717  -0.35011  -0.34688
 Alpha  occ. eigenvalues --   -0.34322  -0.32386  -0.32274  -0.31871  -0.26608
 Alpha  occ. eigenvalues --   -0.22037
 Alpha virt. eigenvalues --   -0.08942  -0.02395  -0.00713   0.00801   0.01180
 Alpha virt. eigenvalues --    0.02351   0.03139   0.03290   0.04447   0.04904
 Alpha virt. eigenvalues --    0.05729   0.06120   0.06349   0.06964   0.07499

 Mulliken charges:
               1
     1  Mg   0.430529
     2  C   -0.040711
     3  C   -0.071600
     4  C   -0.092106
     5  C   -0.060656
     6  N   -0.279396
     7  C    0.109876
     8  C    0.008761
     9  C    0.003167
    10  C    0.127702
    11  C   -0.046940
    12  C   -0.013326
    13  C   -0.001743
    14  C    0.449401
    15  O   -0.503449
    16  O   -0.272015
    17  N   -0.324730
    18  C    0.101960
    19  C    0.023031
    20  C   -0.035670
    21  C    0.158608
    22  C   -0.033311
    23  C    0.325236
    24  O   -0.519881
    25  C   -0.035176
    26  N   -0.271519
    27  C    0.164343
    28  C    0.011985
    29  C    0.002628
    30  C    0.105291
    31  C   -0.048799
    32  C   -0.044802
    33  C   -0.067470
    34  N   -0.319956
    35  C    0.073913
    36  C    0.021109
    37  C   -0.059440
    38  C    0.116581
    39  C   -0.037362
    40  C    0.325210
    41  O   -0.532356
    42  C    0.052762
    43  C    0.490761
    44  O   -0.504011
    45  O   -0.278514
    46  C    0.072920
    47  C    0.100819
    48  C   -0.096540
    49  C    0.004672
    50  C   -0.039063
    51  C   -0.027058
    52  C   -0.036053
    53  C   -0.035441
    54  C   -0.020374
    55  C   -0.063727
    56  C   -0.042936
    57  C   -0.039268
    58  C   -0.045354
    59  C   -0.010086
    60  C   -0.054416
    61  C   -0.031303
    62  C   -0.043863
    63  C   -0.033697
    64  C   -0.017689
    65  C   -0.070160
    66  C   -0.060443
    67  H    0.023849
    68  H    0.044066
    69  H    0.026925
    70  H    0.038214
    71  H    0.034350
    72  H    0.026550
    73  H    0.017335
    74  H    0.025600
    75  H    0.031385
    76  H    0.030250
    77  H    0.034182
    78  H    0.052530
    79  H    0.030408
    80  H    0.037321
    81  H    0.028176
    82  H    0.033059
    83  H    0.037688
    84  H    0.033473
    85  H    0.033791
    86  H    0.042633
    87  H    0.022507
    88  H    0.021746
    89  H    0.017099
    90  H    0.024975
    91  H    0.021943
    92  H    0.015012
    93  H    0.029027
    94  H    0.023053
    95  H    0.042950
    96  H    0.016001
    97  H    0.046420
    98  H    0.052399
    99  H    0.037990
   100  H    0.025580
   101  H    0.060695
   102  H    0.050922
   103  H    0.043936
   104  H    0.024927
   105  H    0.022580
   106  H    0.028556
   107  H    0.022132
   108  H    0.022794
   109  H    0.017741
   110  H    0.018095
   111  H    0.030385
   112  H    0.025205
   113  H    0.027440
   114  H    0.022687
   115  H    0.025344
   116  H    0.019016
   117  H    0.012655
   118  H    0.010977
   119  H    0.024449
   120  H    0.026686
   121  H    0.018263
   122  H    0.004888
   123  H    0.023863
   124  H    0.026839
   125  H    0.019035
   126  H    0.016528
   127  H    0.015877
   128  H    0.017997
   129  H    0.026043
   130  H    0.004299
   131  H    0.011551
   132  H    0.021546
   133  H    0.032282
   134  H    0.024140
   135  H    0.002433
   136  H    0.026384
   137  H    0.024505
   138  H    0.022156
   139  H    0.026889
   140  H    0.019924
 Sum of Mulliken charges =  -0.00000

 Dipole moment (field-independent basis, Debye):
    X=              7.3143    Y=              6.4459    Z=              0.9548  Tot=              9.7959
 N-N= 4.377359276037D+03 E-N= 0.000000000000D+00  KE=-9.428042853564D+03
 Leave Link  601 at Thu May  5 01:12:48 2022, MaxMem=  6710886400 cpu:               0.8 elap:               0.0
 (Enter /sw/apps/gaussian-16.0/g16/l9999.exe)
 1\1\GINC-BP1-COMPUTE183\SP\RZINDO CIS\STO-3G\C55H74Mg1N4O6\OF15641\05-
 May-2022\0\\#p ZINDO=(nstates=5)\\step_501_chromophore_27 ZINDO\\0,1\M
 g,0,-5.098,24.633,26.684\C,0,-3.702,26.367,29.522\C,0,-6.113,22.143,28
 .935\C,0,-6.48,23.096,24.133\C,0,-3.729,27.067,24.581\N,0,-4.871,24.33
 ,29.015\C,0,-4.476,25.238,29.946\C,0,-4.87,24.819,31.353\C,0,-5.343,23
 .269,31.183\C,0,-5.428,23.221,29.63\C,0,-4.42,22.225,31.86\C,0,-5.972,
 25.743,31.973\C,0,-5.564,26.394,33.32\C,0,-6.482,25.916,34.587\O,0,-7.

 Normal termination of Gaussian 16 at Thu May  5 01:12:48 2022.
