 Gaussian 16, Revision A.03,
 Gaussian 16:  ES64L-G16RevA.03 25-Dec-2016

 ------------------------------
 #p blyp/Def2SVP td=(nstates=5)
 ------------------------------

 -------------------------------------------------
 step_751_chromophore_3 TDDFT with blyp functional
 -------------------------------------------------
 Symbolic Z-matrix:
 Charge =  0 Multiplicity = 1

                         Standard orientation:
 ---------------------------------------------------------------------
 Center     Atomic      Atomic             Coordinates (Angstroms)
 Number     Number       Type             X           Y           Z
 ---------------------------------------------------------------------
      1         12           0       -5.576253    0.561179   -0.343933
      2          6           0       -3.992999   -2.487169   -0.169982
      3          6           0       -2.372339    2.071996   -0.114518
      4          6           0       -7.116880    3.555818    0.220104
      5          6           0       -8.671161   -0.910504    0.293461
      6          7           0       -3.458644   -0.111481   -0.351120
      7          6           0       -3.091196   -1.427602   -0.393478
      8          6           0       -1.605709   -1.609275   -0.581006
      9          6           0       -1.117969   -0.181339   -0.360417
     10          6           0       -2.387363    0.676259   -0.273711
     11          6           0       -0.227910    0.041214    0.815962
     12          6           0       -1.202553   -2.127438   -2.002665
     13          6           0       -0.098704   -3.163864   -1.971416
     14          6           0        1.125153   -2.908570   -1.013784
     15          8           0        1.302092   -3.321311    0.119348
     16          8           0        2.028216   -2.008597   -1.682801
     17          7           0       -4.882043    2.530215   -0.164537
     18          6           0       -3.534788    2.920546   -0.091302
     19          6           0       -3.549358    4.325003    0.170288
     20          6           0       -4.863005    4.850267    0.167209
     21          6           0       -5.713729    3.640231   -0.056781
     22          6           0       -2.221324    5.072229    0.430482
     23          6           0       -5.306985    6.300930    0.388224
     24          8           0       -6.508582    6.525299    0.380669
     25          6           0       -4.274743    7.423129    0.463799
     26          7           0       -7.653906    1.261276    0.226964
     27          6           0       -8.009081    2.486789    0.376935
     28          6           0       -9.480150    2.733396    0.706367
     29          6           0      -10.101279    1.303686    0.463188
     30          6           0       -8.740728    0.444771    0.370508
     31          6           0       -9.685313    3.166074    2.183748
     32          6           0      -10.868965    1.188796   -0.908609
     33          6           0      -12.431012    1.013764   -0.891187
     34          7           0       -6.332252   -1.352796   -0.101390
     35          6           0       -7.529258   -1.785713    0.204154
     36          6           0       -7.449194   -3.255265    0.383551
     37          6           0       -6.134735   -3.585158    0.293214
     38          6           0       -5.449622   -2.389406    0.003942
     39          6           0       -8.652815   -4.126736    0.557435
     40          6           0       -5.106527   -4.665776    0.384717
     41          8           0       -5.197633   -5.834748    0.753742
     42          6           0       -3.701488   -4.016025   -0.006496
     43          6           0       -2.698218   -4.171468    1.059201
     44          8           0       -2.419997   -3.324222    1.940093
     45          8           0       -2.206438   -5.437139    1.030784
     46          6           0       -1.119259   -5.787890    1.937651
     47          6           0        3.292763   -1.804701   -1.046221
     48          6           0        4.469185   -1.415497   -1.997076
     49          6           0        5.726703   -1.850119   -2.116661
     50          6           0        6.537924   -2.805644   -1.180732
     51          6           0        6.476226   -1.395924   -3.315945
     52          6           0        7.161526   -0.102053   -3.164248
     53          6           0        8.670549   -0.202196   -3.472594
     54          6           0        9.519353    0.615561   -2.408875
     55          6           0        9.922787   -0.243837   -1.207873
     56          6           0       10.638610    1.446472   -3.140411
     57          6           0       11.092336    2.677028   -2.264388
     58          6           0       12.458491    2.413155   -1.542766
     59          6           0       12.338470    2.541926    0.020699
     60          6           0       12.989705    3.927410    0.555025
     61          6           0       12.963662    1.396324    0.844565
     62          6           0       12.023937    1.010598    1.976348
     63          6           0       12.582459   -0.118937    2.821708
     64          6           0       12.504449    0.072883    4.330869
     65          6           0       13.717354   -0.614761    5.000126
     66          6           0       11.270077   -0.633961    4.820421
     67          1           0       -1.405553    2.579190   -0.089504
     68          1           0       -7.531741    4.533913    0.472150
     69          1           0       -9.613405   -1.462377    0.311113
     70          1           0       -1.182885   -2.230405    0.209107
     71          1           0       -0.620651    0.247351   -1.230613
     72          1           0       -0.034014   -0.861588    1.393777
     73          1           0       -0.600750    0.793071    1.512584
     74          1           0        0.728958    0.464285    0.510381
     75          1           0       -0.925077   -1.287625   -2.638430
     76          1           0       -2.152575   -2.428859   -2.443875
     77          1           0        0.176874   -3.420017   -2.994501
     78          1           0       -0.594795   -4.081533   -1.655941
     79          1           0       -2.212854    5.212716    1.511672
     80          1           0       -2.209721    5.990487   -0.155645
     81          1           0       -1.299965    4.591485    0.103966
     82          1           0       -3.804118    7.538150   -0.512892
     83          1           0       -3.602294    7.127538    1.270062
     84          1           0       -4.746400    8.359914    0.759863
     85          1           0       -9.963131    3.431220    0.023082
     86          1           0      -10.684851    0.897507    1.289312
     87          1           0       -9.628298    2.292693    2.833465
     88          1           0      -10.649175    3.567388    2.497400
     89          1           0       -8.923419    3.888040    2.476198
     90          1           0      -10.392070    0.455310   -1.558187
     91          1           0      -10.624399    2.152422   -1.355918
     92          1           0      -12.816821    1.284637    0.091629
     93          1           0      -12.594899   -0.017009   -1.202727
     94          1           0      -12.969352    1.710996   -1.532889
     95          1           0       -9.556083   -3.606748    0.238016
     96          1           0       -8.826810   -4.336518    1.612885
     97          1           0       -8.603204   -5.105284    0.079882
     98          1           0       -3.231834   -4.467654   -0.879177
     99          1           0       -0.324371   -5.046737    1.847913
    100          1           0       -0.795529   -6.800145    1.697939
    101          1           0       -1.528143   -5.733534    2.946161
    102          1           0        3.660504   -2.793368   -0.772648
    103          1           0        3.296602   -1.278076   -0.092126
    104          1           0        4.105519   -0.680768   -2.715545
    105          1           0        6.474262   -3.827532   -1.554280
    106          1           0        6.013814   -2.863411   -0.226455
    107          1           0        7.556750   -2.419467   -1.159729
    108          1           0        5.746003   -1.266758   -4.115084
    109          1           0        7.128121   -2.221094   -3.600977
    110          1           0        6.917941    0.240816   -2.158852
    111          1           0        6.628428    0.596627   -3.807801
    112          1           0        8.804476    0.055592   -4.523468
    113          1           0        8.966399   -1.250759   -3.456014
    114          1           0        8.944726    1.441777   -1.990611
    115          1           0        9.355779   -1.175347   -1.192192
    116          1           0        9.935887    0.294311   -0.260140
    117          1           0       10.940347   -0.548197   -1.451350
    118          1           0       10.258236    1.709194   -4.127438
    119          1           0       11.465697    0.748976   -3.271314
    120          1           0       10.396562    2.864168   -1.446977
    121          1           0       11.140249    3.553428   -2.910101
    122          1           0       13.273228    3.039803   -1.905794
    123          1           0       12.625898    1.354824   -1.739336
    124          1           0       11.306222    2.490403    0.366705
    125          1           0       12.327723    4.786129    0.438931
    126          1           0       14.003015    4.149601    0.219736
    127          1           0       13.274630    3.830321    1.602825
    128          1           0       13.949877    1.751704    1.143032
    129          1           0       12.985933    0.522590    0.193247
    130          1           0       11.010126    0.805920    1.633858
    131          1           0       11.958283    1.900581    2.600707
    132          1           0       13.568660   -0.386258    2.443265
    133          1           0       12.059845   -1.040215    2.562620
    134          1           0       12.435578    1.074782    4.754303
    135          1           0       13.389293   -1.612403    5.290219
    136          1           0       13.975456   -0.019368    5.876093
    137          1           0       14.556056   -0.733654    4.314591
    138          1           0       11.014002   -0.165091    5.770675
    139          1           0       11.292534   -1.723875    4.808355
    140          1           0       10.370187   -0.433664    4.239370
 ---------------------------------------------------------------------

 SCF Done:  E(RB-LYP) =  -3007.37034048     A.U. after   21 cycles

 Excitation energies and oscillator strengths:

 Excited State   1:      Singlet-A      1.8537 eV  668.85 nm  f=0.3170  <S**2>=0.000
     245 -> 248        0.15204
     245 -> 249       -0.10989
     246 -> 247        0.68890
     246 <- 247       -0.14273
 This state for optimization and/or second-order correction.
 Total Energy, E(TD-HF/TD-DFT) =  -3007.30221861
 Copying the excited state density for this state as the 1-particle RhoCI density.

 Excited State   2:      Singlet-A      2.0485 eV  605.24 nm  f=0.0792  <S**2>=0.000
     244 -> 247       -0.15970
     245 -> 247        0.63870
     246 -> 248       -0.18290
     246 -> 249        0.14442

 Excited State   3:      Singlet-A      2.1353 eV  580.65 nm  f=0.0058  <S**2>=0.000
     244 -> 247        0.68798
     245 -> 247        0.14038

 Excited State   4:      Singlet-A      2.2849 eV  542.63 nm  f=0.0002  <S**2>=0.000
     243 -> 247        0.70632

 Excited State   5:      Singlet-A      2.5885 eV  478.99 nm  f=0.0001  <S**2>=0.000
     241 -> 247        0.70702

 The electronic state is 1-A.
 Alpha  occ. eigenvalues --  -46.27731 -18.82665 -18.81552 -18.79642 -18.76328
 Alpha  occ. eigenvalues --  -18.75966 -18.75568 -14.02943 -14.02456 -14.00940
 Alpha  occ. eigenvalues --  -14.00929 -10.06223 -10.03423 -10.00790 -10.00090
 Alpha  occ. eigenvalues --   -9.97866  -9.96982  -9.96013  -9.95943  -9.95891
 Alpha  occ. eigenvalues --   -9.95609  -9.95490  -9.95399  -9.95088  -9.94813
 Alpha  occ. eigenvalues --   -9.94573  -9.94375  -9.93879  -9.93865  -9.93714
 Alpha  occ. eigenvalues --   -9.93615  -9.93349  -9.93150  -9.93111  -9.92951
 Alpha  occ. eigenvalues --   -9.92827  -9.92817  -9.92784  -9.92542  -9.92513
 Alpha  occ. eigenvalues --   -9.92430  -9.92378  -9.92168  -9.92119  -9.92062
 Alpha  occ. eigenvalues --   -9.92038  -9.92029  -9.91818  -9.91813  -9.91737
 Alpha  occ. eigenvalues --   -9.91686  -9.91639  -9.91407  -9.91360  -9.91260
 Alpha  occ. eigenvalues --   -9.91190  -9.91179  -9.91140  -9.91078  -9.90972
 Alpha  occ. eigenvalues --   -9.90906  -9.90899  -9.90800  -9.90504  -9.90486
 Alpha  occ. eigenvalues --   -9.90464  -2.92191  -1.72626  -1.72087  -1.71887
 Alpha  occ. eigenvalues --   -0.97864  -0.97043  -0.91583  -0.91423  -0.91246
 Alpha  occ. eigenvalues --   -0.88256  -0.87360  -0.86719  -0.86279  -0.83525
 Alpha  occ. eigenvalues --   -0.74554  -0.74451  -0.73376  -0.73328  -0.72142
 Alpha  occ. eigenvalues --   -0.71463  -0.71045  -0.70921  -0.70671  -0.69693
 Alpha  occ. eigenvalues --   -0.69545  -0.69056  -0.68277  -0.67419  -0.66827
 Alpha  occ. eigenvalues --   -0.66499  -0.65610  -0.65011  -0.64679  -0.64146
 Alpha  occ. eigenvalues --   -0.64017  -0.62212  -0.61761  -0.61184  -0.61001
 Alpha  occ. eigenvalues --   -0.60409  -0.59921  -0.59759  -0.59460  -0.59103
 Alpha  occ. eigenvalues --   -0.58068  -0.57369  -0.56000  -0.55666  -0.54432
 Alpha  occ. eigenvalues --   -0.53979  -0.53776  -0.52548  -0.52359  -0.51441
 Alpha  occ. eigenvalues --   -0.51026  -0.51022  -0.50589  -0.50163  -0.50118
 Alpha  occ. eigenvalues --   -0.49844  -0.49663  -0.48867  -0.47946  -0.46513
 Alpha  occ. eigenvalues --   -0.46094  -0.45805  -0.45393  -0.44939  -0.44198
 Alpha  occ. eigenvalues --   -0.43741  -0.43522  -0.42808  -0.42716  -0.42524
 Alpha  occ. eigenvalues --   -0.42279  -0.41951  -0.41458  -0.41216  -0.41023
 Alpha  occ. eigenvalues --   -0.40935  -0.40871  -0.40692  -0.40319  -0.40150
 Alpha  occ. eigenvalues --   -0.40140  -0.40017  -0.39690  -0.39362  -0.39244
 Alpha  occ. eigenvalues --   -0.38912  -0.38420  -0.38290  -0.38191  -0.38031
 Alpha  occ. eigenvalues --   -0.37902  -0.37780  -0.37562  -0.37505  -0.37422
 Alpha  occ. eigenvalues --   -0.37279  -0.36828  -0.36771  -0.36646  -0.36519
 Alpha  occ. eigenvalues --   -0.36330  -0.35958  -0.35743  -0.35629  -0.35263
 Alpha  occ. eigenvalues --   -0.35088  -0.34853  -0.34791  -0.34643  -0.34555
 Alpha  occ. eigenvalues --   -0.34549  -0.34042  -0.33985  -0.33932  -0.33905
 Alpha  occ. eigenvalues --   -0.33730  -0.33668  -0.33518  -0.33183  -0.33048
 Alpha  occ. eigenvalues --   -0.32952  -0.32680  -0.32558  -0.32499  -0.32441
 Alpha  occ. eigenvalues --   -0.32086  -0.31891  -0.31784  -0.31600  -0.31244
 Alpha  occ. eigenvalues --   -0.31023  -0.30950  -0.30854  -0.30504  -0.30274
 Alpha  occ. eigenvalues --   -0.30224  -0.30109  -0.29999  -0.29773  -0.29604
 Alpha  occ. eigenvalues --   -0.29383  -0.28985  -0.28890  -0.28881  -0.28743
 Alpha  occ. eigenvalues --   -0.28607  -0.28489  -0.28062  -0.27944  -0.27857
 Alpha  occ. eigenvalues --   -0.27646  -0.27303  -0.26932  -0.26688  -0.26239
 Alpha  occ. eigenvalues --   -0.26028  -0.25905  -0.25773  -0.25712  -0.25562
 Alpha  occ. eigenvalues --   -0.25045  -0.24250  -0.24174  -0.24073  -0.23818
 Alpha  occ. eigenvalues --   -0.23395  -0.23056  -0.21816  -0.21143  -0.20787
 Alpha  occ. eigenvalues --   -0.20436  -0.20258  -0.19236  -0.18661  -0.16647
 Alpha  occ. eigenvalues --   -0.15398
 Alpha virt. eigenvalues --   -0.10924  -0.06246  -0.06035  -0.05128  -0.04414
 Alpha virt. eigenvalues --   -0.02766  -0.02474  -0.02006  -0.00433   0.00387
 Alpha virt. eigenvalues --    0.01673   0.01845   0.01958   0.02920   0.03001

 Mulliken charges:
               1
     1  Mg   0.696734
     2  C    0.043612
     3  C   -0.072856
     4  C   -0.049673
     5  C   -0.054157
     6  N   -0.190551
     7  C   -0.061476
     8  C   -0.029317
     9  C    0.003422
    10  C    0.012605
    11  C    0.134783
    12  C    0.143366
    13  C    0.151011
    14  C    0.130442
    15  O   -0.164472
    16  O   -0.300971
    17  N   -0.326092
    18  C    0.155423
    19  C   -0.160097
    20  C    0.014492
    21  C    0.095415
    22  C    0.152370
    23  C   -0.073959
    24  O   -0.158946
    25  C    0.139519
    26  N   -0.135404
    27  C   -0.001031
    28  C    0.055740
    29  C   -0.001201
    30  C   -0.004851
    31  C    0.113266
    32  C    0.085917
    33  C    0.076745
    34  N   -0.232693
    35  C    0.061420
    36  C   -0.196589
    37  C    0.125273
    38  C    0.014205
    39  C    0.168657
    40  C    0.002231
    41  O   -0.121099
    42  C    0.056258
    43  C    0.098299
    44  O   -0.222862
    45  O   -0.255637
    46  C    0.225787
    47  C    0.304911
    48  C   -0.121851
    49  C   -0.160149
    50  C    0.148834
    51  C    0.127005
    52  C    0.098335
    53  C    0.109651
    54  C   -0.101028
    55  C    0.122661
    56  C    0.079435
    57  C    0.075901
    58  C    0.145422
    59  C   -0.086994
    60  C    0.077602
    61  C    0.091995
    62  C    0.052910
    63  C    0.139295
    64  C   -0.078911
    65  C    0.114320
    66  C    0.096582
    67  H   -0.066771
    68  H   -0.040870
    69  H   -0.074546
    70  H    0.019546
    71  H   -0.027266
    72  H    0.008704
    73  H   -0.017415
    74  H   -0.025644
    75  H   -0.025613
    76  H   -0.026996
    77  H   -0.004565
    78  H   -0.011184
    79  H    0.020169
    80  H   -0.004464
    81  H   -0.014902
    82  H    0.030587
    83  H    0.003855
    84  H   -0.011575
    85  H   -0.014940
    86  H   -0.027637
    87  H   -0.015779
    88  H   -0.010816
    89  H   -0.001624
    90  H   -0.016134
    91  H   -0.034543
    92  H   -0.010840
    93  H    0.006904
    94  H   -0.007852
    95  H   -0.020037
    96  H   -0.002710
    97  H    0.002564
    98  H    0.001467
    99  H    0.023099
   100  H    0.017137
   101  H    0.009949
   102  H   -0.028452
   103  H    0.005532
   104  H   -0.038523
   105  H    0.005709
   106  H   -0.008718
   107  H    0.003773
   108  H   -0.037671
   109  H   -0.034172
   110  H   -0.026385
   111  H   -0.030950
   112  H   -0.034036
   113  H   -0.039542
   114  H   -0.033078
   115  H   -0.021874
   116  H    0.003334
   117  H   -0.023736
   118  H   -0.033537
   119  H   -0.032040
   120  H   -0.026861
   121  H   -0.030574
   122  H   -0.025416
   123  H   -0.040668
   124  H   -0.037733
   125  H   -0.005747
   126  H   -0.018617
   127  H   -0.031192
   128  H   -0.027372
   129  H   -0.040713
   130  H   -0.024486
   131  H   -0.037590
   132  H   -0.046346
   133  H   -0.049130
   134  H   -0.030642
   135  H   -0.024015
   136  H   -0.016279
   137  H   -0.017641
   138  H   -0.026636
   139  H   -0.010560
   140  H   -0.035652
 Sum of Mulliken charges =  -0.00000

 Dipole moment (field-independent basis, Debye):
    X=              3.4538    Y=              1.5930    Z=             -3.1650  Tot=              4.9481
 Quadrupole moment (field-independent basis, Debye-Ang):
   XX=           -381.2132   YY=           -426.1518   ZZ=           -403.3912
   XY=             -4.2572   XZ=              3.3912   YZ=             10.6089

 Normal termination of Gaussian 16 at Thu May  5 09:14:05 2022.
