 Gaussian 16, Revision A.03,
 Gaussian 16:  ES64L-G16RevA.03 25-Dec-2016

 -----------------------------------
 #p cam-b3lyp/Def2SVP td=(nstates=5)
 -----------------------------------

 ------------------------------------------------------
 step_751_chromophore_3 TDDFT with cam-b3lyp functional
 ------------------------------------------------------
 Symbolic Z-matrix:
 Charge =  0 Multiplicity = 1

                         Standard orientation:
 ---------------------------------------------------------------------
 Center     Atomic      Atomic             Coordinates (Angstroms)
 Number     Number       Type             X           Y           Z
 ---------------------------------------------------------------------
      1         12           0       -5.576253    0.561179   -0.343933
      2          6           0       -3.992999   -2.487169   -0.169982
      3          6           0       -2.372339    2.071996   -0.114518
      4          6           0       -7.116880    3.555818    0.220104
      5          6           0       -8.671161   -0.910504    0.293461
      6          7           0       -3.458644   -0.111481   -0.351120
      7          6           0       -3.091196   -1.427602   -0.393478
      8          6           0       -1.605709   -1.609275   -0.581006
      9          6           0       -1.117969   -0.181339   -0.360417
     10          6           0       -2.387363    0.676259   -0.273711
     11          6           0       -0.227910    0.041214    0.815962
     12          6           0       -1.202553   -2.127438   -2.002665
     13          6           0       -0.098704   -3.163864   -1.971416
     14          6           0        1.125153   -2.908570   -1.013784
     15          8           0        1.302092   -3.321311    0.119348
     16          8           0        2.028216   -2.008597   -1.682801
     17          7           0       -4.882043    2.530215   -0.164537
     18          6           0       -3.534788    2.920546   -0.091302
     19          6           0       -3.549358    4.325003    0.170288
     20          6           0       -4.863005    4.850267    0.167209
     21          6           0       -5.713729    3.640231   -0.056781
     22          6           0       -2.221324    5.072229    0.430482
     23          6           0       -5.306985    6.300930    0.388224
     24          8           0       -6.508582    6.525299    0.380669
     25          6           0       -4.274743    7.423129    0.463799
     26          7           0       -7.653906    1.261276    0.226964
     27          6           0       -8.009081    2.486789    0.376935
     28          6           0       -9.480150    2.733396    0.706367
     29          6           0      -10.101279    1.303686    0.463188
     30          6           0       -8.740728    0.444771    0.370508
     31          6           0       -9.685313    3.166074    2.183748
     32          6           0      -10.868965    1.188796   -0.908609
     33          6           0      -12.431012    1.013764   -0.891187
     34          7           0       -6.332252   -1.352796   -0.101390
     35          6           0       -7.529258   -1.785713    0.204154
     36          6           0       -7.449194   -3.255265    0.383551
     37          6           0       -6.134735   -3.585158    0.293214
     38          6           0       -5.449622   -2.389406    0.003942
     39          6           0       -8.652815   -4.126736    0.557435
     40          6           0       -5.106527   -4.665776    0.384717
     41          8           0       -5.197633   -5.834748    0.753742
     42          6           0       -3.701488   -4.016025   -0.006496
     43          6           0       -2.698218   -4.171468    1.059201
     44          8           0       -2.419997   -3.324222    1.940093
     45          8           0       -2.206438   -5.437139    1.030784
     46          6           0       -1.119259   -5.787890    1.937651
     47          6           0        3.292763   -1.804701   -1.046221
     48          6           0        4.469185   -1.415497   -1.997076
     49          6           0        5.726703   -1.850119   -2.116661
     50          6           0        6.537924   -2.805644   -1.180732
     51          6           0        6.476226   -1.395924   -3.315945
     52          6           0        7.161526   -0.102053   -3.164248
     53          6           0        8.670549   -0.202196   -3.472594
     54          6           0        9.519353    0.615561   -2.408875
     55          6           0        9.922787   -0.243837   -1.207873
     56          6           0       10.638610    1.446472   -3.140411
     57          6           0       11.092336    2.677028   -2.264388
     58          6           0       12.458491    2.413155   -1.542766
     59          6           0       12.338470    2.541926    0.020699
     60          6           0       12.989705    3.927410    0.555025
     61          6           0       12.963662    1.396324    0.844565
     62          6           0       12.023937    1.010598    1.976348
     63          6           0       12.582459   -0.118937    2.821708
     64          6           0       12.504449    0.072883    4.330869
     65          6           0       13.717354   -0.614761    5.000126
     66          6           0       11.270077   -0.633961    4.820421
     67          1           0       -1.405553    2.579190   -0.089504
     68          1           0       -7.531741    4.533913    0.472150
     69          1           0       -9.613405   -1.462377    0.311113
     70          1           0       -1.182885   -2.230405    0.209107
     71          1           0       -0.620651    0.247351   -1.230613
     72          1           0       -0.034014   -0.861588    1.393777
     73          1           0       -0.600750    0.793071    1.512584
     74          1           0        0.728958    0.464285    0.510381
     75          1           0       -0.925077   -1.287625   -2.638430
     76          1           0       -2.152575   -2.428859   -2.443875
     77          1           0        0.176874   -3.420017   -2.994501
     78          1           0       -0.594795   -4.081533   -1.655941
     79          1           0       -2.212854    5.212716    1.511672
     80          1           0       -2.209721    5.990487   -0.155645
     81          1           0       -1.299965    4.591485    0.103966
     82          1           0       -3.804118    7.538150   -0.512892
     83          1           0       -3.602294    7.127538    1.270062
     84          1           0       -4.746400    8.359914    0.759863
     85          1           0       -9.963131    3.431220    0.023082
     86          1           0      -10.684851    0.897507    1.289312
     87          1           0       -9.628298    2.292693    2.833465
     88          1           0      -10.649175    3.567388    2.497400
     89          1           0       -8.923419    3.888040    2.476198
     90          1           0      -10.392070    0.455310   -1.558187
     91          1           0      -10.624399    2.152422   -1.355918
     92          1           0      -12.816821    1.284637    0.091629
     93          1           0      -12.594899   -0.017009   -1.202727
     94          1           0      -12.969352    1.710996   -1.532889
     95          1           0       -9.556083   -3.606748    0.238016
     96          1           0       -8.826810   -4.336518    1.612885
     97          1           0       -8.603204   -5.105284    0.079882
     98          1           0       -3.231834   -4.467654   -0.879177
     99          1           0       -0.324371   -5.046737    1.847913
    100          1           0       -0.795529   -6.800145    1.697939
    101          1           0       -1.528143   -5.733534    2.946161
    102          1           0        3.660504   -2.793368   -0.772648
    103          1           0        3.296602   -1.278076   -0.092126
    104          1           0        4.105519   -0.680768   -2.715545
    105          1           0        6.474262   -3.827532   -1.554280
    106          1           0        6.013814   -2.863411   -0.226455
    107          1           0        7.556750   -2.419467   -1.159729
    108          1           0        5.746003   -1.266758   -4.115084
    109          1           0        7.128121   -2.221094   -3.600977
    110          1           0        6.917941    0.240816   -2.158852
    111          1           0        6.628428    0.596627   -3.807801
    112          1           0        8.804476    0.055592   -4.523468
    113          1           0        8.966399   -1.250759   -3.456014
    114          1           0        8.944726    1.441777   -1.990611
    115          1           0        9.355779   -1.175347   -1.192192
    116          1           0        9.935887    0.294311   -0.260140
    117          1           0       10.940347   -0.548197   -1.451350
    118          1           0       10.258236    1.709194   -4.127438
    119          1           0       11.465697    0.748976   -3.271314
    120          1           0       10.396562    2.864168   -1.446977
    121          1           0       11.140249    3.553428   -2.910101
    122          1           0       13.273228    3.039803   -1.905794
    123          1           0       12.625898    1.354824   -1.739336
    124          1           0       11.306222    2.490403    0.366705
    125          1           0       12.327723    4.786129    0.438931
    126          1           0       14.003015    4.149601    0.219736
    127          1           0       13.274630    3.830321    1.602825
    128          1           0       13.949877    1.751704    1.143032
    129          1           0       12.985933    0.522590    0.193247
    130          1           0       11.010126    0.805920    1.633858
    131          1           0       11.958283    1.900581    2.600707
    132          1           0       13.568660   -0.386258    2.443265
    133          1           0       12.059845   -1.040215    2.562620
    134          1           0       12.435578    1.074782    4.754303
    135          1           0       13.389293   -1.612403    5.290219
    136          1           0       13.975456   -0.019368    5.876093
    137          1           0       14.556056   -0.733654    4.314591
    138          1           0       11.014002   -0.165091    5.770675
    139          1           0       11.292534   -1.723875    4.808355
    140          1           0       10.370187   -0.433664    4.239370
 ---------------------------------------------------------------------

 SCF Done:  E(RCAM-B3LYP) =  -3007.16507371     A.U. after   18 cycles

 Excitation energies and oscillator strengths:

 Excited State   1:      Singlet-A      1.7951 eV  690.67 nm  f=0.3805  <S**2>=0.000
     245 -> 248        0.17628
     246 -> 247        0.68552
     245 <- 248        0.10132
 This state for optimization and/or second-order correction.
 Total Energy, E(TD-HF/TD-DFT) =  -3007.09910356
 Copying the excited state density for this state as the 1-particle RhoCI density.

 Excited State   2:      Singlet-A      2.2721 eV  545.69 nm  f=0.1391  <S**2>=0.000
     245 -> 247        0.64834
     246 -> 248       -0.26520

 Excited State   3:      Singlet-A      3.4784 eV  356.44 nm  f=0.0632  <S**2>=0.000
     243 -> 247        0.54495
     244 -> 247       -0.29884
     246 -> 248        0.28663

 Excited State   4:      Singlet-A      3.6817 eV  336.76 nm  f=0.7040  <S**2>=0.000
     243 -> 247       -0.17571
     244 -> 247        0.25452
     245 -> 247        0.26434
     246 -> 248        0.56652
     245 <- 247       -0.10035

 Excited State   5:      Singlet-A      3.7080 eV  334.37 nm  f=0.0017  <S**2>=0.000
     239 -> 247        0.53036
     239 -> 248       -0.18118
     239 -> 249       -0.24256
     239 -> 250        0.20223
     239 -> 251       -0.18036
     240 -> 247       -0.13299

 The electronic state is 1-A.
 Alpha  occ. eigenvalues --  -46.89314 -19.25436 -19.24335 -19.22710 -19.19247
 Alpha  occ. eigenvalues --  -19.19218 -19.18884 -14.41737 -14.41321 -14.39588
 Alpha  occ. eigenvalues --  -14.39112 -10.41723 -10.38797 -10.35916 -10.35725
 Alpha  occ. eigenvalues --  -10.31849 -10.30885 -10.30817 -10.30617 -10.30318
 Alpha  occ. eigenvalues --  -10.30195 -10.30118 -10.29697 -10.28815 -10.28694
 Alpha  occ. eigenvalues --  -10.28594 -10.28472 -10.28338 -10.28022 -10.27836
 Alpha  occ. eigenvalues --  -10.27741 -10.27440 -10.27431 -10.27226 -10.27081
 Alpha  occ. eigenvalues --  -10.27059 -10.26843 -10.26819 -10.26738 -10.26706
 Alpha  occ. eigenvalues --  -10.26481 -10.26099 -10.26046 -10.26032 -10.25937
 Alpha  occ. eigenvalues --  -10.25853 -10.25612 -10.25576 -10.25514 -10.25439
 Alpha  occ. eigenvalues --  -10.25317 -10.25269 -10.25132 -10.25109 -10.25080
 Alpha  occ. eigenvalues --  -10.24901 -10.24803 -10.24762 -10.24708 -10.24589
 Alpha  occ. eigenvalues --  -10.24573 -10.24542 -10.24454 -10.24126 -10.24044
 Alpha  occ. eigenvalues --  -10.24042  -3.17670  -1.92584  -1.92125  -1.91958
 Alpha  occ. eigenvalues --   -1.16293  -1.15398  -1.10430  -1.09331  -1.09219
 Alpha  occ. eigenvalues --   -1.06028  -1.05013  -1.04282  -1.03743  -1.01389
 Alpha  occ. eigenvalues --   -0.91437  -0.91352  -0.90193  -0.90104  -0.88860
 Alpha  occ. eigenvalues --   -0.88133  -0.87802  -0.87504  -0.87196  -0.86522
 Alpha  occ. eigenvalues --   -0.85805  -0.85518  -0.84575  -0.83501  -0.82957
 Alpha  occ. eigenvalues --   -0.82625  -0.81805  -0.81095  -0.80430  -0.79988
 Alpha  occ. eigenvalues --   -0.79772  -0.77736  -0.77672  -0.76558  -0.76366
 Alpha  occ. eigenvalues --   -0.75719  -0.75251  -0.75049  -0.74733  -0.74344
 Alpha  occ. eigenvalues --   -0.73078  -0.72260  -0.70873  -0.70477  -0.68902
 Alpha  occ. eigenvalues --   -0.68528  -0.68328  -0.67098  -0.66780  -0.65561
 Alpha  occ. eigenvalues --   -0.65254  -0.65242  -0.64440  -0.64231  -0.64078
 Alpha  occ. eigenvalues --   -0.63861  -0.63647  -0.62784  -0.61502  -0.60077
 Alpha  occ. eigenvalues --   -0.59806  -0.59314  -0.58866  -0.58302  -0.57616
 Alpha  occ. eigenvalues --   -0.57123  -0.56846  -0.55976  -0.55879  -0.55695
 Alpha  occ. eigenvalues --   -0.55418  -0.54961  -0.54682  -0.54278  -0.53811
 Alpha  occ. eigenvalues --   -0.53682  -0.53629  -0.53539  -0.53269  -0.52945
 Alpha  occ. eigenvalues --   -0.52920  -0.52625  -0.52530  -0.52028  -0.51759
 Alpha  occ. eigenvalues --   -0.51516  -0.50901  -0.50744  -0.50585  -0.50413
 Alpha  occ. eigenvalues --   -0.50290  -0.50245  -0.49983  -0.49761  -0.49726
 Alpha  occ. eigenvalues --   -0.49668  -0.49499  -0.49168  -0.49085  -0.48815
 Alpha  occ. eigenvalues --   -0.48672  -0.48408  -0.47914  -0.47669  -0.47466
 Alpha  occ. eigenvalues --   -0.47259  -0.46993  -0.46794  -0.46651  -0.46508
 Alpha  occ. eigenvalues --   -0.46224  -0.45972  -0.45749  -0.45671  -0.45501
 Alpha  occ. eigenvalues --   -0.45443  -0.45313  -0.45257  -0.44840  -0.44667
 Alpha  occ. eigenvalues --   -0.44593  -0.44450  -0.44331  -0.44196  -0.44141
 Alpha  occ. eigenvalues --   -0.43614  -0.43471  -0.43387  -0.43244  -0.42811
 Alpha  occ. eigenvalues --   -0.42760  -0.42580  -0.42155  -0.42118  -0.41804
 Alpha  occ. eigenvalues --   -0.41563  -0.41335  -0.41266  -0.41016  -0.40879
 Alpha  occ. eigenvalues --   -0.40820  -0.40707  -0.40091  -0.39972  -0.39736
 Alpha  occ. eigenvalues --   -0.39587  -0.39459  -0.39205  -0.38930  -0.38873
 Alpha  occ. eigenvalues --   -0.38509  -0.38298  -0.37711  -0.37478  -0.37308
 Alpha  occ. eigenvalues --   -0.37217  -0.36895  -0.36597  -0.36343  -0.36210
 Alpha  occ. eigenvalues --   -0.35977  -0.35705  -0.35495  -0.34622  -0.34299
 Alpha  occ. eigenvalues --   -0.34047  -0.33473  -0.32657  -0.31323  -0.31091
 Alpha  occ. eigenvalues --   -0.30837  -0.30158  -0.29945  -0.29804  -0.23373
 Alpha  occ. eigenvalues --   -0.20797
 Alpha virt. eigenvalues --   -0.07948  -0.00844   0.00743   0.02231   0.02555
 Alpha virt. eigenvalues --    0.02854   0.05081   0.05557   0.06535   0.07186
 Alpha virt. eigenvalues --    0.08106   0.08149   0.08644   0.09417   0.09488

 Mulliken charges:
               1
     1  Mg   0.826101
     2  C    0.021346
     3  C   -0.090456
     4  C   -0.072596
     5  C   -0.058977
     6  N   -0.263634
     7  C   -0.022022
     8  C   -0.090094
     9  C   -0.045553
    10  C    0.039767
    11  C    0.069555
    12  C    0.096718
    13  C    0.086355
    14  C    0.202190
    15  O   -0.203535
    16  O   -0.365213
    17  N   -0.414539
    18  C    0.172322
    19  C   -0.168903
    20  C   -0.051597
    21  C    0.135471
    22  C    0.093527
    23  C    0.005324
    24  O   -0.198051
    25  C    0.058472
    26  N   -0.204265
    27  C    0.019504
    28  C   -0.004128
    29  C   -0.047237
    30  C    0.005355
    31  C    0.058091
    32  C    0.031117
    33  C    0.015679
    34  N   -0.319837
    35  C    0.062949
    36  C   -0.201098
    37  C    0.045671
    38  C    0.042581
    39  C    0.118554
    40  C    0.103135
    41  O   -0.160310
    42  C   -0.016330
    43  C    0.187700
    44  O   -0.260263
    45  O   -0.318858
    46  C    0.185691
    47  C    0.278239
    48  C   -0.142860
    49  C   -0.183814
    50  C    0.098557
    51  C    0.058010
    52  C    0.043792
    53  C    0.053957
    54  C   -0.152400
    55  C    0.071904
    56  C    0.028561
    57  C    0.019598
    58  C    0.091898
    59  C   -0.141477
    60  C    0.022413
    61  C    0.038405
    62  C    0.004796
    63  C    0.079146
    64  C   -0.143991
    65  C    0.056006
    66  C    0.036713
    67  H   -0.030816
    68  H   -0.001770
    69  H   -0.039880
    70  H    0.049969
    71  H    0.008629
    72  H    0.035146
    73  H    0.010951
    74  H   -0.000824
    75  H    0.005112
    76  H    0.006666
    77  H    0.030668
    78  H    0.018051
    79  H    0.047671
    80  H    0.022282
    81  H    0.015687
    82  H    0.057750
    83  H    0.031660
    84  H    0.025808
    85  H    0.020566
    86  H    0.007186
    87  H    0.009565
    88  H    0.015864
    89  H    0.022510
    90  H    0.014345
    91  H   -0.007312
    92  H    0.011115
    93  H    0.028656
    94  H    0.015921
    95  H    0.001300
    96  H    0.022074
    97  H    0.027146
    98  H    0.041130
    99  H    0.044706
   100  H    0.040440
   101  H    0.034407
   102  H   -0.001936
   103  H    0.030620
   104  H   -0.005838
   105  H    0.030984
   106  H    0.015042
   107  H    0.019613
   108  H   -0.003633
   109  H   -0.003659
   110  H    0.003271
   111  H   -0.001617
   112  H   -0.003665
   113  H   -0.011397
   114  H   -0.002680
   115  H   -0.000912
   116  H    0.020899
   117  H   -0.002405
   118  H   -0.002909
   119  H   -0.005473
   120  H   -0.000125
   121  H   -0.000366
   122  H    0.003765
   123  H   -0.013385
   124  H   -0.007725
   125  H    0.017850
   126  H    0.005116
   127  H   -0.007276
   128  H    0.001290
   129  H   -0.013351
   130  H    0.000040
   131  H   -0.010755
   132  H   -0.015215
   133  H   -0.018698
   134  H    0.001143
   135  H   -0.000020
   136  H    0.008405
   137  H    0.006850
   138  H   -0.000513
   139  H    0.013250
   140  H   -0.010098
 Sum of Mulliken charges =  -0.00000

 Dipole moment (field-independent basis, Debye):
    X=              3.7812    Y=              2.9792    Z=             -3.2608  Tot=              5.8143
 Quadrupole moment (field-independent basis, Debye-Ang):
   XX=           -383.7316   YY=           -420.4779   ZZ=           -403.3320
   XY=            -11.0108   XZ=              3.5964   YZ=             12.1742

 Normal termination of Gaussian 16 at Thu May  5 08:09:40 2022.
