 Gaussian 16, Revision A.03,
 Gaussian 16:  ES64L-G16RevA.03 25-Dec-2016

 ---------------------------------
 #p PBE1PBE/Def2SVP td=(nstates=5)
 ---------------------------------

 ----------------------------------------------------
 step_751_chromophore_3 TDDFT with PBE1PBE functional
 ----------------------------------------------------
 Symbolic Z-matrix:
 Charge =  0 Multiplicity = 1

                         Standard orientation:
 ---------------------------------------------------------------------
 Center     Atomic      Atomic             Coordinates (Angstroms)
 Number     Number       Type             X           Y           Z
 ---------------------------------------------------------------------
      1         12           0       -5.576253    0.561179   -0.343933
      2          6           0       -3.992999   -2.487169   -0.169982
      3          6           0       -2.372339    2.071996   -0.114518
      4          6           0       -7.116880    3.555818    0.220104
      5          6           0       -8.671161   -0.910504    0.293461
      6          7           0       -3.458644   -0.111481   -0.351120
      7          6           0       -3.091196   -1.427602   -0.393478
      8          6           0       -1.605709   -1.609275   -0.581006
      9          6           0       -1.117969   -0.181339   -0.360417
     10          6           0       -2.387363    0.676259   -0.273711
     11          6           0       -0.227910    0.041214    0.815962
     12          6           0       -1.202553   -2.127438   -2.002665
     13          6           0       -0.098704   -3.163864   -1.971416
     14          6           0        1.125153   -2.908570   -1.013784
     15          8           0        1.302092   -3.321311    0.119348
     16          8           0        2.028216   -2.008597   -1.682801
     17          7           0       -4.882043    2.530215   -0.164537
     18          6           0       -3.534788    2.920546   -0.091302
     19          6           0       -3.549358    4.325003    0.170288
     20          6           0       -4.863005    4.850267    0.167209
     21          6           0       -5.713729    3.640231   -0.056781
     22          6           0       -2.221324    5.072229    0.430482
     23          6           0       -5.306985    6.300930    0.388224
     24          8           0       -6.508582    6.525299    0.380669
     25          6           0       -4.274743    7.423129    0.463799
     26          7           0       -7.653906    1.261276    0.226964
     27          6           0       -8.009081    2.486789    0.376935
     28          6           0       -9.480150    2.733396    0.706367
     29          6           0      -10.101279    1.303686    0.463188
     30          6           0       -8.740728    0.444771    0.370508
     31          6           0       -9.685313    3.166074    2.183748
     32          6           0      -10.868965    1.188796   -0.908609
     33          6           0      -12.431012    1.013764   -0.891187
     34          7           0       -6.332252   -1.352796   -0.101390
     35          6           0       -7.529258   -1.785713    0.204154
     36          6           0       -7.449194   -3.255265    0.383551
     37          6           0       -6.134735   -3.585158    0.293214
     38          6           0       -5.449622   -2.389406    0.003942
     39          6           0       -8.652815   -4.126736    0.557435
     40          6           0       -5.106527   -4.665776    0.384717
     41          8           0       -5.197633   -5.834748    0.753742
     42          6           0       -3.701488   -4.016025   -0.006496
     43          6           0       -2.698218   -4.171468    1.059201
     44          8           0       -2.419997   -3.324222    1.940093
     45          8           0       -2.206438   -5.437139    1.030784
     46          6           0       -1.119259   -5.787890    1.937651
     47          6           0        3.292763   -1.804701   -1.046221
     48          6           0        4.469185   -1.415497   -1.997076
     49          6           0        5.726703   -1.850119   -2.116661
     50          6           0        6.537924   -2.805644   -1.180732
     51          6           0        6.476226   -1.395924   -3.315945
     52          6           0        7.161526   -0.102053   -3.164248
     53          6           0        8.670549   -0.202196   -3.472594
     54          6           0        9.519353    0.615561   -2.408875
     55          6           0        9.922787   -0.243837   -1.207873
     56          6           0       10.638610    1.446472   -3.140411
     57          6           0       11.092336    2.677028   -2.264388
     58          6           0       12.458491    2.413155   -1.542766
     59          6           0       12.338470    2.541926    0.020699
     60          6           0       12.989705    3.927410    0.555025
     61          6           0       12.963662    1.396324    0.844565
     62          6           0       12.023937    1.010598    1.976348
     63          6           0       12.582459   -0.118937    2.821708
     64          6           0       12.504449    0.072883    4.330869
     65          6           0       13.717354   -0.614761    5.000126
     66          6           0       11.270077   -0.633961    4.820421
     67          1           0       -1.405553    2.579190   -0.089504
     68          1           0       -7.531741    4.533913    0.472150
     69          1           0       -9.613405   -1.462377    0.311113
     70          1           0       -1.182885   -2.230405    0.209107
     71          1           0       -0.620651    0.247351   -1.230613
     72          1           0       -0.034014   -0.861588    1.393777
     73          1           0       -0.600750    0.793071    1.512584
     74          1           0        0.728958    0.464285    0.510381
     75          1           0       -0.925077   -1.287625   -2.638430
     76          1           0       -2.152575   -2.428859   -2.443875
     77          1           0        0.176874   -3.420017   -2.994501
     78          1           0       -0.594795   -4.081533   -1.655941
     79          1           0       -2.212854    5.212716    1.511672
     80          1           0       -2.209721    5.990487   -0.155645
     81          1           0       -1.299965    4.591485    0.103966
     82          1           0       -3.804118    7.538150   -0.512892
     83          1           0       -3.602294    7.127538    1.270062
     84          1           0       -4.746400    8.359914    0.759863
     85          1           0       -9.963131    3.431220    0.023082
     86          1           0      -10.684851    0.897507    1.289312
     87          1           0       -9.628298    2.292693    2.833465
     88          1           0      -10.649175    3.567388    2.497400
     89          1           0       -8.923419    3.888040    2.476198
     90          1           0      -10.392070    0.455310   -1.558187
     91          1           0      -10.624399    2.152422   -1.355918
     92          1           0      -12.816821    1.284637    0.091629
     93          1           0      -12.594899   -0.017009   -1.202727
     94          1           0      -12.969352    1.710996   -1.532889
     95          1           0       -9.556083   -3.606748    0.238016
     96          1           0       -8.826810   -4.336518    1.612885
     97          1           0       -8.603204   -5.105284    0.079882
     98          1           0       -3.231834   -4.467654   -0.879177
     99          1           0       -0.324371   -5.046737    1.847913
    100          1           0       -0.795529   -6.800145    1.697939
    101          1           0       -1.528143   -5.733534    2.946161
    102          1           0        3.660504   -2.793368   -0.772648
    103          1           0        3.296602   -1.278076   -0.092126
    104          1           0        4.105519   -0.680768   -2.715545
    105          1           0        6.474262   -3.827532   -1.554280
    106          1           0        6.013814   -2.863411   -0.226455
    107          1           0        7.556750   -2.419467   -1.159729
    108          1           0        5.746003   -1.266758   -4.115084
    109          1           0        7.128121   -2.221094   -3.600977
    110          1           0        6.917941    0.240816   -2.158852
    111          1           0        6.628428    0.596627   -3.807801
    112          1           0        8.804476    0.055592   -4.523468
    113          1           0        8.966399   -1.250759   -3.456014
    114          1           0        8.944726    1.441777   -1.990611
    115          1           0        9.355779   -1.175347   -1.192192
    116          1           0        9.935887    0.294311   -0.260140
    117          1           0       10.940347   -0.548197   -1.451350
    118          1           0       10.258236    1.709194   -4.127438
    119          1           0       11.465697    0.748976   -3.271314
    120          1           0       10.396562    2.864168   -1.446977
    121          1           0       11.140249    3.553428   -2.910101
    122          1           0       13.273228    3.039803   -1.905794
    123          1           0       12.625898    1.354824   -1.739336
    124          1           0       11.306222    2.490403    0.366705
    125          1           0       12.327723    4.786129    0.438931
    126          1           0       14.003015    4.149601    0.219736
    127          1           0       13.274630    3.830321    1.602825
    128          1           0       13.949877    1.751704    1.143032
    129          1           0       12.985933    0.522590    0.193247
    130          1           0       11.010126    0.805920    1.633858
    131          1           0       11.958283    1.900581    2.600707
    132          1           0       13.568660   -0.386258    2.443265
    133          1           0       12.059845   -1.040215    2.562620
    134          1           0       12.435578    1.074782    4.754303
    135          1           0       13.389293   -1.612403    5.290219
    136          1           0       13.975456   -0.019368    5.876093
    137          1           0       14.556056   -0.733654    4.314591
    138          1           0       11.014002   -0.165091    5.770675
    139          1           0       11.292534   -1.723875    4.808355
    140          1           0       10.370187   -0.433664    4.239370
 ---------------------------------------------------------------------

 SCF Done:  E(RPBE1PBE) =  -3005.35234016     A.U. after   15 cycles

 Excitation energies and oscillator strengths:

 Excited State   1:      Singlet-A      1.9149 eV  647.48 nm  f=0.3728  <S**2>=0.000
     245 -> 248        0.17126
     246 -> 247        0.69132
 This state for optimization and/or second-order correction.
 Total Energy, E(TD-HF/TD-DFT) =  -3005.28197021
 Copying the excited state density for this state as the 1-particle RhoCI density.

 Excited State   2:      Singlet-A      2.2742 eV  545.18 nm  f=0.1283  <S**2>=0.000
     245 -> 247        0.65697
     246 -> 248       -0.24681

 Excited State   3:      Singlet-A      3.1995 eV  387.51 nm  f=0.0031  <S**2>=0.000
     241 -> 247       -0.26403
     244 -> 247        0.62773
     246 -> 248        0.11670

 Excited State   4:      Singlet-A      3.2510 eV  381.37 nm  f=0.0023  <S**2>=0.000
     241 -> 247        0.61145
     244 -> 247        0.27951

 Excited State   5:      Singlet-A      3.3645 eV  368.51 nm  f=0.0052  <S**2>=0.000
     240 -> 247        0.56357
     240 -> 249        0.21692
     242 -> 247       -0.28795
     246 -> 249        0.17893

 The electronic state is 1-A.
 Alpha  occ. eigenvalues --  -46.92720 -19.26164 -19.25082 -19.22966 -19.19705
 Alpha  occ. eigenvalues --  -19.19269 -19.19190 -14.41270 -14.40730 -14.39165
 Alpha  occ. eigenvalues --  -14.38902 -10.38816 -10.35908 -10.33333 -10.32613
 Alpha  occ. eigenvalues --  -10.29258 -10.28285 -10.28125 -10.28112 -10.28108
 Alpha  occ. eigenvalues --  -10.27654 -10.27639 -10.27618 -10.26829 -10.26473
 Alpha  occ. eigenvalues --  -10.26385 -10.26336 -10.26041 -10.25776 -10.25741
 Alpha  occ. eigenvalues --  -10.25484 -10.25125 -10.24912 -10.24831 -10.24829
 Alpha  occ. eigenvalues --  -10.24652 -10.24637 -10.24290 -10.24241 -10.24219
 Alpha  occ. eigenvalues --  -10.23892 -10.23792 -10.23757 -10.23666 -10.23626
 Alpha  occ. eigenvalues --  -10.23593 -10.23079 -10.23064 -10.23044 -10.22983
 Alpha  occ. eigenvalues --  -10.22924 -10.22821 -10.22767 -10.22697 -10.22674
 Alpha  occ. eigenvalues --  -10.22670 -10.22471 -10.22304 -10.22232 -10.22128
 Alpha  occ. eigenvalues --  -10.22073 -10.22006 -10.22002 -10.21678 -10.21442
 Alpha  occ. eigenvalues --  -10.21432  -3.14661  -1.87514  -1.87033  -1.86872
 Alpha  occ. eigenvalues --   -1.11092  -1.10271  -1.04906  -1.04320  -1.04123
 Alpha  occ. eigenvalues --   -1.00923  -0.99715  -0.99026  -0.98559  -0.95790
 Alpha  occ. eigenvalues --   -0.85937  -0.85513  -0.84397  -0.84274  -0.82958
 Alpha  occ. eigenvalues --   -0.82382  -0.82035  -0.81637  -0.81568  -0.80610
 Alpha  occ. eigenvalues --   -0.80292  -0.79790  -0.78742  -0.77877  -0.77144
 Alpha  occ. eigenvalues --   -0.76819  -0.75921  -0.75310  -0.74717  -0.74294
 Alpha  occ. eigenvalues --   -0.73951  -0.72074  -0.71816  -0.70930  -0.70546
 Alpha  occ. eigenvalues --   -0.70069  -0.69338  -0.69231  -0.69040  -0.68509
 Alpha  occ. eigenvalues --   -0.67430  -0.66777  -0.65270  -0.64832  -0.63407
 Alpha  occ. eigenvalues --   -0.63011  -0.62592  -0.61407  -0.61013  -0.59939
 Alpha  occ. eigenvalues --   -0.59697  -0.59454  -0.58905  -0.58668  -0.58447
 Alpha  occ. eigenvalues --   -0.58353  -0.57819  -0.56983  -0.56182  -0.54534
 Alpha  occ. eigenvalues --   -0.54245  -0.53841  -0.53441  -0.53005  -0.52254
 Alpha  occ. eigenvalues --   -0.51621  -0.51395  -0.50558  -0.50308  -0.50266
 Alpha  occ. eigenvalues --   -0.49969  -0.49447  -0.49072  -0.48759  -0.48446
 Alpha  occ. eigenvalues --   -0.48238  -0.48081  -0.47917  -0.47670  -0.47563
 Alpha  occ. eigenvalues --   -0.47363  -0.47131  -0.47000  -0.46673  -0.46320
 Alpha  occ. eigenvalues --   -0.46042  -0.45281  -0.45264  -0.45184  -0.45127
 Alpha  occ. eigenvalues --   -0.44923  -0.44891  -0.44544  -0.44377  -0.44281
 Alpha  occ. eigenvalues --   -0.44161  -0.44080  -0.43865  -0.43611  -0.43406
 Alpha  occ. eigenvalues --   -0.43215  -0.43043  -0.42542  -0.42254  -0.42002
 Alpha  occ. eigenvalues --   -0.41851  -0.41646  -0.41404  -0.41306  -0.41217
 Alpha  occ. eigenvalues --   -0.40819  -0.40716  -0.40408  -0.40359  -0.40348
 Alpha  occ. eigenvalues --   -0.40201  -0.40139  -0.40009  -0.39637  -0.39425
 Alpha  occ. eigenvalues --   -0.39318  -0.39197  -0.39097  -0.39014  -0.38942
 Alpha  occ. eigenvalues --   -0.38402  -0.38306  -0.38260  -0.38088  -0.37562
 Alpha  occ. eigenvalues --   -0.37443  -0.37311  -0.36974  -0.36852  -0.36661
 Alpha  occ. eigenvalues --   -0.36381  -0.36208  -0.36032  -0.35826  -0.35797
 Alpha  occ. eigenvalues --   -0.35661  -0.35468  -0.34996  -0.34659  -0.34519
 Alpha  occ. eigenvalues --   -0.34382  -0.34342  -0.34138  -0.33884  -0.33715
 Alpha  occ. eigenvalues --   -0.33279  -0.33215  -0.32485  -0.32360  -0.32298
 Alpha  occ. eigenvalues --   -0.32131  -0.31769  -0.31535  -0.31319  -0.31054
 Alpha  occ. eigenvalues --   -0.31023  -0.30656  -0.30535  -0.29574  -0.29297
 Alpha  occ. eigenvalues --   -0.29256  -0.28460  -0.28162  -0.26694  -0.26019
 Alpha  occ. eigenvalues --   -0.25843  -0.25694  -0.25408  -0.25319  -0.20298
 Alpha  occ. eigenvalues --   -0.18371
 Alpha virt. eigenvalues --   -0.10472  -0.04447  -0.03638  -0.02047  -0.01789
 Alpha virt. eigenvalues --   -0.00310   0.00377   0.01040   0.02407   0.03318
 Alpha virt. eigenvalues --    0.04423   0.04714   0.04802   0.05836   0.05978

 Mulliken charges:
               1
     1  Mg   0.967420
     2  C    0.009480
     3  C   -0.078117
     4  C   -0.067104
     5  C   -0.063376
     6  N   -0.373397
     7  C    0.045697
     8  C   -0.170301
     9  C   -0.117428
    10  C    0.078986
    11  C    0.013720
    12  C    0.053982
    13  C    0.007049
    14  C    0.259744
    15  O   -0.237101
    16  O   -0.393196
    17  N   -0.523705
    18  C    0.197117
    19  C   -0.202799
    20  C   -0.100391
    21  C    0.177590
    22  C    0.032072
    23  C    0.053532
    24  O   -0.236424
    25  C   -0.016538
    26  N   -0.307393
    27  C    0.050539
    28  C   -0.085115
    29  C   -0.115663
    30  C    0.042904
    31  C    0.005118
    32  C   -0.023914
    33  C   -0.057379
    34  N   -0.450354
    35  C    0.102094
    36  C   -0.232331
    37  C   -0.004079
    38  C    0.098027
    39  C    0.068358
    40  C    0.202849
    41  O   -0.202680
    42  C   -0.117516
    43  C    0.273523
    44  O   -0.291012
    45  O   -0.352489
    46  C    0.130144
    47  C    0.238915
    48  C   -0.149535
    49  C   -0.228485
    50  C    0.023886
    51  C   -0.011701
    52  C   -0.012190
    53  C   -0.004417
    54  C   -0.234190
    55  C    0.000811
    56  C   -0.028809
    57  C   -0.042466
    58  C    0.037215
    59  C   -0.221899
    60  C   -0.036759
    61  C   -0.021273
    62  C   -0.062272
    63  C    0.027395
    64  C   -0.244651
    65  C   -0.001557
    66  C   -0.022016
    67  H    0.001205
    68  H    0.030145
    69  H   -0.006101
    70  H    0.092495
    71  H    0.045491
    72  H    0.060771
    73  H    0.039049
    74  H    0.026996
    75  H    0.037378
    76  H    0.039419
    77  H    0.061915
    78  H    0.053015
    79  H    0.074771
    80  H    0.049400
    81  H    0.040975
    82  H    0.083102
    83  H    0.058883
    84  H    0.052806
    85  H    0.054851
    86  H    0.042010
    87  H    0.036267
    88  H    0.043055
    89  H    0.050975
    90  H    0.046300
    91  H    0.027318
    92  H    0.038690
    93  H    0.055465
    94  H    0.043949
    95  H    0.029822
    96  H    0.052322
    97  H    0.055824
    98  H    0.078166
    99  H    0.067996
   100  H    0.062254
   101  H    0.056908
   102  H    0.027861
   103  H    0.056827
   104  H    0.024221
   105  H    0.058957
   106  H    0.042741
   107  H    0.055096
   108  H    0.030232
   109  H    0.029237
   110  H    0.036385
   111  H    0.031018
   112  H    0.027758
   113  H    0.020761
   114  H    0.036780
   115  H    0.033885
   116  H    0.051654
   117  H    0.025550
   118  H    0.029729
   119  H    0.027230
   120  H    0.031733
   121  H    0.032752
   122  H    0.035152
   123  H    0.019723
   124  H    0.029097
   125  H    0.045972
   126  H    0.032168
   127  H    0.020104
   128  H    0.033912
   129  H    0.022149
   130  H    0.033883
   131  H    0.024286
   132  H    0.016196
   133  H    0.014683
   134  H    0.037019
   135  H    0.027243
   136  H    0.036272
   137  H    0.034014
   138  H    0.028394
   139  H    0.039606
   140  H    0.019685
 Sum of Mulliken charges =  -0.00000

 Dipole moment (field-independent basis, Debye):
    X=              3.5815    Y=              2.2670    Z=             -3.2535  Tot=              5.3433
 Quadrupole moment (field-independent basis, Debye-Ang):
   XX=           -375.7535   YY=           -419.0194   ZZ=           -400.7202
   XY=             -7.2523   XZ=              3.4367   YZ=             11.9203

 Normal termination of Gaussian 16 at Thu May  5 08:32:11 2022.
