 Gaussian 16, Revision A.03,
 Gaussian 16:  ES64L-G16RevA.03 25-Dec-2016

 --------------------------------
 #p wB97XD/Def2SVP td=(nstates=5)
 --------------------------------

 ---------------------------------------------------
 step_751_chromophore_3 TDDFT with wB97XD functional
 ---------------------------------------------------
 Symbolic Z-matrix:
 Charge =  0 Multiplicity = 1

                         Standard orientation:
 ---------------------------------------------------------------------
 Center     Atomic      Atomic             Coordinates (Angstroms)
 Number     Number       Type             X           Y           Z
 ---------------------------------------------------------------------
      1         12           0       -5.576253    0.561179   -0.343933
      2          6           0       -3.992999   -2.487169   -0.169982
      3          6           0       -2.372339    2.071996   -0.114518
      4          6           0       -7.116880    3.555818    0.220104
      5          6           0       -8.671161   -0.910504    0.293461
      6          7           0       -3.458644   -0.111481   -0.351120
      7          6           0       -3.091196   -1.427602   -0.393478
      8          6           0       -1.605709   -1.609275   -0.581006
      9          6           0       -1.117969   -0.181339   -0.360417
     10          6           0       -2.387363    0.676259   -0.273711
     11          6           0       -0.227910    0.041214    0.815962
     12          6           0       -1.202553   -2.127438   -2.002665
     13          6           0       -0.098704   -3.163864   -1.971416
     14          6           0        1.125153   -2.908570   -1.013784
     15          8           0        1.302092   -3.321311    0.119348
     16          8           0        2.028216   -2.008597   -1.682801
     17          7           0       -4.882043    2.530215   -0.164537
     18          6           0       -3.534788    2.920546   -0.091302
     19          6           0       -3.549358    4.325003    0.170288
     20          6           0       -4.863005    4.850267    0.167209
     21          6           0       -5.713729    3.640231   -0.056781
     22          6           0       -2.221324    5.072229    0.430482
     23          6           0       -5.306985    6.300930    0.388224
     24          8           0       -6.508582    6.525299    0.380669
     25          6           0       -4.274743    7.423129    0.463799
     26          7           0       -7.653906    1.261276    0.226964
     27          6           0       -8.009081    2.486789    0.376935
     28          6           0       -9.480150    2.733396    0.706367
     29          6           0      -10.101279    1.303686    0.463188
     30          6           0       -8.740728    0.444771    0.370508
     31          6           0       -9.685313    3.166074    2.183748
     32          6           0      -10.868965    1.188796   -0.908609
     33          6           0      -12.431012    1.013764   -0.891187
     34          7           0       -6.332252   -1.352796   -0.101390
     35          6           0       -7.529258   -1.785713    0.204154
     36          6           0       -7.449194   -3.255265    0.383551
     37          6           0       -6.134735   -3.585158    0.293214
     38          6           0       -5.449622   -2.389406    0.003942
     39          6           0       -8.652815   -4.126736    0.557435
     40          6           0       -5.106527   -4.665776    0.384717
     41          8           0       -5.197633   -5.834748    0.753742
     42          6           0       -3.701488   -4.016025   -0.006496
     43          6           0       -2.698218   -4.171468    1.059201
     44          8           0       -2.419997   -3.324222    1.940093
     45          8           0       -2.206438   -5.437139    1.030784
     46          6           0       -1.119259   -5.787890    1.937651
     47          6           0        3.292763   -1.804701   -1.046221
     48          6           0        4.469185   -1.415497   -1.997076
     49          6           0        5.726703   -1.850119   -2.116661
     50          6           0        6.537924   -2.805644   -1.180732
     51          6           0        6.476226   -1.395924   -3.315945
     52          6           0        7.161526   -0.102053   -3.164248
     53          6           0        8.670549   -0.202196   -3.472594
     54          6           0        9.519353    0.615561   -2.408875
     55          6           0        9.922787   -0.243837   -1.207873
     56          6           0       10.638610    1.446472   -3.140411
     57          6           0       11.092336    2.677028   -2.264388
     58          6           0       12.458491    2.413155   -1.542766
     59          6           0       12.338470    2.541926    0.020699
     60          6           0       12.989705    3.927410    0.555025
     61          6           0       12.963662    1.396324    0.844565
     62          6           0       12.023937    1.010598    1.976348
     63          6           0       12.582459   -0.118937    2.821708
     64          6           0       12.504449    0.072883    4.330869
     65          6           0       13.717354   -0.614761    5.000126
     66          6           0       11.270077   -0.633961    4.820421
     67          1           0       -1.405553    2.579190   -0.089504
     68          1           0       -7.531741    4.533913    0.472150
     69          1           0       -9.613405   -1.462377    0.311113
     70          1           0       -1.182885   -2.230405    0.209107
     71          1           0       -0.620651    0.247351   -1.230613
     72          1           0       -0.034014   -0.861588    1.393777
     73          1           0       -0.600750    0.793071    1.512584
     74          1           0        0.728958    0.464285    0.510381
     75          1           0       -0.925077   -1.287625   -2.638430
     76          1           0       -2.152575   -2.428859   -2.443875
     77          1           0        0.176874   -3.420017   -2.994501
     78          1           0       -0.594795   -4.081533   -1.655941
     79          1           0       -2.212854    5.212716    1.511672
     80          1           0       -2.209721    5.990487   -0.155645
     81          1           0       -1.299965    4.591485    0.103966
     82          1           0       -3.804118    7.538150   -0.512892
     83          1           0       -3.602294    7.127538    1.270062
     84          1           0       -4.746400    8.359914    0.759863
     85          1           0       -9.963131    3.431220    0.023082
     86          1           0      -10.684851    0.897507    1.289312
     87          1           0       -9.628298    2.292693    2.833465
     88          1           0      -10.649175    3.567388    2.497400
     89          1           0       -8.923419    3.888040    2.476198
     90          1           0      -10.392070    0.455310   -1.558187
     91          1           0      -10.624399    2.152422   -1.355918
     92          1           0      -12.816821    1.284637    0.091629
     93          1           0      -12.594899   -0.017009   -1.202727
     94          1           0      -12.969352    1.710996   -1.532889
     95          1           0       -9.556083   -3.606748    0.238016
     96          1           0       -8.826810   -4.336518    1.612885
     97          1           0       -8.603204   -5.105284    0.079882
     98          1           0       -3.231834   -4.467654   -0.879177
     99          1           0       -0.324371   -5.046737    1.847913
    100          1           0       -0.795529   -6.800145    1.697939
    101          1           0       -1.528143   -5.733534    2.946161
    102          1           0        3.660504   -2.793368   -0.772648
    103          1           0        3.296602   -1.278076   -0.092126
    104          1           0        4.105519   -0.680768   -2.715545
    105          1           0        6.474262   -3.827532   -1.554280
    106          1           0        6.013814   -2.863411   -0.226455
    107          1           0        7.556750   -2.419467   -1.159729
    108          1           0        5.746003   -1.266758   -4.115084
    109          1           0        7.128121   -2.221094   -3.600977
    110          1           0        6.917941    0.240816   -2.158852
    111          1           0        6.628428    0.596627   -3.807801
    112          1           0        8.804476    0.055592   -4.523468
    113          1           0        8.966399   -1.250759   -3.456014
    114          1           0        8.944726    1.441777   -1.990611
    115          1           0        9.355779   -1.175347   -1.192192
    116          1           0        9.935887    0.294311   -0.260140
    117          1           0       10.940347   -0.548197   -1.451350
    118          1           0       10.258236    1.709194   -4.127438
    119          1           0       11.465697    0.748976   -3.271314
    120          1           0       10.396562    2.864168   -1.446977
    121          1           0       11.140249    3.553428   -2.910101
    122          1           0       13.273228    3.039803   -1.905794
    123          1           0       12.625898    1.354824   -1.739336
    124          1           0       11.306222    2.490403    0.366705
    125          1           0       12.327723    4.786129    0.438931
    126          1           0       14.003015    4.149601    0.219736
    127          1           0       13.274630    3.830321    1.602825
    128          1           0       13.949877    1.751704    1.143032
    129          1           0       12.985933    0.522590    0.193247
    130          1           0       11.010126    0.805920    1.633858
    131          1           0       11.958283    1.900581    2.600707
    132          1           0       13.568660   -0.386258    2.443265
    133          1           0       12.059845   -1.040215    2.562620
    134          1           0       12.435578    1.074782    4.754303
    135          1           0       13.389293   -1.612403    5.290219
    136          1           0       13.975456   -0.019368    5.876093
    137          1           0       14.556056   -0.733654    4.314591
    138          1           0       11.014002   -0.165091    5.770675
    139          1           0       11.292534   -1.723875    4.808355
    140          1           0       10.370187   -0.433664    4.239370
 ---------------------------------------------------------------------

 SCF Done:  E(RwB97XD) =  -3007.86491831     A.U. after   19 cycles

 Excitation energies and oscillator strengths:

 Excited State   1:      Singlet-A      1.7594 eV  704.71 nm  f=0.3791  <S**2>=0.000
     245 -> 248        0.17972
     246 -> 247        0.68367
     245 <- 248        0.10857
 This state for optimization and/or second-order correction.
 Total Energy, E(TD-HF/TD-DFT) =  -3007.80026311
 Copying the excited state density for this state as the 1-particle RhoCI density.

 Excited State   2:      Singlet-A      2.2226 eV  557.83 nm  f=0.1364  <S**2>=0.000
     245 -> 247        0.64627
     246 -> 248       -0.26666

 Excited State   3:      Singlet-A      3.4738 eV  356.91 nm  f=0.0636  <S**2>=0.000
     242 -> 247        0.58134
     244 -> 247       -0.19129
     246 -> 248        0.28705

 Excited State   4:      Singlet-A      3.7089 eV  334.28 nm  f=0.7280  <S**2>=0.000
     240 -> 247       -0.10602
     242 -> 247       -0.20825
     244 -> 247        0.21258
     245 -> 247        0.26777
     246 -> 248        0.55495
     245 <- 247       -0.10314

 Excited State   5:      Singlet-A      3.7108 eV  334.12 nm  f=0.0207  <S**2>=0.000
     239 -> 247        0.33860
     239 -> 248       -0.12129
     239 -> 249       -0.17602
     239 -> 250       -0.17857
     240 -> 247        0.40936
     240 -> 248       -0.13671
     240 -> 249       -0.19979
     240 -> 250       -0.20277

 The electronic state is 1-A.
 Alpha  occ. eigenvalues --  -46.95652 -19.30670 -19.29520 -19.27595 -19.24337
 Alpha  occ. eigenvalues --  -19.24218 -19.23796 -14.46309 -14.45910 -14.44256
 Alpha  occ. eigenvalues --  -14.43625 -10.45559 -10.42597 -10.39899 -10.39764
 Alpha  occ. eigenvalues --  -10.35721 -10.35064 -10.34690 -10.34509 -10.34491
 Alpha  occ. eigenvalues --  -10.34253 -10.34100 -10.33686 -10.32715 -10.32708
 Alpha  occ. eigenvalues --  -10.32606 -10.32593 -10.32282 -10.32140 -10.31902
 Alpha  occ. eigenvalues --  -10.31803 -10.31643 -10.31386 -10.31228 -10.31162
 Alpha  occ. eigenvalues --  -10.31096 -10.30805 -10.30743 -10.30715 -10.30694
 Alpha  occ. eigenvalues --  -10.30519 -10.30036 -10.30034 -10.30000 -10.29946
 Alpha  occ. eigenvalues --  -10.29874 -10.29633 -10.29458 -10.29424 -10.29407
 Alpha  occ. eigenvalues --  -10.29200 -10.29175 -10.29044 -10.29030 -10.28935
 Alpha  occ. eigenvalues --  -10.28848 -10.28680 -10.28675 -10.28670 -10.28491
 Alpha  occ. eigenvalues --  -10.28468 -10.28442 -10.28385 -10.28045 -10.27860
 Alpha  occ. eigenvalues --  -10.27858  -3.21474  -1.95072  -1.94591  -1.94428
 Alpha  occ. eigenvalues --   -1.18428  -1.17538  -1.12709  -1.11523  -1.11421
 Alpha  occ. eigenvalues --   -1.08161  -1.07018  -1.06279  -1.05737  -1.03514
 Alpha  occ. eigenvalues --   -0.93346  -0.93164  -0.91975  -0.91924  -0.90637
 Alpha  occ. eigenvalues --   -0.90028  -0.89738  -0.89295  -0.89113  -0.88515
 Alpha  occ. eigenvalues --   -0.87677  -0.87435  -0.86413  -0.85419  -0.84817
 Alpha  occ. eigenvalues --   -0.84490  -0.83745  -0.83020  -0.82344  -0.81923
 Alpha  occ. eigenvalues --   -0.81620  -0.79733  -0.79564  -0.78469  -0.78216
 Alpha  occ. eigenvalues --   -0.77627  -0.77034  -0.76898  -0.76675  -0.76180
 Alpha  occ. eigenvalues --   -0.75005  -0.74219  -0.72836  -0.72416  -0.70829
 Alpha  occ. eigenvalues --   -0.70503  -0.70219  -0.69114  -0.68655  -0.67457
 Alpha  occ. eigenvalues --   -0.67227  -0.67106  -0.66381  -0.66109  -0.66048
 Alpha  occ. eigenvalues --   -0.65850  -0.65477  -0.64630  -0.63469  -0.61987
 Alpha  occ. eigenvalues --   -0.61823  -0.61259  -0.60863  -0.60287  -0.59605
 Alpha  occ. eigenvalues --   -0.59025  -0.58777  -0.57932  -0.57754  -0.57655
 Alpha  occ. eigenvalues --   -0.57317  -0.56920  -0.56577  -0.56173  -0.55744
 Alpha  occ. eigenvalues --   -0.55581  -0.55494  -0.55389  -0.55239  -0.54886
 Alpha  occ. eigenvalues --   -0.54849  -0.54524  -0.54476  -0.53934  -0.53631
 Alpha  occ. eigenvalues --   -0.53418  -0.52902  -0.52631  -0.52486  -0.52312
 Alpha  occ. eigenvalues --   -0.52203  -0.52133  -0.51932  -0.51690  -0.51632
 Alpha  occ. eigenvalues --   -0.51599  -0.51395  -0.51104  -0.51051  -0.50691
 Alpha  occ. eigenvalues --   -0.50530  -0.50285  -0.49836  -0.49548  -0.49423
 Alpha  occ. eigenvalues --   -0.49237  -0.48886  -0.48733  -0.48541  -0.48411
 Alpha  occ. eigenvalues --   -0.48058  -0.47892  -0.47620  -0.47573  -0.47402
 Alpha  occ. eigenvalues --   -0.47334  -0.47191  -0.47165  -0.46779  -0.46563
 Alpha  occ. eigenvalues --   -0.46482  -0.46392  -0.46253  -0.46129  -0.46090
 Alpha  occ. eigenvalues --   -0.45519  -0.45433  -0.45330  -0.45155  -0.44838
 Alpha  occ. eigenvalues --   -0.44710  -0.44450  -0.44102  -0.43993  -0.43702
 Alpha  occ. eigenvalues --   -0.43489  -0.43232  -0.43153  -0.42911  -0.42803
 Alpha  occ. eigenvalues --   -0.42685  -0.42566  -0.42002  -0.41796  -0.41599
 Alpha  occ. eigenvalues --   -0.41427  -0.41369  -0.41088  -0.40810  -0.40750
 Alpha  occ. eigenvalues --   -0.40351  -0.40204  -0.39550  -0.39359  -0.39225
 Alpha  occ. eigenvalues --   -0.39153  -0.38772  -0.38578  -0.38328  -0.38068
 Alpha  occ. eigenvalues --   -0.37960  -0.37606  -0.37475  -0.36451  -0.36179
 Alpha  occ. eigenvalues --   -0.36043  -0.35351  -0.34893  -0.33368  -0.33272
 Alpha  occ. eigenvalues --   -0.32796  -0.32183  -0.32166  -0.31929  -0.25320
 Alpha  occ. eigenvalues --   -0.22639
 Alpha virt. eigenvalues --   -0.06283   0.01072   0.02808   0.04404   0.05064
 Alpha virt. eigenvalues --    0.05649   0.07269   0.07790   0.09079   0.09832
 Alpha virt. eigenvalues --    0.10747   0.11317   0.11547   0.12554   0.12620

 Mulliken charges:
               1
     1  Mg   0.959837
     2  C    0.010236
     3  C   -0.102827
     4  C   -0.081920
     5  C   -0.070575
     6  N   -0.336686
     7  C    0.016162
     8  C   -0.131234
     9  C   -0.094517
    10  C    0.070508
    11  C    0.022190
    12  C    0.059165
    13  C    0.029575
    14  C    0.246331
    15  O   -0.232646
    16  O   -0.392950
    17  N   -0.496190
    18  C    0.193546
    19  C   -0.188741
    20  C   -0.091779
    21  C    0.165657
    22  C    0.045399
    23  C    0.049858
    24  O   -0.229293
    25  C   -0.003806
    26  N   -0.271750
    27  C    0.040758
    28  C   -0.059003
    29  C   -0.093098
    30  C    0.025825
    31  C    0.013160
    32  C   -0.011204
    33  C   -0.040364
    34  N   -0.410073
    35  C    0.083295
    36  C   -0.225732
    37  C    0.001389
    38  C    0.074977
    39  C    0.078796
    40  C    0.180718
    41  O   -0.195916
    42  C   -0.085357
    43  C    0.254640
    44  O   -0.286992
    45  O   -0.350806
    46  C    0.144757
    47  C    0.256791
    48  C   -0.164635
    49  C   -0.212471
    50  C    0.047194
    51  C    0.009887
    52  C   -0.000980
    53  C    0.013129
    54  C   -0.203059
    55  C    0.024458
    56  C   -0.010433
    57  C   -0.026348
    58  C    0.056011
    59  C   -0.192157
    60  C   -0.023469
    61  C   -0.001813
    62  C   -0.037768
    63  C    0.041275
    64  C   -0.212929
    65  C    0.009511
    66  C   -0.011602
    67  H   -0.005767
    68  H    0.024402
    69  H   -0.013679
    70  H    0.064390
    71  H    0.034326
    72  H    0.058471
    73  H    0.032123
    74  H    0.021916
    75  H    0.029781
    76  H    0.031786
    77  H    0.058143
    78  H    0.044676
    79  H    0.071062
    80  H    0.043737
    81  H    0.039441
    82  H    0.079371
    83  H    0.052428
    84  H    0.052954
    85  H    0.046922
    86  H    0.032648
    87  H    0.030434
    88  H    0.039034
    89  H    0.044350
    90  H    0.038496
    91  H    0.016123
    92  H    0.031725
    93  H    0.050039
    94  H    0.038164
    95  H    0.021493
    96  H    0.045226
    97  H    0.050236
    98  H    0.070607
    99  H    0.063831
   100  H    0.059149
   101  H    0.052739
   102  H    0.017520
   103  H    0.052760
   104  H    0.020572
   105  H    0.053999
   106  H    0.037190
   107  H    0.040654
   108  H    0.022726
   109  H    0.019833
   110  H    0.024204
   111  H    0.025029
   112  H    0.021237
   113  H    0.009472
   114  H    0.020666
   115  H    0.022729
   116  H    0.039322
   117  H    0.016043
   118  H    0.022356
   119  H    0.016089
   120  H    0.019370
   121  H    0.027064
   122  H    0.029191
   123  H    0.002799
   124  H    0.011029
   125  H    0.040890
   126  H    0.025722
   127  H    0.012322
   128  H    0.025324
   129  H    0.009138
   130  H    0.022148
   131  H    0.010611
   132  H    0.006165
   133  H    0.005819
   134  H    0.027937
   135  H    0.020033
   136  H    0.031317
   137  H    0.028123
   138  H    0.022782
   139  H    0.032961
   140  H    0.012163
 Sum of Mulliken charges =  -0.00000

 Dipole moment (field-independent basis, Debye):
    X=              3.8661    Y=              3.2319    Z=             -3.2765  Tot=              6.0106
 Quadrupole moment (field-independent basis, Debye-Ang):
   XX=           -379.0389   YY=           -416.0720   ZZ=           -400.3514
   XY=            -11.9578   XZ=              3.7588   YZ=             12.3573

 Normal termination of Gaussian 16 at Thu May  5 09:02:20 2022.
