 Gaussian 16, Revision A.03,
 Gaussian 16:  ES64L-G16RevA.03 25-Dec-2016

 --------------------
 #p ZINDO=(nstates=5)
 --------------------

 ----------------------------
 step_751_chromophore_3 ZINDO
 ----------------------------
 Symbolic Z-matrix:
 Charge =  0 Multiplicity = 1

                         Standard orientation:
 ---------------------------------------------------------------------
 Center     Atomic      Atomic             Coordinates (Angstroms)
 Number     Number       Type             X           Y           Z
 ---------------------------------------------------------------------
      1         12           0       -5.576253    0.561179   -0.343933
      2          6           0       -3.992999   -2.487169   -0.169982
      3          6           0       -2.372339    2.071996   -0.114518
      4          6           0       -7.116880    3.555818    0.220104
      5          6           0       -8.671161   -0.910504    0.293461
      6          7           0       -3.458644   -0.111481   -0.351120
      7          6           0       -3.091196   -1.427602   -0.393478
      8          6           0       -1.605709   -1.609275   -0.581006
      9          6           0       -1.117969   -0.181339   -0.360417
     10          6           0       -2.387363    0.676259   -0.273711
     11          6           0       -0.227910    0.041214    0.815962
     12          6           0       -1.202553   -2.127438   -2.002665
     13          6           0       -0.098704   -3.163864   -1.971416
     14          6           0        1.125153   -2.908570   -1.013784
     15          8           0        1.302092   -3.321311    0.119348
     16          8           0        2.028216   -2.008597   -1.682801
     17          7           0       -4.882043    2.530215   -0.164537
     18          6           0       -3.534788    2.920546   -0.091302
     19          6           0       -3.549358    4.325003    0.170288
     20          6           0       -4.863005    4.850267    0.167209
     21          6           0       -5.713729    3.640231   -0.056781
     22          6           0       -2.221324    5.072229    0.430482
     23          6           0       -5.306985    6.300930    0.388224
     24          8           0       -6.508582    6.525299    0.380669
     25          6           0       -4.274743    7.423129    0.463799
     26          7           0       -7.653906    1.261276    0.226964
     27          6           0       -8.009081    2.486789    0.376935
     28          6           0       -9.480150    2.733396    0.706367
     29          6           0      -10.101279    1.303686    0.463188
     30          6           0       -8.740728    0.444771    0.370508
     31          6           0       -9.685313    3.166074    2.183748
     32          6           0      -10.868965    1.188796   -0.908609
     33          6           0      -12.431012    1.013764   -0.891187
     34          7           0       -6.332252   -1.352796   -0.101390
     35          6           0       -7.529258   -1.785713    0.204154
     36          6           0       -7.449194   -3.255265    0.383551
     37          6           0       -6.134735   -3.585158    0.293214
     38          6           0       -5.449622   -2.389406    0.003942
     39          6           0       -8.652815   -4.126736    0.557435
     40          6           0       -5.106527   -4.665776    0.384717
     41          8           0       -5.197633   -5.834748    0.753742
     42          6           0       -3.701488   -4.016025   -0.006496
     43          6           0       -2.698218   -4.171468    1.059201
     44          8           0       -2.419997   -3.324222    1.940093
     45          8           0       -2.206438   -5.437139    1.030784
     46          6           0       -1.119259   -5.787890    1.937651
     47          6           0        3.292763   -1.804701   -1.046221
     48          6           0        4.469185   -1.415497   -1.997076
     49          6           0        5.726703   -1.850119   -2.116661
     50          6           0        6.537924   -2.805644   -1.180732
     51          6           0        6.476226   -1.395924   -3.315945
     52          6           0        7.161526   -0.102053   -3.164248
     53          6           0        8.670549   -0.202196   -3.472594
     54          6           0        9.519353    0.615561   -2.408875
     55          6           0        9.922787   -0.243837   -1.207873
     56          6           0       10.638610    1.446472   -3.140411
     57          6           0       11.092336    2.677028   -2.264388
     58          6           0       12.458491    2.413155   -1.542766
     59          6           0       12.338470    2.541926    0.020699
     60          6           0       12.989705    3.927410    0.555025
     61          6           0       12.963662    1.396324    0.844565
     62          6           0       12.023937    1.010598    1.976348
     63          6           0       12.582459   -0.118937    2.821708
     64          6           0       12.504449    0.072883    4.330869
     65          6           0       13.717354   -0.614761    5.000126
     66          6           0       11.270077   -0.633961    4.820421
     67          1           0       -1.405553    2.579190   -0.089504
     68          1           0       -7.531741    4.533913    0.472150
     69          1           0       -9.613405   -1.462377    0.311113
     70          1           0       -1.182885   -2.230405    0.209107
     71          1           0       -0.620651    0.247351   -1.230613
     72          1           0       -0.034014   -0.861588    1.393777
     73          1           0       -0.600750    0.793071    1.512584
     74          1           0        0.728958    0.464285    0.510381
     75          1           0       -0.925077   -1.287625   -2.638430
     76          1           0       -2.152575   -2.428859   -2.443875
     77          1           0        0.176874   -3.420017   -2.994501
     78          1           0       -0.594795   -4.081533   -1.655941
     79          1           0       -2.212854    5.212716    1.511672
     80          1           0       -2.209721    5.990487   -0.155645
     81          1           0       -1.299965    4.591485    0.103966
     82          1           0       -3.804118    7.538150   -0.512892
     83          1           0       -3.602294    7.127538    1.270062
     84          1           0       -4.746400    8.359914    0.759863
     85          1           0       -9.963131    3.431220    0.023082
     86          1           0      -10.684851    0.897507    1.289312
     87          1           0       -9.628298    2.292693    2.833465
     88          1           0      -10.649175    3.567388    2.497400
     89          1           0       -8.923419    3.888040    2.476198
     90          1           0      -10.392070    0.455310   -1.558187
     91          1           0      -10.624399    2.152422   -1.355918
     92          1           0      -12.816821    1.284637    0.091629
     93          1           0      -12.594899   -0.017009   -1.202727
     94          1           0      -12.969352    1.710996   -1.532889
     95          1           0       -9.556083   -3.606748    0.238016
     96          1           0       -8.826810   -4.336518    1.612885
     97          1           0       -8.603204   -5.105284    0.079882
     98          1           0       -3.231834   -4.467654   -0.879177
     99          1           0       -0.324371   -5.046737    1.847913
    100          1           0       -0.795529   -6.800145    1.697939
    101          1           0       -1.528143   -5.733534    2.946161
    102          1           0        3.660504   -2.793368   -0.772648
    103          1           0        3.296602   -1.278076   -0.092126
    104          1           0        4.105519   -0.680768   -2.715545
    105          1           0        6.474262   -3.827532   -1.554280
    106          1           0        6.013814   -2.863411   -0.226455
    107          1           0        7.556750   -2.419467   -1.159729
    108          1           0        5.746003   -1.266758   -4.115084
    109          1           0        7.128121   -2.221094   -3.600977
    110          1           0        6.917941    0.240816   -2.158852
    111          1           0        6.628428    0.596627   -3.807801
    112          1           0        8.804476    0.055592   -4.523468
    113          1           0        8.966399   -1.250759   -3.456014
    114          1           0        8.944726    1.441777   -1.990611
    115          1           0        9.355779   -1.175347   -1.192192
    116          1           0        9.935887    0.294311   -0.260140
    117          1           0       10.940347   -0.548197   -1.451350
    118          1           0       10.258236    1.709194   -4.127438
    119          1           0       11.465697    0.748976   -3.271314
    120          1           0       10.396562    2.864168   -1.446977
    121          1           0       11.140249    3.553428   -2.910101
    122          1           0       13.273228    3.039803   -1.905794
    123          1           0       12.625898    1.354824   -1.739336
    124          1           0       11.306222    2.490403    0.366705
    125          1           0       12.327723    4.786129    0.438931
    126          1           0       14.003015    4.149601    0.219736
    127          1           0       13.274630    3.830321    1.602825
    128          1           0       13.949877    1.751704    1.143032
    129          1           0       12.985933    0.522590    0.193247
    130          1           0       11.010126    0.805920    1.633858
    131          1           0       11.958283    1.900581    2.600707
    132          1           0       13.568660   -0.386258    2.443265
    133          1           0       12.059845   -1.040215    2.562620
    134          1           0       12.435578    1.074782    4.754303
    135          1           0       13.389293   -1.612403    5.290219
    136          1           0       13.975456   -0.019368    5.876093
    137          1           0       14.556056   -0.733654    4.314591
    138          1           0       11.014002   -0.165091    5.770675
    139          1           0       11.292534   -1.723875    4.808355
    140          1           0       10.370187   -0.433664    4.239370
 ---------------------------------------------------------------------

 SCF Done:  E(RZINDO/S) =  -474.250583688     A.U. after   19 cycles

 Excitation energies and oscillator strengths:

 Excited State   1:      Singlet-A      1.3381 eV  926.58 nm  f=0.5393  <S**2>=0.000
     175 ->178         0.16800
     176 ->177         0.67039
 This state for optimization and/or second-order correction.
 Total Energy, E(CIS/TDA) =  -474.201410166
 Copying the excited state density for this state as the 1-particle RhoCI density.

 Excited State   2:      Singlet-A      1.9517 eV  635.27 nm  f=0.0672  <S**2>=0.000
     175 ->177         0.56122
     176 ->178        -0.39070

 Excited State   3:      Singlet-A      2.9631 eV  418.42 nm  f=0.0366  <S**2>=0.000
     167 ->177        -0.11307
     167 ->179         0.15078
     167 ->181        -0.11003
     168 ->177        -0.29783
     168 ->178         0.18412
     168 ->179         0.36585
     168 ->181        -0.25728
     168 ->186        -0.17626
     168 ->188         0.12675
     176 ->178         0.10332

 Excited State   4:      Singlet-A      2.9779 eV  416.34 nm  f=0.4669  <S**2>=0.000
     175 ->177        -0.23685
     176 ->178        -0.30581
     176 ->179         0.45967
     176 ->181         0.26626
     176 ->183         0.10511

 Excited State   5:      Singlet-A      3.0827 eV  402.20 nm  f=0.7294  <S**2>=0.000
     171 ->177         0.11417
     175 ->177         0.27198
     176 ->178         0.45409
     176 ->179         0.37763
     176 ->181         0.12652

 The electronic state is 1-A.
 Alpha  occ. eigenvalues --   -1.84277  -1.81755  -1.79766  -1.71865  -1.71700
 Alpha  occ. eigenvalues --   -1.69659  -1.66381  -1.63037  -1.58921  -1.57687
 Alpha  occ. eigenvalues --   -1.55932  -1.51433  -1.49414  -1.47835  -1.45613
 Alpha  occ. eigenvalues --   -1.44343  -1.41366  -1.39269  -1.39105  -1.38661
 Alpha  occ. eigenvalues --   -1.35752  -1.32790  -1.32482  -1.31709  -1.28897
 Alpha  occ. eigenvalues --   -1.26206  -1.24288  -1.22302  -1.20036  -1.17740
 Alpha  occ. eigenvalues --   -1.16618  -1.15911  -1.15100  -1.14904  -1.12767
 Alpha  occ. eigenvalues --   -1.12144  -1.11009  -1.09707  -1.04392  -1.03000
 Alpha  occ. eigenvalues --   -1.01838  -1.01364  -0.99208  -0.96673  -0.96181
 Alpha  occ. eigenvalues --   -0.95175  -0.94776  -0.94370  -0.93405  -0.92314
 Alpha  occ. eigenvalues --   -0.91094  -0.90853  -0.89214  -0.88206  -0.87135
 Alpha  occ. eigenvalues --   -0.85882  -0.84640  -0.83130  -0.82259  -0.80918
 Alpha  occ. eigenvalues --   -0.80296  -0.78750  -0.77238  -0.76594  -0.76204
 Alpha  occ. eigenvalues --   -0.75344  -0.74742  -0.74550  -0.73814  -0.73374
 Alpha  occ. eigenvalues --   -0.72956  -0.72440  -0.71497  -0.70577  -0.70103
 Alpha  occ. eigenvalues --   -0.69672  -0.69338  -0.68891  -0.68380  -0.67932
 Alpha  occ. eigenvalues --   -0.67641  -0.67243  -0.66713  -0.66234  -0.65584
 Alpha  occ. eigenvalues --   -0.65425  -0.64853  -0.64377  -0.63887  -0.63415
 Alpha  occ. eigenvalues --   -0.63109  -0.62870  -0.62331  -0.62074  -0.61714
 Alpha  occ. eigenvalues --   -0.61388  -0.61049  -0.60560  -0.60439  -0.59980
 Alpha  occ. eigenvalues --   -0.59172  -0.59156  -0.58999  -0.58337  -0.58212
 Alpha  occ. eigenvalues --   -0.58128  -0.57599  -0.57007  -0.56883  -0.56593
 Alpha  occ. eigenvalues --   -0.56429  -0.55972  -0.55490  -0.55025  -0.54535
 Alpha  occ. eigenvalues --   -0.54333  -0.54077  -0.53177  -0.52776  -0.52656
 Alpha  occ. eigenvalues --   -0.52310  -0.51544  -0.51462  -0.51157  -0.51040
 Alpha  occ. eigenvalues --   -0.50942  -0.50769  -0.50466  -0.50236  -0.49400
 Alpha  occ. eigenvalues --   -0.49238  -0.49098  -0.48906  -0.48701  -0.48382
 Alpha  occ. eigenvalues --   -0.48227  -0.48124  -0.47748  -0.47641  -0.47419
 Alpha  occ. eigenvalues --   -0.47042  -0.46831  -0.46546  -0.46289  -0.46137
 Alpha  occ. eigenvalues --   -0.46091  -0.45701  -0.45693  -0.45326  -0.45202
 Alpha  occ. eigenvalues --   -0.45111  -0.44914  -0.44713  -0.44506  -0.43462
 Alpha  occ. eigenvalues --   -0.43347  -0.42968  -0.42756  -0.42140  -0.42084
 Alpha  occ. eigenvalues --   -0.41662  -0.41302  -0.40108  -0.40087  -0.38187
 Alpha  occ. eigenvalues --   -0.37674  -0.36761  -0.35916  -0.34931  -0.34170
 Alpha  occ. eigenvalues --   -0.33721  -0.32304  -0.32240  -0.31606  -0.26085
 Alpha  occ. eigenvalues --   -0.21495
 Alpha virt. eigenvalues --   -0.07790  -0.01320  -0.00111   0.00979   0.01297
 Alpha virt. eigenvalues --    0.02002   0.03173   0.03570   0.04861   0.05016
 Alpha virt. eigenvalues --    0.06678   0.06706   0.07422   0.07615   0.08036

 Mulliken charges:
               1
     1  Mg   0.427394
     2  C   -0.047984
     3  C   -0.097352
     4  C   -0.080421
     5  C   -0.057259
     6  N   -0.271942
     7  C    0.097725
     8  C    0.001194
     9  C    0.013552
    10  C    0.171687
    11  C   -0.046304
    12  C   -0.019061
    13  C    0.012716
    14  C    0.468187
    15  O   -0.481979
    16  O   -0.279227
    17  N   -0.341168
    18  C    0.126431
    19  C    0.024211
    20  C   -0.037227
    21  C    0.144258
    22  C   -0.053055
    23  C    0.330042
    24  O   -0.511032
    25  C   -0.026361
    26  N   -0.255735
    27  C    0.191694
    28  C    0.012846
    29  C   -0.008271
    30  C    0.076075
    31  C   -0.051817
    32  C   -0.038967
    33  C   -0.059802
    34  N   -0.282188
    35  C    0.073080
    36  C    0.004250
    37  C   -0.045312
    38  C    0.058341
    39  C   -0.042171
    40  C    0.339284
    41  O   -0.511497
    42  C    0.054469
    43  C    0.491959
    44  O   -0.542881
    45  O   -0.263960
    46  C    0.076028
    47  C    0.092969
    48  C   -0.096508
    49  C    0.002352
    50  C   -0.047074
    51  C   -0.015587
    52  C   -0.025828
    53  C   -0.035793
    54  C   -0.019201
    55  C   -0.057021
    56  C   -0.039758
    57  C   -0.041343
    58  C   -0.039853
    59  C   -0.028443
    60  C   -0.071677
    61  C   -0.034984
    62  C   -0.032362
    63  C   -0.029700
    64  C   -0.006662
    65  C   -0.062927
    66  C   -0.054470
    67  H    0.033752
    68  H    0.038662
    69  H    0.018362
    70  H    0.056455
    71  H    0.024736
    72  H    0.034697
    73  H    0.017738
    74  H    0.010501
    75  H    0.020767
    76  H    0.024992
    77  H    0.036100
    78  H    0.029538
    79  H    0.038045
    80  H    0.024154
    81  H    0.027028
    82  H    0.047810
    83  H    0.037006
    84  H    0.036550
    85  H    0.039888
    86  H    0.035428
    87  H    0.018562
    88  H    0.022089
    89  H    0.023448
    90  H    0.027332
    91  H    0.013147
    92  H    0.021234
    93  H    0.027505
    94  H    0.021036
    95  H    0.016260
    96  H    0.027039
    97  H    0.029919
    98  H    0.058313
    99  H    0.048654
   100  H    0.036854
   101  H    0.045104
   102  H    0.028334
   103  H    0.056678
   104  H    0.018873
   105  H    0.032195
   106  H    0.024920
   107  H    0.037244
   108  H    0.012773
   109  H    0.018774
   110  H    0.020315
   111  H    0.017370
   112  H    0.020871
   113  H    0.017918
   114  H    0.014086
   115  H    0.023143
   116  H    0.028779
   117  H    0.013761
   118  H    0.021622
   119  H    0.018947
   120  H    0.026038
   121  H    0.018313
   122  H    0.029019
   123  H    0.021275
   124  H    0.025650
   125  H    0.020864
   126  H    0.022123
   127  H    0.010402
   128  H    0.030691
   129  H    0.013693
   130  H    0.025468
   131  H    0.011696
   132  H    0.013806
   133  H    0.011066
   134  H    0.030067
   135  H    0.019902
   136  H    0.017785
   137  H    0.020101
   138  H    0.010678
   139  H    0.026256
   140  H    0.001210
 Sum of Mulliken charges =  -0.00000

 Dipole moment (field-independent basis, Debye):
    X=              6.1451    Y=              6.0368    Z=             -4.8218  Tot=              9.8719
 N-N= 4.284644138856D+03 E-N= 0.000000000000D+00  KE=-9.244180216081D+03
 Leave Link  601 at Thu May  5 09:14:13 2022, MaxMem=  6710886400 cpu:               0.8 elap:               0.0
 (Enter /sw/apps/gaussian-16.0/g16/l9999.exe)
 1\1\GINC-BP1-COMPUTE067\SP\RZINDO CIS\STO-3G\C55H74Mg1N4O6\OF15641\05-
 May-2022\0\\#p ZINDO=(nstates=5)\\step_751_chromophore_3 ZINDO\\0,1\Mg
 ,0,1.525,8.19,26.753\C,0,2.017,10.036,29.613\C,0,2.243,5.294,28.676\C,
 0,1.769,6.417,23.845\C,0,1.679,11.054,24.772\N,0,1.877,7.707,28.893\C,
 0,1.922,8.655,29.877\C,0,1.983,8.054,31.259\C,0,2.251,6.592,30.918\C,0
 ,2.112,6.495,29.393\C,0,3.552,6.03,31.384\C,0,0.657,8.206,32.078\C,0,0
 .889,8.548,33.535\C,0,2.028,7.776,34.301\O,0,3.183,8.117,34.489\O,0,1.

 Normal termination of Gaussian 16 at Thu May  5 09:14:13 2022.
