 Gaussian 16, Revision A.03,
 Gaussian 16:  ES64L-G16RevA.03 25-Dec-2016

 ------------------------------
 #p blyp/Def2SVP td=(nstates=5)
 ------------------------------

 --------------------------------------------------
 step_801_chromophore_12 TDDFT with blyp functional
 --------------------------------------------------
 Symbolic Z-matrix:
 Charge =  0 Multiplicity = 1

                         Standard orientation:
 ---------------------------------------------------------------------
 Center     Atomic      Atomic             Coordinates (Angstroms)
 Number     Number       Type             X           Y           Z
 ---------------------------------------------------------------------
      1         12           0        4.370004    0.983769   -0.016229
      2          6           0        4.064214   -2.467095   -0.211158
      3          6           0        1.029636    1.221617   -0.671008
      4          6           0        4.802253    4.358730    0.086008
      5          6           0        7.855512    0.561057    0.156212
      6          7           0        2.695740   -0.450764   -0.143760
      7          6           0        2.819137   -1.781925   -0.171553
      8          6           0        1.425893   -2.471470   -0.156741
      9          6           0        0.531642   -1.290974   -0.616706
     10          6           0        1.446874   -0.083179   -0.432667
     11          6           0       -0.291053   -1.458733   -2.023190
     12          6           0        1.139494   -3.267432    1.186407
     13          6           0        0.377548   -4.555588    1.134246
     14          6           0       -0.851565   -4.809477    1.997439
     15          8           0       -0.693203   -5.284616    3.105466
     16          8           0       -2.052049   -4.670433    1.286028
     17          7           0        3.078176    2.526109   -0.235951
     18          6           0        1.713813    2.415170   -0.595024
     19          6           0        1.219836    3.747359   -0.896852
     20          6           0        2.281103    4.661816   -0.654479
     21          6           0        3.465856    3.883071   -0.204567
     22          6           0       -0.231949    3.916792   -1.301253
     23          6           0        2.318349    6.166182   -0.848303
     24          8           0        3.361933    6.758514   -0.816529
     25          6           0        1.070562    6.982458   -1.004857
     26          7           0        6.088418    2.300737    0.031401
     27          6           0        5.950372    3.672800    0.336758
     28          6           0        7.301621    4.187116    1.001823
     29          6           0        8.275505    2.950687    0.940575
     30          6           0        7.342838    1.859443    0.373573
     31          6           0        7.943103    5.452878    0.481377
     32          6           0        8.935881    2.573472    2.347392
     33          6           0       10.393401    2.464965    2.428386
     34          7           0        5.722855   -0.609167   -0.115657
     35          6           0        7.097406   -0.623560   -0.027399
     36          6           0        7.554436   -1.987541   -0.157101
     37          6           0        6.423548   -2.754282   -0.272454
     38          6           0        5.328336   -1.881013   -0.187373
     39          6           0        8.932982   -2.335872   -0.135653
     40          6           0        5.794561   -4.095417   -0.440050
     41          8           0        6.406127   -5.182163   -0.570720
     42          6           0        4.303394   -3.905592   -0.366686
     43          6           0        3.750563   -4.417493   -1.679997
     44          8           0        3.759873   -3.922751   -2.771565
     45          8           0        3.248520   -5.678150   -1.418433
     46          6           0        2.463364   -6.295703   -2.467181
     47          6           0       -3.200843   -5.100381    2.122181
     48          6           0       -4.344451   -4.944971    1.151075
     49          6           0       -5.408852   -4.098000    1.201789
     50          6           0       -5.643190   -3.113227    2.298519
     51          6           0       -6.488068   -4.108042    0.088861
     52          6           0       -7.363836   -2.872122   -0.172106
     53          6           0       -8.127022   -2.938755   -1.537296
     54          6           0       -9.431488   -2.063471   -1.595561
     55          6           0       -9.829974   -1.975215   -3.051839
     56          6           0       -9.367017   -0.661661   -0.933363
     57          6           0      -10.220347   -0.374452    0.366952
     58          6           0      -10.917676    0.946589    0.324841
     59          6           0      -10.358527    1.884103    1.426259
     60          6           0      -10.965633    1.560590    2.792313
     61          6           0      -10.653994    3.324163    1.071985
     62          6           0       -9.475985    4.356904    1.286899
     63          6           0       -9.113663    5.101154   -0.030085
     64          6           0       -7.633088    4.874978   -0.573418
     65          6           0       -6.537553    5.757102    0.192805
     66          6           0       -7.367737    5.120525   -2.104006
     67          1           0       -0.031153    1.344515   -0.895618
     68          1           0        5.038306    5.419836    0.184713
     69          1           0        8.923555    0.484316    0.371997
     70          1           0        1.419073   -3.224527   -0.944163
     71          1           0       -0.229467   -1.309454    0.162539
     72          1           0       -0.293147   -2.539003   -2.166107
     73          1           0        0.265205   -0.884930   -2.764713
     74          1           0       -1.216018   -0.920213   -1.817419
     75          1           0        0.496139   -2.675568    1.837051
     76          1           0        2.058451   -3.515321    1.718406
     77          1           0        1.053993   -5.364134    1.411554
     78          1           0        0.190054   -4.726712    0.074602
     79          1           0       -0.881181    3.741830   -0.442244
     80          1           0       -0.378308    3.177547   -2.088430
     81          1           0       -0.361868    4.913361   -1.722172
     82          1           0        1.167711    8.053623   -0.830624
     83          1           0        0.384486    6.619745   -0.239709
     84          1           0        0.635528    6.886548   -2.000165
     85          1           0        6.983554    4.328852    2.033674
     86          1           0        9.152177    3.104043    0.310882
     87          1           0        8.195832    6.120783    1.305930
     88          1           0        7.252861    6.115997   -0.039730
     89          1           0        8.916999    5.283162    0.022014
     90          1           0        8.447556    1.713203    2.805809
     91          1           0        8.618110    3.391059    2.994387
     92          1           0       10.879897    3.329057    2.880992
     93          1           0       10.886967    2.343467    1.463316
     94          1           0       10.758979    1.636687    3.034285
     95          1           0        9.076227   -3.325047    0.298858
     96          1           0        9.334538   -1.552938    0.507054
     97          1           0        9.374172   -2.405853   -1.129633
     98          1           0        4.013889   -4.652946    0.372306
     99          1           0        3.123082   -6.405539   -3.327363
    100          1           0        1.569955   -5.745560   -2.765249
    101          1           0        2.269389   -7.331032   -2.187540
    102          1           0       -3.279767   -4.391403    2.947382
    103          1           0       -3.168620   -6.132493    2.471566
    104          1           0       -4.540234   -5.769973    0.465548
    105          1           0       -4.835450   -2.959848    3.013565
    106          1           0       -6.362217   -3.593877    2.961046
    107          1           0       -6.063482   -2.145112    2.026712
    108          1           0       -7.135815   -4.958929    0.301557
    109          1           0       -6.051693   -4.210453   -0.904755
    110          1           0       -6.763906   -1.961656   -0.189792
    111          1           0       -8.067747   -2.628478    0.623668
    112          1           0       -8.307118   -3.965564   -1.854229
    113          1           0       -7.408830   -2.447461   -2.193905
    114          1           0      -10.220999   -2.574164   -1.044759
    115          1           0       -9.226484   -2.679351   -3.625134
    116          1           0       -9.694301   -1.007637   -3.534543
    117          1           0      -10.840753   -2.350237   -3.217726
    118          1           0       -9.735295    0.043276   -1.679269
    119          1           0       -8.345824   -0.333256   -0.738937
    120          1           0       -9.588818   -0.450667    1.252439
    121          1           0      -11.040437   -1.085506    0.461469
    122          1           0      -11.972457    0.754980    0.525348
    123          1           0      -10.849673    1.427839   -0.651029
    124          1           0       -9.299395    1.671523    1.575693
    125          1           0      -11.719522    0.777571    2.705035
    126          1           0      -11.478077    2.304786    3.402728
    127          1           0      -10.107423    1.190156    3.352973
    128          1           0      -11.382427    3.704411    1.787916
    129          1           0      -11.080568    3.486016    0.082002
    130          1           0       -8.604626    3.836281    1.684402
    131          1           0       -9.654623    5.047951    2.110505
    132          1           0       -9.264933    6.170925    0.107705
    133          1           0       -9.960532    4.864621   -0.673748
    134          1           0       -7.408348    3.826624   -0.383116
    135          1           0       -5.741473    6.145325   -0.443338
    136          1           0       -6.036660    5.144850    0.942133
    137          1           0       -7.056265    6.532157    0.755278
    138          1           0       -6.720894    5.942973   -2.412024
    139          1           0       -8.250624    5.144863   -2.743396
    140          1           0       -6.792349    4.248770   -2.416434
 ---------------------------------------------------------------------

 SCF Done:  E(RB-LYP) =  -3007.35682193     A.U. after   20 cycles

 Excitation energies and oscillator strengths:

 Excited State   1:      Singlet-A      1.7996 eV  688.95 nm  f=0.2499  <S**2>=0.000
     244 -> 247       -0.19138
     245 -> 248        0.18566
     246 -> 247        0.65883
     246 <- 247       -0.13872
 This state for optimization and/or second-order correction.
 Total Energy, E(TD-HF/TD-DFT) =  -3007.29068788
 Copying the excited state density for this state as the 1-particle RhoCI density.

 Excited State   2:      Singlet-A      1.9340 eV  641.09 nm  f=0.0432  <S**2>=0.000
     244 -> 247        0.63045
     245 -> 247       -0.23465
     246 -> 247        0.18765

 Excited State   3:      Singlet-A      2.0064 eV  617.95 nm  f=0.0087  <S**2>=0.000
     243 -> 247        0.70066

 Excited State   4:      Singlet-A      2.0616 eV  601.41 nm  f=0.0555  <S**2>=0.000
     244 -> 247        0.24934
     245 -> 247        0.59180
     246 -> 248       -0.27396

 Excited State   5:      Singlet-A      2.4251 eV  511.24 nm  f=0.0010  <S**2>=0.000
     241 -> 247        0.40699
     242 -> 247        0.57780

 The electronic state is 1-A.
 Alpha  occ. eigenvalues --  -46.26429 -18.82390 -18.81655 -18.77403 -18.77385
 Alpha  occ. eigenvalues --  -18.75506 -18.75178 -14.03342 -14.02709 -14.01052
 Alpha  occ. eigenvalues --  -14.00425 -10.04118 -10.04036  -9.99789  -9.99482
 Alpha  occ. eigenvalues --   -9.98121  -9.97504  -9.96734  -9.96543  -9.96433
 Alpha  occ. eigenvalues --   -9.96292  -9.96041  -9.95260  -9.95126  -9.94333
 Alpha  occ. eigenvalues --   -9.94157  -9.94074  -9.94014  -9.93919  -9.93890
 Alpha  occ. eigenvalues --   -9.93889  -9.93646  -9.93545  -9.93425  -9.93297
 Alpha  occ. eigenvalues --   -9.93207  -9.93173  -9.92777  -9.92761  -9.92723
 Alpha  occ. eigenvalues --   -9.92720  -9.92643  -9.92582  -9.92537  -9.92438
 Alpha  occ. eigenvalues --   -9.92415  -9.92175  -9.92070  -9.91971  -9.91967
 Alpha  occ. eigenvalues --   -9.91829  -9.91763  -9.91742  -9.91698  -9.91582
 Alpha  occ. eigenvalues --   -9.91539  -9.91393  -9.91334  -9.91296  -9.91282
 Alpha  occ. eigenvalues --   -9.91028  -9.90930  -9.90880  -9.90783  -9.90777
 Alpha  occ. eigenvalues --   -9.90597  -2.91098  -1.71539  -1.70977  -1.70804
 Alpha  occ. eigenvalues --   -0.98267  -0.97241  -0.92623  -0.90745  -0.90508
 Alpha  occ. eigenvalues --   -0.89725  -0.87486  -0.86321  -0.84000  -0.82956
 Alpha  occ. eigenvalues --   -0.76636  -0.73910  -0.73411  -0.72862  -0.72306
 Alpha  occ. eigenvalues --   -0.72011  -0.71716  -0.71164  -0.70576  -0.70444
 Alpha  occ. eigenvalues --   -0.69788  -0.69170  -0.68274  -0.67958  -0.67402
 Alpha  occ. eigenvalues --   -0.67052  -0.66078  -0.65319  -0.65165  -0.64804
 Alpha  occ. eigenvalues --   -0.64636  -0.62591  -0.62180  -0.61945  -0.60959
 Alpha  occ. eigenvalues --   -0.60830  -0.59870  -0.59817  -0.59721  -0.59184
 Alpha  occ. eigenvalues --   -0.58203  -0.57646  -0.56756  -0.55819  -0.54451
 Alpha  occ. eigenvalues --   -0.54238  -0.53792  -0.52596  -0.52331  -0.51650
 Alpha  occ. eigenvalues --   -0.51264  -0.51166  -0.50586  -0.50279  -0.50272
 Alpha  occ. eigenvalues --   -0.49577  -0.49565  -0.49327  -0.48593  -0.46578
 Alpha  occ. eigenvalues --   -0.46523  -0.46138  -0.45493  -0.45088  -0.44938
 Alpha  occ. eigenvalues --   -0.44229  -0.43961  -0.43426  -0.42841  -0.42368
 Alpha  occ. eigenvalues --   -0.41921  -0.41866  -0.41643  -0.41491  -0.41412
 Alpha  occ. eigenvalues --   -0.41027  -0.40888  -0.40658  -0.40367  -0.40020
 Alpha  occ. eigenvalues --   -0.39742  -0.39636  -0.39627  -0.39519  -0.39476
 Alpha  occ. eigenvalues --   -0.39280  -0.39162  -0.38868  -0.38704  -0.38450
 Alpha  occ. eigenvalues --   -0.38289  -0.38179  -0.38021  -0.37680  -0.37490
 Alpha  occ. eigenvalues --   -0.37457  -0.37186  -0.36977  -0.36852  -0.36601
 Alpha  occ. eigenvalues --   -0.36282  -0.36093  -0.36010  -0.35942  -0.35672
 Alpha  occ. eigenvalues --   -0.35623  -0.35413  -0.35117  -0.35032  -0.34609
 Alpha  occ. eigenvalues --   -0.34539  -0.34439  -0.34353  -0.34055  -0.33853
 Alpha  occ. eigenvalues --   -0.33728  -0.33509  -0.33488  -0.33350  -0.33222
 Alpha  occ. eigenvalues --   -0.33157  -0.32648  -0.32528  -0.32295  -0.32062
 Alpha  occ. eigenvalues --   -0.31878  -0.31851  -0.31769  -0.31569  -0.31468
 Alpha  occ. eigenvalues --   -0.31273  -0.31172  -0.30970  -0.30883  -0.30681
 Alpha  occ. eigenvalues --   -0.30615  -0.30476  -0.30393  -0.29654  -0.29506
 Alpha  occ. eigenvalues --   -0.29470  -0.29421  -0.29251  -0.29030  -0.28920
 Alpha  occ. eigenvalues --   -0.28787  -0.28686  -0.28408  -0.28129  -0.28024
 Alpha  occ. eigenvalues --   -0.27682  -0.27645  -0.27367  -0.26914  -0.26774
 Alpha  occ. eigenvalues --   -0.26211  -0.26017  -0.25875  -0.25627  -0.25580
 Alpha  occ. eigenvalues --   -0.25560  -0.25075  -0.24879  -0.24401  -0.23787
 Alpha  occ. eigenvalues --   -0.23271  -0.22721  -0.22561  -0.21924  -0.20686
 Alpha  occ. eigenvalues --   -0.20250  -0.20204  -0.18545  -0.18349  -0.17295
 Alpha  occ. eigenvalues --   -0.15624
 Alpha virt. eigenvalues --   -0.11311  -0.06849  -0.06054  -0.04600  -0.03875
 Alpha virt. eigenvalues --   -0.02696  -0.02267  -0.01736  -0.01043   0.00291
 Alpha virt. eigenvalues --    0.01023   0.01322   0.01763   0.02200   0.02928

 Mulliken charges:
               1
     1  Mg   0.683239
     2  C    0.091567
     3  C   -0.077242
     4  C   -0.023086
     5  C   -0.062263
     6  N   -0.164340
     7  C   -0.119350
     8  C   -0.009736
     9  C    0.005440
    10  C    0.035806
    11  C    0.137018
    12  C    0.136320
    13  C    0.138765
    14  C    0.076880
    15  O   -0.190247
    16  O   -0.286013
    17  N   -0.359703
    18  C    0.149240
    19  C   -0.152135
    20  C    0.029660
    21  C    0.131559
    22  C    0.187275
    23  C   -0.085123
    24  O   -0.144893
    25  C    0.123179
    26  N   -0.242325
    27  C   -0.008274
    28  C    0.071348
    29  C   -0.016128
    30  C    0.028733
    31  C    0.143285
    32  C    0.097693
    33  C    0.068818
    34  N   -0.240093
    35  C    0.113348
    36  C   -0.203854
    37  C    0.148760
    38  C    0.023546
    39  C    0.170987
    40  C   -0.086532
    41  O   -0.157164
    42  C    0.093798
    43  C    0.081406
    44  O   -0.145560
    45  O   -0.278860
    46  C    0.225712
    47  C    0.328982
    48  C   -0.085072
    49  C   -0.145786
    50  C    0.152851
    51  C    0.122679
    52  C    0.022553
    53  C    0.084099
    54  C   -0.066017
    55  C    0.123940
    56  C    0.103060
    57  C    0.079629
    58  C    0.093295
    59  C   -0.090230
    60  C    0.102234
    61  C    0.128006
    62  C    0.045884
    63  C    0.104040
    64  C   -0.061480
    65  C    0.083738
    66  C    0.082877
    67  H   -0.075667
    68  H   -0.044077
    69  H   -0.060734
    70  H   -0.026070
    71  H   -0.034634
    72  H    0.013763
    73  H    0.003532
    74  H    0.008322
    75  H   -0.022118
    76  H   -0.008485
    77  H   -0.003073
    78  H   -0.029471
    79  H    0.015951
    80  H    0.004318
    81  H   -0.028372
    82  H   -0.012133
    83  H   -0.000054
    84  H    0.021854
    85  H   -0.014552
    86  H   -0.018006
    87  H   -0.032344
    88  H    0.004369
    89  H   -0.006721
    90  H   -0.019524
    91  H   -0.034380
    92  H   -0.012821
    93  H   -0.012784
    94  H   -0.013683
    95  H   -0.003801
    96  H   -0.005562
    97  H    0.012721
    98  H   -0.000056
    99  H    0.005675
   100  H    0.012995
   101  H    0.011371
   102  H   -0.014224
   103  H    0.010900
   104  H   -0.039483
   105  H   -0.025685
   106  H   -0.006630
   107  H   -0.001549
   108  H   -0.005702
   109  H   -0.010127
   110  H   -0.024443
   111  H   -0.030926
   112  H   -0.016695
   113  H   -0.030554
   114  H   -0.039918
   115  H   -0.034353
   116  H   -0.010863
   117  H   -0.019882
   118  H   -0.042265
   119  H   -0.038806
   120  H   -0.021501
   121  H   -0.039956
   122  H   -0.036491
   123  H   -0.027054
   124  H   -0.031415
   125  H   -0.025076
   126  H   -0.011156
   127  H   -0.020668
   128  H   -0.040906
   129  H   -0.029923
   130  H   -0.043066
   131  H   -0.035809
   132  H   -0.038835
   133  H   -0.041603
   134  H   -0.026045
   135  H   -0.006758
   136  H   -0.022132
   137  H   -0.010811
   138  H   -0.011261
   139  H   -0.018739
   140  H   -0.025079
 Sum of Mulliken charges =  -0.00000

 Dipole moment (field-independent basis, Debye):
    X=             -5.0595    Y=              2.0485    Z=              1.5629  Tot=              5.6779
 Quadrupole moment (field-independent basis, Debye-Ang):
   XX=           -375.4012   YY=           -430.9537   ZZ=           -412.0999
   XY=             30.6657   XZ=             18.1492   YZ=             12.5429

 Normal termination of Gaussian 16 at Sat Apr 30 16:09:08 2022.
