 Gaussian 16, Revision A.03,
 Gaussian 16:  ES64L-G16RevA.03 25-Dec-2016

 -----------------------------------
 #p cam-b3lyp/Def2SVP td=(nstates=5)
 -----------------------------------

 -------------------------------------------------------
 step_801_chromophore_12 TDDFT with cam-b3lyp functional
 -------------------------------------------------------
 Symbolic Z-matrix:
 Charge =  0 Multiplicity = 1

                         Standard orientation:
 ---------------------------------------------------------------------
 Center     Atomic      Atomic             Coordinates (Angstroms)
 Number     Number       Type             X           Y           Z
 ---------------------------------------------------------------------
      1         12           0        4.370004    0.983769   -0.016229
      2          6           0        4.064214   -2.467095   -0.211158
      3          6           0        1.029636    1.221617   -0.671008
      4          6           0        4.802253    4.358730    0.086008
      5          6           0        7.855512    0.561057    0.156212
      6          7           0        2.695740   -0.450764   -0.143760
      7          6           0        2.819137   -1.781925   -0.171553
      8          6           0        1.425893   -2.471470   -0.156741
      9          6           0        0.531642   -1.290974   -0.616706
     10          6           0        1.446874   -0.083179   -0.432667
     11          6           0       -0.291053   -1.458733   -2.023190
     12          6           0        1.139494   -3.267432    1.186407
     13          6           0        0.377548   -4.555588    1.134246
     14          6           0       -0.851565   -4.809477    1.997439
     15          8           0       -0.693203   -5.284616    3.105466
     16          8           0       -2.052049   -4.670433    1.286028
     17          7           0        3.078176    2.526109   -0.235951
     18          6           0        1.713813    2.415170   -0.595024
     19          6           0        1.219836    3.747359   -0.896852
     20          6           0        2.281103    4.661816   -0.654479
     21          6           0        3.465856    3.883071   -0.204567
     22          6           0       -0.231949    3.916792   -1.301253
     23          6           0        2.318349    6.166182   -0.848303
     24          8           0        3.361933    6.758514   -0.816529
     25          6           0        1.070562    6.982458   -1.004857
     26          7           0        6.088418    2.300737    0.031401
     27          6           0        5.950372    3.672800    0.336758
     28          6           0        7.301621    4.187116    1.001823
     29          6           0        8.275505    2.950687    0.940575
     30          6           0        7.342838    1.859443    0.373573
     31          6           0        7.943103    5.452878    0.481377
     32          6           0        8.935881    2.573472    2.347392
     33          6           0       10.393401    2.464965    2.428386
     34          7           0        5.722855   -0.609167   -0.115657
     35          6           0        7.097406   -0.623560   -0.027399
     36          6           0        7.554436   -1.987541   -0.157101
     37          6           0        6.423548   -2.754282   -0.272454
     38          6           0        5.328336   -1.881013   -0.187373
     39          6           0        8.932982   -2.335872   -0.135653
     40          6           0        5.794561   -4.095417   -0.440050
     41          8           0        6.406127   -5.182163   -0.570720
     42          6           0        4.303394   -3.905592   -0.366686
     43          6           0        3.750563   -4.417493   -1.679997
     44          8           0        3.759873   -3.922751   -2.771565
     45          8           0        3.248520   -5.678150   -1.418433
     46          6           0        2.463364   -6.295703   -2.467181
     47          6           0       -3.200843   -5.100381    2.122181
     48          6           0       -4.344451   -4.944971    1.151075
     49          6           0       -5.408852   -4.098000    1.201789
     50          6           0       -5.643190   -3.113227    2.298519
     51          6           0       -6.488068   -4.108042    0.088861
     52          6           0       -7.363836   -2.872122   -0.172106
     53          6           0       -8.127022   -2.938755   -1.537296
     54          6           0       -9.431488   -2.063471   -1.595561
     55          6           0       -9.829974   -1.975215   -3.051839
     56          6           0       -9.367017   -0.661661   -0.933363
     57          6           0      -10.220347   -0.374452    0.366952
     58          6           0      -10.917676    0.946589    0.324841
     59          6           0      -10.358527    1.884103    1.426259
     60          6           0      -10.965633    1.560590    2.792313
     61          6           0      -10.653994    3.324163    1.071985
     62          6           0       -9.475985    4.356904    1.286899
     63          6           0       -9.113663    5.101154   -0.030085
     64          6           0       -7.633088    4.874978   -0.573418
     65          6           0       -6.537553    5.757102    0.192805
     66          6           0       -7.367737    5.120525   -2.104006
     67          1           0       -0.031153    1.344515   -0.895618
     68          1           0        5.038306    5.419836    0.184713
     69          1           0        8.923555    0.484316    0.371997
     70          1           0        1.419073   -3.224527   -0.944163
     71          1           0       -0.229467   -1.309454    0.162539
     72          1           0       -0.293147   -2.539003   -2.166107
     73          1           0        0.265205   -0.884930   -2.764713
     74          1           0       -1.216018   -0.920213   -1.817419
     75          1           0        0.496139   -2.675568    1.837051
     76          1           0        2.058451   -3.515321    1.718406
     77          1           0        1.053993   -5.364134    1.411554
     78          1           0        0.190054   -4.726712    0.074602
     79          1           0       -0.881181    3.741830   -0.442244
     80          1           0       -0.378308    3.177547   -2.088430
     81          1           0       -0.361868    4.913361   -1.722172
     82          1           0        1.167711    8.053623   -0.830624
     83          1           0        0.384486    6.619745   -0.239709
     84          1           0        0.635528    6.886548   -2.000165
     85          1           0        6.983554    4.328852    2.033674
     86          1           0        9.152177    3.104043    0.310882
     87          1           0        8.195832    6.120783    1.305930
     88          1           0        7.252861    6.115997   -0.039730
     89          1           0        8.916999    5.283162    0.022014
     90          1           0        8.447556    1.713203    2.805809
     91          1           0        8.618110    3.391059    2.994387
     92          1           0       10.879897    3.329057    2.880992
     93          1           0       10.886967    2.343467    1.463316
     94          1           0       10.758979    1.636687    3.034285
     95          1           0        9.076227   -3.325047    0.298858
     96          1           0        9.334538   -1.552938    0.507054
     97          1           0        9.374172   -2.405853   -1.129633
     98          1           0        4.013889   -4.652946    0.372306
     99          1           0        3.123082   -6.405539   -3.327363
    100          1           0        1.569955   -5.745560   -2.765249
    101          1           0        2.269389   -7.331032   -2.187540
    102          1           0       -3.279767   -4.391403    2.947382
    103          1           0       -3.168620   -6.132493    2.471566
    104          1           0       -4.540234   -5.769973    0.465548
    105          1           0       -4.835450   -2.959848    3.013565
    106          1           0       -6.362217   -3.593877    2.961046
    107          1           0       -6.063482   -2.145112    2.026712
    108          1           0       -7.135815   -4.958929    0.301557
    109          1           0       -6.051693   -4.210453   -0.904755
    110          1           0       -6.763906   -1.961656   -0.189792
    111          1           0       -8.067747   -2.628478    0.623668
    112          1           0       -8.307118   -3.965564   -1.854229
    113          1           0       -7.408830   -2.447461   -2.193905
    114          1           0      -10.220999   -2.574164   -1.044759
    115          1           0       -9.226484   -2.679351   -3.625134
    116          1           0       -9.694301   -1.007637   -3.534543
    117          1           0      -10.840753   -2.350237   -3.217726
    118          1           0       -9.735295    0.043276   -1.679269
    119          1           0       -8.345824   -0.333256   -0.738937
    120          1           0       -9.588818   -0.450667    1.252439
    121          1           0      -11.040437   -1.085506    0.461469
    122          1           0      -11.972457    0.754980    0.525348
    123          1           0      -10.849673    1.427839   -0.651029
    124          1           0       -9.299395    1.671523    1.575693
    125          1           0      -11.719522    0.777571    2.705035
    126          1           0      -11.478077    2.304786    3.402728
    127          1           0      -10.107423    1.190156    3.352973
    128          1           0      -11.382427    3.704411    1.787916
    129          1           0      -11.080568    3.486016    0.082002
    130          1           0       -8.604626    3.836281    1.684402
    131          1           0       -9.654623    5.047951    2.110505
    132          1           0       -9.264933    6.170925    0.107705
    133          1           0       -9.960532    4.864621   -0.673748
    134          1           0       -7.408348    3.826624   -0.383116
    135          1           0       -5.741473    6.145325   -0.443338
    136          1           0       -6.036660    5.144850    0.942133
    137          1           0       -7.056265    6.532157    0.755278
    138          1           0       -6.720894    5.942973   -2.412024
    139          1           0       -8.250624    5.144863   -2.743396
    140          1           0       -6.792349    4.248770   -2.416434
 ---------------------------------------------------------------------

 SCF Done:  E(RCAM-B3LYP) =  -3007.14981913     A.U. after   17 cycles

 Excitation energies and oscillator strengths:

 Excited State   1:      Singlet-A      1.7131 eV  723.73 nm  f=0.3680  <S**2>=0.000
     245 -> 248       -0.18683
     246 -> 247        0.68425
     245 <- 248       -0.11009
 This state for optimization and/or second-order correction.
 Total Energy, E(TD-HF/TD-DFT) =  -3007.08686278
 Copying the excited state density for this state as the 1-particle RhoCI density.

 Excited State   2:      Singlet-A      2.2726 eV  545.56 nm  f=0.0765  <S**2>=0.000
     245 -> 247        0.61981
     246 -> 248        0.33104

 Excited State   3:      Singlet-A      3.4317 eV  361.29 nm  f=0.0845  <S**2>=0.000
     240 -> 247        0.22805
     240 -> 249       -0.15441
     242 -> 247       -0.32955
     244 -> 247        0.48661
     245 -> 247       -0.10624
     246 -> 248        0.21587

 Excited State   4:      Singlet-A      3.4555 eV  358.80 nm  f=0.0910  <S**2>=0.000
     240 -> 247        0.50201
     240 -> 249       -0.32272
     240 -> 250        0.14327
     242 -> 247        0.12922
     244 -> 247       -0.16411
     245 -> 247        0.10674
     246 -> 248       -0.21348

 Excited State   5:      Singlet-A      3.4636 eV  357.96 nm  f=0.3619  <S**2>=0.000
     242 -> 247       -0.14549
     244 -> 247       -0.42024
     245 -> 247       -0.22667
     246 -> 248        0.47643

 The electronic state is 1-A.
 Alpha  occ. eigenvalues --  -46.87910 -19.25323 -19.24666 -19.20637 -19.20461
 Alpha  occ. eigenvalues --  -19.19057 -19.18222 -14.42280 -14.41501 -14.39457
 Alpha  occ. eigenvalues --  -14.38901 -10.39582 -10.39495 -10.35428 -10.34408
 Alpha  occ. eigenvalues --  -10.32291 -10.31539 -10.31398 -10.31035 -10.30875
 Alpha  occ. eigenvalues --  -10.30521 -10.30390 -10.29785 -10.29148 -10.28514
 Alpha  occ. eigenvalues --  -10.28416 -10.28347 -10.28126 -10.28054 -10.28043
 Alpha  occ. eigenvalues --  -10.28009 -10.28007 -10.27655 -10.27512 -10.27341
 Alpha  occ. eigenvalues --  -10.27160 -10.27034 -10.26958 -10.26877 -10.26754
 Alpha  occ. eigenvalues --  -10.26711 -10.26679 -10.26503 -10.26250 -10.26143
 Alpha  occ. eigenvalues --  -10.26091 -10.26036 -10.25808 -10.25740 -10.25733
 Alpha  occ. eigenvalues --  -10.25641 -10.25563 -10.25448 -10.25337 -10.25331
 Alpha  occ. eigenvalues --  -10.25307 -10.25117 -10.25003 -10.24998 -10.24985
 Alpha  occ. eigenvalues --  -10.24931 -10.24653 -10.24571 -10.24458 -10.24449
 Alpha  occ. eigenvalues --  -10.24366  -3.16487  -1.91405  -1.90935  -1.90794
 Alpha  occ. eigenvalues --   -1.16985  -1.15747  -1.10924  -1.08804  -1.08422
 Alpha  occ. eigenvalues --   -1.08375  -1.05320  -1.04117  -1.01531  -1.00257
 Alpha  occ. eigenvalues --   -0.94045  -0.90791  -0.90254  -0.89691  -0.88989
 Alpha  occ. eigenvalues --   -0.88706  -0.88383  -0.87866  -0.87094  -0.87015
 Alpha  occ. eigenvalues --   -0.86271  -0.85548  -0.84545  -0.84186  -0.83562
 Alpha  occ. eigenvalues --   -0.83168  -0.82211  -0.81222  -0.81005  -0.80730
 Alpha  occ. eigenvalues --   -0.80471  -0.78335  -0.77763  -0.77481  -0.76407
 Alpha  occ. eigenvalues --   -0.76233  -0.75138  -0.75126  -0.75023  -0.74451
 Alpha  occ. eigenvalues --   -0.73287  -0.72696  -0.71659  -0.70667  -0.69026
 Alpha  occ. eigenvalues --   -0.68881  -0.68460  -0.66950  -0.66693  -0.65773
 Alpha  occ. eigenvalues --   -0.65416  -0.65412  -0.64726  -0.64316  -0.64150
 Alpha  occ. eigenvalues --   -0.63527  -0.63424  -0.63269  -0.62452  -0.60234
 Alpha  occ. eigenvalues --   -0.60071  -0.59827  -0.58920  -0.58718  -0.58399
 Alpha  occ. eigenvalues --   -0.57666  -0.57447  -0.56624  -0.55964  -0.55800
 Alpha  occ. eigenvalues --   -0.55177  -0.54710  -0.54653  -0.54468  -0.54293
 Alpha  occ. eigenvalues --   -0.54101  -0.53666  -0.53457  -0.53176  -0.52783
 Alpha  occ. eigenvalues --   -0.52507  -0.52407  -0.52311  -0.52069  -0.51992
 Alpha  occ. eigenvalues --   -0.51826  -0.51680  -0.51592  -0.51338  -0.50761
 Alpha  occ. eigenvalues --   -0.50625  -0.50460  -0.50369  -0.50223  -0.49885
 Alpha  occ. eigenvalues --   -0.49747  -0.49603  -0.49351  -0.49106  -0.48862
 Alpha  occ. eigenvalues --   -0.48655  -0.48528  -0.48060  -0.47966  -0.47904
 Alpha  occ. eigenvalues --   -0.47839  -0.47550  -0.47104  -0.46951  -0.46702
 Alpha  occ. eigenvalues --   -0.46364  -0.46302  -0.46165  -0.45904  -0.45841
 Alpha  occ. eigenvalues --   -0.45628  -0.45445  -0.45344  -0.45188  -0.45123
 Alpha  occ. eigenvalues --   -0.44794  -0.44518  -0.44032  -0.44019  -0.43699
 Alpha  occ. eigenvalues --   -0.43609  -0.43534  -0.43209  -0.43089  -0.42920
 Alpha  occ. eigenvalues --   -0.42853  -0.42685  -0.42560  -0.42411  -0.42112
 Alpha  occ. eigenvalues --   -0.42059  -0.41899  -0.41612  -0.41582  -0.40942
 Alpha  occ. eigenvalues --   -0.40808  -0.40635  -0.40404  -0.40156  -0.39962
 Alpha  occ. eigenvalues --   -0.39877  -0.39714  -0.39443  -0.39045  -0.38947
 Alpha  occ. eigenvalues --   -0.38688  -0.38478  -0.38219  -0.37662  -0.37457
 Alpha  occ. eigenvalues --   -0.37415  -0.37201  -0.36884  -0.36671  -0.36588
 Alpha  occ. eigenvalues --   -0.36530  -0.36172  -0.35438  -0.34976  -0.34893
 Alpha  occ. eigenvalues --   -0.34598  -0.34143  -0.33076  -0.31232  -0.31034
 Alpha  occ. eigenvalues --   -0.30448  -0.30141  -0.29998  -0.29477  -0.24132
 Alpha  occ. eigenvalues --   -0.20842
 Alpha virt. eigenvalues --   -0.08339  -0.01806   0.00510   0.02457   0.03526
 Alpha virt. eigenvalues --    0.03684   0.04803   0.05368   0.05909   0.06472
 Alpha virt. eigenvalues --    0.07700   0.07879   0.08273   0.08618   0.09141

 Mulliken charges:
               1
     1  Mg   0.817053
     2  C    0.047193
     3  C   -0.088723
     4  C   -0.042347
     5  C   -0.071126
     6  N   -0.236324
     7  C   -0.068953
     8  C   -0.048273
     9  C   -0.048926
    10  C    0.048408
    11  C    0.085640
    12  C    0.080784
    13  C    0.073309
    14  C    0.155924
    15  O   -0.230282
    16  O   -0.349506
    17  N   -0.445060
    18  C    0.152871
    19  C   -0.158035
    20  C   -0.042902
    21  C    0.156436
    22  C    0.130095
    23  C   -0.005994
    24  O   -0.186658
    25  C    0.040498
    26  N   -0.312643
    27  C    0.012717
    28  C    0.015211
    29  C   -0.068984
    30  C    0.052912
    31  C    0.079235
    32  C    0.040166
    33  C    0.003069
    34  N   -0.331831
    35  C    0.119725
    36  C   -0.200845
    37  C    0.075356
    38  C    0.065470
    39  C    0.116476
    40  C    0.021036
    41  O   -0.192474
    42  C    0.015154
    43  C    0.171017
    44  O   -0.180340
    45  O   -0.342637
    46  C    0.183710
    47  C    0.292399
    48  C   -0.105004
    49  C   -0.164869
    50  C    0.083544
    51  C    0.070766
    52  C   -0.029090
    53  C    0.031898
    54  C   -0.119944
    55  C    0.061133
    56  C    0.047776
    57  C    0.027170
    58  C    0.040035
    59  C   -0.144092
    60  C    0.043502
    61  C    0.068607
    62  C   -0.003129
    63  C    0.049585
    64  C   -0.119068
    65  C    0.026024
    66  C    0.023363
    67  H   -0.038477
    68  H   -0.007079
    69  H   -0.027143
    70  H    0.002799
    71  H    0.001387
    72  H    0.033730
    73  H    0.028369
    74  H    0.029876
    75  H    0.008633
    76  H    0.022917
    77  H    0.029723
    78  H    0.003555
    79  H    0.042025
    80  H    0.029745
    81  H   -0.001143
    82  H    0.022675
    83  H    0.026692
    84  H    0.047264
    85  H    0.019936
    86  H    0.016150
    87  H   -0.005601
    88  H    0.029831
    89  H    0.017828
    90  H    0.011361
    91  H   -0.003934
    92  H    0.012211
    93  H    0.009319
    94  H    0.012047
    95  H    0.025254
    96  H    0.016791
    97  H    0.041408
    98  H    0.044493
    99  H    0.031181
   100  H    0.033260
   101  H    0.035809
   102  H    0.015560
   103  H    0.039700
   104  H   -0.006633
   105  H    0.001399
   106  H    0.018989
   107  H    0.022786
   108  H    0.021983
   109  H    0.017936
   110  H    0.000916
   111  H   -0.005668
   112  H    0.011478
   113  H   -0.002105
   114  H   -0.007223
   115  H   -0.007250
   116  H    0.013330
   117  H    0.005778
   118  H   -0.012821
   119  H   -0.010952
   120  H    0.002944
   121  H   -0.010142
   122  H   -0.006463
   123  H    0.000990
   124  H   -0.001466
   125  H   -0.000912
   126  H    0.013871
   127  H    0.002729
   128  H   -0.010239
   129  H   -0.002582
   130  H   -0.016330
   131  H   -0.006024
   132  H   -0.010014
   133  H   -0.013227
   134  H    0.003092
   135  H    0.016581
   136  H    0.001085
   137  H    0.011954
   138  H    0.012015
   139  H    0.005661
   140  H   -0.000827
 Sum of Mulliken charges =  -0.00000

 Dipole moment (field-independent basis, Debye):
    X=             -5.2134    Y=              1.9377    Z=              1.6205  Tot=              5.7931
 Quadrupole moment (field-independent basis, Debye-Ang):
   XX=           -372.1257   YY=           -428.3182   ZZ=           -412.3005
   XY=             29.1984   XZ=             19.6233   YZ=             13.1781

 Normal termination of Gaussian 16 at Sat Apr 30 15:02:16 2022.
