 Gaussian 16, Revision A.03,
 Gaussian 16:  ES64L-G16RevA.03 25-Dec-2016

 ---------------------------------
 #p PBE1PBE/Def2SVP td=(nstates=5)
 ---------------------------------

 -----------------------------------------------------
 step_801_chromophore_12 TDDFT with PBE1PBE functional
 -----------------------------------------------------
 Symbolic Z-matrix:
 Charge =  0 Multiplicity = 1

                         Standard orientation:
 ---------------------------------------------------------------------
 Center     Atomic      Atomic             Coordinates (Angstroms)
 Number     Number       Type             X           Y           Z
 ---------------------------------------------------------------------
      1         12           0        4.370004    0.983769   -0.016229
      2          6           0        4.064214   -2.467095   -0.211158
      3          6           0        1.029636    1.221617   -0.671008
      4          6           0        4.802253    4.358730    0.086008
      5          6           0        7.855512    0.561057    0.156212
      6          7           0        2.695740   -0.450764   -0.143760
      7          6           0        2.819137   -1.781925   -0.171553
      8          6           0        1.425893   -2.471470   -0.156741
      9          6           0        0.531642   -1.290974   -0.616706
     10          6           0        1.446874   -0.083179   -0.432667
     11          6           0       -0.291053   -1.458733   -2.023190
     12          6           0        1.139494   -3.267432    1.186407
     13          6           0        0.377548   -4.555588    1.134246
     14          6           0       -0.851565   -4.809477    1.997439
     15          8           0       -0.693203   -5.284616    3.105466
     16          8           0       -2.052049   -4.670433    1.286028
     17          7           0        3.078176    2.526109   -0.235951
     18          6           0        1.713813    2.415170   -0.595024
     19          6           0        1.219836    3.747359   -0.896852
     20          6           0        2.281103    4.661816   -0.654479
     21          6           0        3.465856    3.883071   -0.204567
     22          6           0       -0.231949    3.916792   -1.301253
     23          6           0        2.318349    6.166182   -0.848303
     24          8           0        3.361933    6.758514   -0.816529
     25          6           0        1.070562    6.982458   -1.004857
     26          7           0        6.088418    2.300737    0.031401
     27          6           0        5.950372    3.672800    0.336758
     28          6           0        7.301621    4.187116    1.001823
     29          6           0        8.275505    2.950687    0.940575
     30          6           0        7.342838    1.859443    0.373573
     31          6           0        7.943103    5.452878    0.481377
     32          6           0        8.935881    2.573472    2.347392
     33          6           0       10.393401    2.464965    2.428386
     34          7           0        5.722855   -0.609167   -0.115657
     35          6           0        7.097406   -0.623560   -0.027399
     36          6           0        7.554436   -1.987541   -0.157101
     37          6           0        6.423548   -2.754282   -0.272454
     38          6           0        5.328336   -1.881013   -0.187373
     39          6           0        8.932982   -2.335872   -0.135653
     40          6           0        5.794561   -4.095417   -0.440050
     41          8           0        6.406127   -5.182163   -0.570720
     42          6           0        4.303394   -3.905592   -0.366686
     43          6           0        3.750563   -4.417493   -1.679997
     44          8           0        3.759873   -3.922751   -2.771565
     45          8           0        3.248520   -5.678150   -1.418433
     46          6           0        2.463364   -6.295703   -2.467181
     47          6           0       -3.200843   -5.100381    2.122181
     48          6           0       -4.344451   -4.944971    1.151075
     49          6           0       -5.408852   -4.098000    1.201789
     50          6           0       -5.643190   -3.113227    2.298519
     51          6           0       -6.488068   -4.108042    0.088861
     52          6           0       -7.363836   -2.872122   -0.172106
     53          6           0       -8.127022   -2.938755   -1.537296
     54          6           0       -9.431488   -2.063471   -1.595561
     55          6           0       -9.829974   -1.975215   -3.051839
     56          6           0       -9.367017   -0.661661   -0.933363
     57          6           0      -10.220347   -0.374452    0.366952
     58          6           0      -10.917676    0.946589    0.324841
     59          6           0      -10.358527    1.884103    1.426259
     60          6           0      -10.965633    1.560590    2.792313
     61          6           0      -10.653994    3.324163    1.071985
     62          6           0       -9.475985    4.356904    1.286899
     63          6           0       -9.113663    5.101154   -0.030085
     64          6           0       -7.633088    4.874978   -0.573418
     65          6           0       -6.537553    5.757102    0.192805
     66          6           0       -7.367737    5.120525   -2.104006
     67          1           0       -0.031153    1.344515   -0.895618
     68          1           0        5.038306    5.419836    0.184713
     69          1           0        8.923555    0.484316    0.371997
     70          1           0        1.419073   -3.224527   -0.944163
     71          1           0       -0.229467   -1.309454    0.162539
     72          1           0       -0.293147   -2.539003   -2.166107
     73          1           0        0.265205   -0.884930   -2.764713
     74          1           0       -1.216018   -0.920213   -1.817419
     75          1           0        0.496139   -2.675568    1.837051
     76          1           0        2.058451   -3.515321    1.718406
     77          1           0        1.053993   -5.364134    1.411554
     78          1           0        0.190054   -4.726712    0.074602
     79          1           0       -0.881181    3.741830   -0.442244
     80          1           0       -0.378308    3.177547   -2.088430
     81          1           0       -0.361868    4.913361   -1.722172
     82          1           0        1.167711    8.053623   -0.830624
     83          1           0        0.384486    6.619745   -0.239709
     84          1           0        0.635528    6.886548   -2.000165
     85          1           0        6.983554    4.328852    2.033674
     86          1           0        9.152177    3.104043    0.310882
     87          1           0        8.195832    6.120783    1.305930
     88          1           0        7.252861    6.115997   -0.039730
     89          1           0        8.916999    5.283162    0.022014
     90          1           0        8.447556    1.713203    2.805809
     91          1           0        8.618110    3.391059    2.994387
     92          1           0       10.879897    3.329057    2.880992
     93          1           0       10.886967    2.343467    1.463316
     94          1           0       10.758979    1.636687    3.034285
     95          1           0        9.076227   -3.325047    0.298858
     96          1           0        9.334538   -1.552938    0.507054
     97          1           0        9.374172   -2.405853   -1.129633
     98          1           0        4.013889   -4.652946    0.372306
     99          1           0        3.123082   -6.405539   -3.327363
    100          1           0        1.569955   -5.745560   -2.765249
    101          1           0        2.269389   -7.331032   -2.187540
    102          1           0       -3.279767   -4.391403    2.947382
    103          1           0       -3.168620   -6.132493    2.471566
    104          1           0       -4.540234   -5.769973    0.465548
    105          1           0       -4.835450   -2.959848    3.013565
    106          1           0       -6.362217   -3.593877    2.961046
    107          1           0       -6.063482   -2.145112    2.026712
    108          1           0       -7.135815   -4.958929    0.301557
    109          1           0       -6.051693   -4.210453   -0.904755
    110          1           0       -6.763906   -1.961656   -0.189792
    111          1           0       -8.067747   -2.628478    0.623668
    112          1           0       -8.307118   -3.965564   -1.854229
    113          1           0       -7.408830   -2.447461   -2.193905
    114          1           0      -10.220999   -2.574164   -1.044759
    115          1           0       -9.226484   -2.679351   -3.625134
    116          1           0       -9.694301   -1.007637   -3.534543
    117          1           0      -10.840753   -2.350237   -3.217726
    118          1           0       -9.735295    0.043276   -1.679269
    119          1           0       -8.345824   -0.333256   -0.738937
    120          1           0       -9.588818   -0.450667    1.252439
    121          1           0      -11.040437   -1.085506    0.461469
    122          1           0      -11.972457    0.754980    0.525348
    123          1           0      -10.849673    1.427839   -0.651029
    124          1           0       -9.299395    1.671523    1.575693
    125          1           0      -11.719522    0.777571    2.705035
    126          1           0      -11.478077    2.304786    3.402728
    127          1           0      -10.107423    1.190156    3.352973
    128          1           0      -11.382427    3.704411    1.787916
    129          1           0      -11.080568    3.486016    0.082002
    130          1           0       -8.604626    3.836281    1.684402
    131          1           0       -9.654623    5.047951    2.110505
    132          1           0       -9.264933    6.170925    0.107705
    133          1           0       -9.960532    4.864621   -0.673748
    134          1           0       -7.408348    3.826624   -0.383116
    135          1           0       -5.741473    6.145325   -0.443338
    136          1           0       -6.036660    5.144850    0.942133
    137          1           0       -7.056265    6.532157    0.755278
    138          1           0       -6.720894    5.942973   -2.412024
    139          1           0       -8.250624    5.144863   -2.743396
    140          1           0       -6.792349    4.248770   -2.416434
 ---------------------------------------------------------------------

 SCF Done:  E(RPBE1PBE) =  -3005.33884111     A.U. after   15 cycles

 Excitation energies and oscillator strengths:

 Excited State   1:      Singlet-A      1.8660 eV  664.43 nm  f=0.3561  <S**2>=0.000
     245 -> 248       -0.18020
     246 -> 247        0.69163
     246 <- 247       -0.10594
 This state for optimization and/or second-order correction.
 Total Energy, E(TD-HF/TD-DFT) =  -3005.27026582
 Copying the excited state density for this state as the 1-particle RhoCI density.

 Excited State   2:      Singlet-A      2.2743 eV  545.14 nm  f=0.0794  <S**2>=0.000
     245 -> 247        0.63508
     246 -> 248        0.30158

 Excited State   3:      Singlet-A      3.0269 eV  409.61 nm  f=0.0003  <S**2>=0.000
     240 -> 247        0.41760
     240 -> 249       -0.14286
     241 -> 247        0.50467
     241 -> 249       -0.14898
     244 -> 247        0.12250

 Excited State   4:      Singlet-A      3.0888 eV  401.40 nm  f=0.0002  <S**2>=0.000
     240 -> 247       -0.12050
     244 -> 247        0.68091

 Excited State   5:      Singlet-A      3.1271 eV  396.48 nm  f=0.0051  <S**2>=0.000
     242 -> 247        0.45014
     243 -> 247        0.50704

 The electronic state is 1-A.
 Alpha  occ. eigenvalues --  -46.91310 -19.26042 -19.25277 -19.20752 -19.20750
 Alpha  occ. eigenvalues --  -19.19122 -19.18527 -14.41715 -14.41085 -14.39228
 Alpha  occ. eigenvalues --  -14.38482 -10.36552 -10.36542 -10.32455 -10.31636
 Alpha  occ. eigenvalues --  -10.29675 -10.29055 -10.28739 -10.28716 -10.28674
 Alpha  occ. eigenvalues --  -10.28329 -10.28225 -10.27321 -10.27039 -10.26295
 Alpha  occ. eigenvalues --  -10.25917 -10.25905 -10.25876 -10.25868 -10.25854
 Alpha  occ. eigenvalues --  -10.25833 -10.25791 -10.25363 -10.25078 -10.24795
 Alpha  occ. eigenvalues --  -10.24759 -10.24744 -10.24675 -10.24462 -10.24367
 Alpha  occ. eigenvalues --  -10.24283 -10.24211 -10.24067 -10.23858 -10.23856
 Alpha  occ. eigenvalues --  -10.23803 -10.23495 -10.23412 -10.23294 -10.23214
 Alpha  occ. eigenvalues --  -10.23166 -10.23085 -10.23056 -10.22912 -10.22732
 Alpha  occ. eigenvalues --  -10.22702 -10.22634 -10.22565 -10.22554 -10.22527
 Alpha  occ. eigenvalues --  -10.22347 -10.22157 -10.22065 -10.22050 -10.21879
 Alpha  occ. eigenvalues --  -10.21786  -3.13466  -1.86326  -1.85833  -1.85697
 Alpha  occ. eigenvalues --   -1.11675  -1.10552  -1.05773  -1.03570  -1.03315
 Alpha  occ. eigenvalues --   -1.02927  -0.99920  -0.98708  -0.96134  -0.94984
 Alpha  occ. eigenvalues --   -0.88312  -0.84908  -0.84397  -0.83867  -0.83264
 Alpha  occ. eigenvalues --   -0.82848  -0.82679  -0.82154  -0.81438  -0.81106
 Alpha  occ. eigenvalues --   -0.80608  -0.79806  -0.78729  -0.78444  -0.77869
 Alpha  occ. eigenvalues --   -0.77358  -0.76487  -0.75499  -0.75247  -0.75011
 Alpha  occ. eigenvalues --   -0.74680  -0.72630  -0.72077  -0.71794  -0.70687
 Alpha  occ. eigenvalues --   -0.70425  -0.69513  -0.69269  -0.69161  -0.68622
 Alpha  occ. eigenvalues --   -0.67607  -0.67112  -0.66090  -0.65004  -0.63352
 Alpha  occ. eigenvalues --   -0.63094  -0.62905  -0.61390  -0.60990  -0.60221
 Alpha  occ. eigenvalues --   -0.59834  -0.59660  -0.59265  -0.58731  -0.58458
 Alpha  occ. eigenvalues --   -0.57945  -0.57702  -0.57484  -0.56956  -0.54764
 Alpha  occ. eigenvalues --   -0.54468  -0.54296  -0.53532  -0.53139  -0.52983
 Alpha  occ. eigenvalues --   -0.52131  -0.51954  -0.51042  -0.50560  -0.50135
 Alpha  occ. eigenvalues --   -0.49766  -0.49290  -0.49073  -0.48952  -0.48834
 Alpha  occ. eigenvalues --   -0.48577  -0.48124  -0.48045  -0.47878  -0.47265
 Alpha  occ. eigenvalues --   -0.47031  -0.47004  -0.46717  -0.46605  -0.46582
 Alpha  occ. eigenvalues --   -0.46408  -0.46237  -0.46101  -0.45898  -0.45359
 Alpha  occ. eigenvalues --   -0.45217  -0.45079  -0.44968  -0.44713  -0.44485
 Alpha  occ. eigenvalues --   -0.44330  -0.44203  -0.43947  -0.43645  -0.43458
 Alpha  occ. eigenvalues --   -0.43252  -0.43157  -0.42704  -0.42629  -0.42528
 Alpha  occ. eigenvalues --   -0.42469  -0.42172  -0.41738  -0.41660  -0.41356
 Alpha  occ. eigenvalues --   -0.41173  -0.40989  -0.40830  -0.40576  -0.40514
 Alpha  occ. eigenvalues --   -0.40326  -0.40158  -0.40054  -0.40000  -0.39727
 Alpha  occ. eigenvalues --   -0.39502  -0.39263  -0.38835  -0.38713  -0.38566
 Alpha  occ. eigenvalues --   -0.38398  -0.38347  -0.37951  -0.37896  -0.37699
 Alpha  occ. eigenvalues --   -0.37631  -0.37553  -0.37296  -0.37240  -0.37021
 Alpha  occ. eigenvalues --   -0.36935  -0.36718  -0.36395  -0.36301  -0.35808
 Alpha  occ. eigenvalues --   -0.35544  -0.35439  -0.35254  -0.35002  -0.34824
 Alpha  occ. eigenvalues --   -0.34756  -0.34486  -0.34353  -0.34054  -0.33758
 Alpha  occ. eigenvalues --   -0.33586  -0.33266  -0.33024  -0.32517  -0.32407
 Alpha  occ. eigenvalues --   -0.32346  -0.32149  -0.31845  -0.31644  -0.31618
 Alpha  occ. eigenvalues --   -0.31399  -0.31080  -0.30335  -0.29823  -0.29783
 Alpha  occ. eigenvalues --   -0.29505  -0.29247  -0.28663  -0.26903  -0.25737
 Alpha  occ. eigenvalues --   -0.25646  -0.25329  -0.25321  -0.25123  -0.21026
 Alpha  occ. eigenvalues --   -0.18514
 Alpha virt. eigenvalues --   -0.10852  -0.05260  -0.03720  -0.01974  -0.00792
 Alpha virt. eigenvalues --    0.00265   0.00620   0.01040   0.01492   0.03129
 Alpha virt. eigenvalues --    0.03779   0.04338   0.04605   0.04964   0.05877

 Mulliken charges:
               1
     1  Mg   0.969135
     2  C    0.020840
     3  C   -0.089292
     4  C   -0.044538
     5  C   -0.056383
     6  N   -0.348524
     7  C    0.010999
     8  C   -0.111461
     9  C   -0.121418
    10  C    0.089243
    11  C    0.020981
    12  C    0.029061
    13  C   -0.001374
    14  C    0.217588
    15  O   -0.260538
    16  O   -0.376507
    17  N   -0.558221
    18  C    0.180541
    19  C   -0.181251
    20  C   -0.101510
    21  C    0.192943
    22  C    0.065333
    23  C    0.050307
    24  O   -0.222656
    25  C   -0.033942
    26  N   -0.408117
    27  C    0.047673
    28  C   -0.066081
    29  C   -0.142089
    30  C    0.086587
    31  C    0.021271
    32  C   -0.017184
    33  C   -0.067959
    34  N   -0.461695
    35  C    0.140724
    36  C   -0.236613
    37  C    0.032430
    38  C    0.122839
    39  C    0.063597
    40  C    0.128473
    41  O   -0.239770
    42  C   -0.098410
    43  C    0.264644
    44  O   -0.216957
    45  O   -0.375818
    46  C    0.128299
    47  C    0.246589
    48  C   -0.120681
    49  C   -0.207678
    50  C    0.020896
    51  C    0.013763
    52  C   -0.097479
    53  C   -0.026959
    54  C   -0.205908
    55  C    0.002335
    56  C   -0.003904
    57  C   -0.035403
    58  C   -0.014185
    59  C   -0.234371
    60  C   -0.008554
    61  C    0.011404
    62  C   -0.057004
    63  C   -0.006189
    64  C   -0.211555
    65  C   -0.034011
    66  C   -0.037236
    67  H   -0.006274
    68  H    0.026617
    69  H    0.005733
    70  H    0.048553
    71  H    0.041949
    72  H    0.060771
    73  H    0.056926
    74  H    0.056251
    75  H    0.041985
    76  H    0.055554
    77  H    0.062144
    78  H    0.036688
    79  H    0.070156
    80  H    0.057587
    81  H    0.030369
    82  H    0.050894
    83  H    0.054377
    84  H    0.072774
    85  H    0.057712
    86  H    0.052465
    87  H    0.022916
    88  H    0.056118
    89  H    0.044781
    90  H    0.043544
    91  H    0.029821
    92  H    0.039914
    93  H    0.035330
    94  H    0.040066
    95  H    0.053432
    96  H    0.042972
    97  H    0.068532
    98  H    0.080367
    99  H    0.053676
   100  H    0.054300
   101  H    0.057738
   102  H    0.043463
   103  H    0.065954
   104  H    0.023588
   105  H    0.029265
   106  H    0.048613
   107  H    0.048547
   108  H    0.054994
   109  H    0.050007
   110  H    0.033955
   111  H    0.030328
   112  H    0.043049
   113  H    0.032880
   114  H    0.031512
   115  H    0.021109
   116  H    0.039548
   117  H    0.033908
   118  H    0.020548
   119  H    0.022194
   120  H    0.033990
   121  H    0.022167
   122  H    0.026877
   123  H    0.032567
   124  H    0.035790
   125  H    0.025975
   126  H    0.039862
   127  H    0.029381
   128  H    0.023897
   129  H    0.027018
   130  H    0.015893
   131  H    0.025611
   132  H    0.022829
   133  H    0.018884
   134  H    0.040977
   135  H    0.042813
   136  H    0.028472
   137  H    0.039081
   138  H    0.038287
   139  H    0.033100
   140  H    0.027257
 Sum of Mulliken charges =  -0.00000

 Dipole moment (field-independent basis, Debye):
    X=             -5.3597    Y=              2.1927    Z=              1.6727  Tot=              6.0276
 Quadrupole moment (field-independent basis, Debye-Ang):
   XX=           -367.5942   YY=           -425.0082   ZZ=           -409.6781
   XY=             31.2115   XZ=             20.5255   YZ=             13.5348

 Normal termination of Gaussian 16 at Sat Apr 30 15:27:47 2022.
