 Gaussian 16, Revision A.03,
 Gaussian 16:  ES64L-G16RevA.03 25-Dec-2016

 --------------------------------
 #p wB97XD/Def2SVP td=(nstates=5)
 --------------------------------

 ----------------------------------------------------
 step_801_chromophore_12 TDDFT with wB97XD functional
 ----------------------------------------------------
 Symbolic Z-matrix:
 Charge =  0 Multiplicity = 1

                         Standard orientation:
 ---------------------------------------------------------------------
 Center     Atomic      Atomic             Coordinates (Angstroms)
 Number     Number       Type             X           Y           Z
 ---------------------------------------------------------------------
      1         12           0        4.370004    0.983769   -0.016229
      2          6           0        4.064214   -2.467095   -0.211158
      3          6           0        1.029636    1.221617   -0.671008
      4          6           0        4.802253    4.358730    0.086008
      5          6           0        7.855512    0.561057    0.156212
      6          7           0        2.695740   -0.450764   -0.143760
      7          6           0        2.819137   -1.781925   -0.171553
      8          6           0        1.425893   -2.471470   -0.156741
      9          6           0        0.531642   -1.290974   -0.616706
     10          6           0        1.446874   -0.083179   -0.432667
     11          6           0       -0.291053   -1.458733   -2.023190
     12          6           0        1.139494   -3.267432    1.186407
     13          6           0        0.377548   -4.555588    1.134246
     14          6           0       -0.851565   -4.809477    1.997439
     15          8           0       -0.693203   -5.284616    3.105466
     16          8           0       -2.052049   -4.670433    1.286028
     17          7           0        3.078176    2.526109   -0.235951
     18          6           0        1.713813    2.415170   -0.595024
     19          6           0        1.219836    3.747359   -0.896852
     20          6           0        2.281103    4.661816   -0.654479
     21          6           0        3.465856    3.883071   -0.204567
     22          6           0       -0.231949    3.916792   -1.301253
     23          6           0        2.318349    6.166182   -0.848303
     24          8           0        3.361933    6.758514   -0.816529
     25          6           0        1.070562    6.982458   -1.004857
     26          7           0        6.088418    2.300737    0.031401
     27          6           0        5.950372    3.672800    0.336758
     28          6           0        7.301621    4.187116    1.001823
     29          6           0        8.275505    2.950687    0.940575
     30          6           0        7.342838    1.859443    0.373573
     31          6           0        7.943103    5.452878    0.481377
     32          6           0        8.935881    2.573472    2.347392
     33          6           0       10.393401    2.464965    2.428386
     34          7           0        5.722855   -0.609167   -0.115657
     35          6           0        7.097406   -0.623560   -0.027399
     36          6           0        7.554436   -1.987541   -0.157101
     37          6           0        6.423548   -2.754282   -0.272454
     38          6           0        5.328336   -1.881013   -0.187373
     39          6           0        8.932982   -2.335872   -0.135653
     40          6           0        5.794561   -4.095417   -0.440050
     41          8           0        6.406127   -5.182163   -0.570720
     42          6           0        4.303394   -3.905592   -0.366686
     43          6           0        3.750563   -4.417493   -1.679997
     44          8           0        3.759873   -3.922751   -2.771565
     45          8           0        3.248520   -5.678150   -1.418433
     46          6           0        2.463364   -6.295703   -2.467181
     47          6           0       -3.200843   -5.100381    2.122181
     48          6           0       -4.344451   -4.944971    1.151075
     49          6           0       -5.408852   -4.098000    1.201789
     50          6           0       -5.643190   -3.113227    2.298519
     51          6           0       -6.488068   -4.108042    0.088861
     52          6           0       -7.363836   -2.872122   -0.172106
     53          6           0       -8.127022   -2.938755   -1.537296
     54          6           0       -9.431488   -2.063471   -1.595561
     55          6           0       -9.829974   -1.975215   -3.051839
     56          6           0       -9.367017   -0.661661   -0.933363
     57          6           0      -10.220347   -0.374452    0.366952
     58          6           0      -10.917676    0.946589    0.324841
     59          6           0      -10.358527    1.884103    1.426259
     60          6           0      -10.965633    1.560590    2.792313
     61          6           0      -10.653994    3.324163    1.071985
     62          6           0       -9.475985    4.356904    1.286899
     63          6           0       -9.113663    5.101154   -0.030085
     64          6           0       -7.633088    4.874978   -0.573418
     65          6           0       -6.537553    5.757102    0.192805
     66          6           0       -7.367737    5.120525   -2.104006
     67          1           0       -0.031153    1.344515   -0.895618
     68          1           0        5.038306    5.419836    0.184713
     69          1           0        8.923555    0.484316    0.371997
     70          1           0        1.419073   -3.224527   -0.944163
     71          1           0       -0.229467   -1.309454    0.162539
     72          1           0       -0.293147   -2.539003   -2.166107
     73          1           0        0.265205   -0.884930   -2.764713
     74          1           0       -1.216018   -0.920213   -1.817419
     75          1           0        0.496139   -2.675568    1.837051
     76          1           0        2.058451   -3.515321    1.718406
     77          1           0        1.053993   -5.364134    1.411554
     78          1           0        0.190054   -4.726712    0.074602
     79          1           0       -0.881181    3.741830   -0.442244
     80          1           0       -0.378308    3.177547   -2.088430
     81          1           0       -0.361868    4.913361   -1.722172
     82          1           0        1.167711    8.053623   -0.830624
     83          1           0        0.384486    6.619745   -0.239709
     84          1           0        0.635528    6.886548   -2.000165
     85          1           0        6.983554    4.328852    2.033674
     86          1           0        9.152177    3.104043    0.310882
     87          1           0        8.195832    6.120783    1.305930
     88          1           0        7.252861    6.115997   -0.039730
     89          1           0        8.916999    5.283162    0.022014
     90          1           0        8.447556    1.713203    2.805809
     91          1           0        8.618110    3.391059    2.994387
     92          1           0       10.879897    3.329057    2.880992
     93          1           0       10.886967    2.343467    1.463316
     94          1           0       10.758979    1.636687    3.034285
     95          1           0        9.076227   -3.325047    0.298858
     96          1           0        9.334538   -1.552938    0.507054
     97          1           0        9.374172   -2.405853   -1.129633
     98          1           0        4.013889   -4.652946    0.372306
     99          1           0        3.123082   -6.405539   -3.327363
    100          1           0        1.569955   -5.745560   -2.765249
    101          1           0        2.269389   -7.331032   -2.187540
    102          1           0       -3.279767   -4.391403    2.947382
    103          1           0       -3.168620   -6.132493    2.471566
    104          1           0       -4.540234   -5.769973    0.465548
    105          1           0       -4.835450   -2.959848    3.013565
    106          1           0       -6.362217   -3.593877    2.961046
    107          1           0       -6.063482   -2.145112    2.026712
    108          1           0       -7.135815   -4.958929    0.301557
    109          1           0       -6.051693   -4.210453   -0.904755
    110          1           0       -6.763906   -1.961656   -0.189792
    111          1           0       -8.067747   -2.628478    0.623668
    112          1           0       -8.307118   -3.965564   -1.854229
    113          1           0       -7.408830   -2.447461   -2.193905
    114          1           0      -10.220999   -2.574164   -1.044759
    115          1           0       -9.226484   -2.679351   -3.625134
    116          1           0       -9.694301   -1.007637   -3.534543
    117          1           0      -10.840753   -2.350237   -3.217726
    118          1           0       -9.735295    0.043276   -1.679269
    119          1           0       -8.345824   -0.333256   -0.738937
    120          1           0       -9.588818   -0.450667    1.252439
    121          1           0      -11.040437   -1.085506    0.461469
    122          1           0      -11.972457    0.754980    0.525348
    123          1           0      -10.849673    1.427839   -0.651029
    124          1           0       -9.299395    1.671523    1.575693
    125          1           0      -11.719522    0.777571    2.705035
    126          1           0      -11.478077    2.304786    3.402728
    127          1           0      -10.107423    1.190156    3.352973
    128          1           0      -11.382427    3.704411    1.787916
    129          1           0      -11.080568    3.486016    0.082002
    130          1           0       -8.604626    3.836281    1.684402
    131          1           0       -9.654623    5.047951    2.110505
    132          1           0       -9.264933    6.170925    0.107705
    133          1           0       -9.960532    4.864621   -0.673748
    134          1           0       -7.408348    3.826624   -0.383116
    135          1           0       -5.741473    6.145325   -0.443338
    136          1           0       -6.036660    5.144850    0.942133
    137          1           0       -7.056265    6.532157    0.755278
    138          1           0       -6.720894    5.942973   -2.412024
    139          1           0       -8.250624    5.144863   -2.743396
    140          1           0       -6.792349    4.248770   -2.416434
 ---------------------------------------------------------------------

 SCF Done:  E(RwB97XD) =  -3007.84412732     A.U. after   18 cycles

 Excitation energies and oscillator strengths:

 Excited State   1:      Singlet-A      1.6566 eV  748.40 nm  f=0.3663  <S**2>=0.000
     245 -> 248       -0.19208
     246 -> 247        0.68216
     245 <- 248       -0.11928
 This state for optimization and/or second-order correction.
 Total Energy, E(TD-HF/TD-DFT) =  -3007.78324657
 Copying the excited state density for this state as the 1-particle RhoCI density.

 Excited State   2:      Singlet-A      2.2163 eV  559.41 nm  f=0.0757  <S**2>=0.000
     245 -> 247        0.61900
     246 -> 248        0.33133

 Excited State   3:      Singlet-A      3.4372 eV  360.71 nm  f=0.1776  <S**2>=0.000
     240 -> 247        0.19528
     240 -> 249       -0.14748
     241 -> 247       -0.28045
     242 -> 247        0.28201
     244 -> 247        0.36231
     245 -> 247       -0.15266
     246 -> 248        0.32562

 Excited State   4:      Singlet-A      3.4646 eV  357.86 nm  f=0.1375  <S**2>=0.000
     240 -> 247        0.49368
     240 -> 249       -0.33686
     240 -> 250        0.14141
     245 -> 247        0.13088
     246 -> 248       -0.26913

 Excited State   5:      Singlet-A      3.4837 eV  355.90 nm  f=0.2323  <S**2>=0.000
     240 -> 247       -0.13652
     244 -> 247        0.52663
     245 -> 247        0.17948
     246 -> 248       -0.37826

 The electronic state is 1-A.
 Alpha  occ. eigenvalues --  -46.94255 -19.30610 -19.29936 -19.25593 -19.25430
 Alpha  occ. eigenvalues --  -19.24191 -19.23180 -14.46867 -14.46116 -14.44074
 Alpha  occ. eigenvalues --  -14.43522 -10.43476 -10.43345 -10.39521 -10.38305
 Alpha  occ. eigenvalues --  -10.36209 -10.35460 -10.35301 -10.35086 -10.34910
 Alpha  occ. eigenvalues --  -10.34483 -10.34414 -10.33873 -10.33128 -10.32595
 Alpha  occ. eigenvalues --  -10.32504 -10.32382 -10.32159 -10.32090 -10.32089
 Alpha  occ. eigenvalues --  -10.32074 -10.32072 -10.31806 -10.31480 -10.31479
 Alpha  occ. eigenvalues --  -10.31013 -10.31008 -10.30919 -10.30856 -10.30771
 Alpha  occ. eigenvalues --  -10.30696 -10.30661 -10.30460 -10.30185 -10.30134
 Alpha  occ. eigenvalues --  -10.30060 -10.29942 -10.29776 -10.29690 -10.29598
 Alpha  occ. eigenvalues --  -10.29557 -10.29424 -10.29404 -10.29265 -10.29222
 Alpha  occ. eigenvalues --  -10.29144 -10.29096 -10.29045 -10.28927 -10.28892
 Alpha  occ. eigenvalues --  -10.28751 -10.28499 -10.28470 -10.28383 -10.28291
 Alpha  occ. eigenvalues --  -10.28195  -3.20256  -1.93867  -1.93373  -1.93236
 Alpha  occ. eigenvalues --   -1.19178  -1.17945  -1.13083  -1.11040  -1.10665
 Alpha  occ. eigenvalues --   -1.10659  -1.07335  -1.06199  -1.03523  -1.02256
 Alpha  occ. eigenvalues --   -0.96087  -0.92573  -0.92060  -0.91531  -0.90867
 Alpha  occ. eigenvalues --   -0.90508  -0.90311  -0.89815  -0.89020  -0.88774
 Alpha  occ. eigenvalues --   -0.88173  -0.87430  -0.86383  -0.86097  -0.85483
 Alpha  occ. eigenvalues --   -0.85012  -0.84140  -0.83145  -0.82890  -0.82659
 Alpha  occ. eigenvalues --   -0.82341  -0.80281  -0.79682  -0.79409  -0.78344
 Alpha  occ. eigenvalues --   -0.78103  -0.77078  -0.76939  -0.76836  -0.76279
 Alpha  occ. eigenvalues --   -0.75225  -0.74691  -0.73631  -0.72611  -0.70940
 Alpha  occ. eigenvalues --   -0.70733  -0.70478  -0.68896  -0.68600  -0.67729
 Alpha  occ. eigenvalues --   -0.67350  -0.67277  -0.66738  -0.66149  -0.66117
 Alpha  occ. eigenvalues --   -0.65438  -0.65357  -0.65102  -0.64477  -0.62240
 Alpha  occ. eigenvalues --   -0.61997  -0.61794  -0.60888  -0.60713  -0.60397
 Alpha  occ. eigenvalues --   -0.59603  -0.59414  -0.58530  -0.57950  -0.57706
 Alpha  occ. eigenvalues --   -0.57153  -0.56671  -0.56533  -0.56379  -0.56231
 Alpha  occ. eigenvalues --   -0.56009  -0.55541  -0.55404  -0.55135  -0.54713
 Alpha  occ. eigenvalues --   -0.54424  -0.54329  -0.54198  -0.53957  -0.53889
 Alpha  occ. eigenvalues --   -0.53764  -0.53609  -0.53527  -0.53231  -0.52659
 Alpha  occ. eigenvalues --   -0.52534  -0.52378  -0.52275  -0.52161  -0.51778
 Alpha  occ. eigenvalues --   -0.51648  -0.51502  -0.51237  -0.50995  -0.50848
 Alpha  occ. eigenvalues --   -0.50534  -0.50433  -0.49952  -0.49878  -0.49798
 Alpha  occ. eigenvalues --   -0.49737  -0.49429  -0.49056  -0.48862  -0.48681
 Alpha  occ. eigenvalues --   -0.48265  -0.48244  -0.48048  -0.47826  -0.47765
 Alpha  occ. eigenvalues --   -0.47542  -0.47406  -0.47283  -0.47109  -0.46953
 Alpha  occ. eigenvalues --   -0.46672  -0.46473  -0.45978  -0.45880  -0.45668
 Alpha  occ. eigenvalues --   -0.45546  -0.45497  -0.45089  -0.44989  -0.44883
 Alpha  occ. eigenvalues --   -0.44795  -0.44597  -0.44423  -0.44336  -0.44044
 Alpha  occ. eigenvalues --   -0.43980  -0.43808  -0.43595  -0.43479  -0.42845
 Alpha  occ. eigenvalues --   -0.42658  -0.42513  -0.42299  -0.42048  -0.41895
 Alpha  occ. eigenvalues --   -0.41786  -0.41570  -0.41348  -0.40972  -0.40814
 Alpha  occ. eigenvalues --   -0.40583  -0.40316  -0.40067  -0.39506  -0.39345
 Alpha  occ. eigenvalues --   -0.39303  -0.39248  -0.38952  -0.38785  -0.38510
 Alpha  occ. eigenvalues --   -0.38381  -0.38025  -0.37276  -0.36970  -0.36732
 Alpha  occ. eigenvalues --   -0.36549  -0.36128  -0.35345  -0.33453  -0.33048
 Alpha  occ. eigenvalues --   -0.32378  -0.32299  -0.32053  -0.31623  -0.26062
 Alpha  occ. eigenvalues --   -0.22651
 Alpha virt. eigenvalues --   -0.06693   0.00103   0.02546   0.04587   0.06002
 Alpha virt. eigenvalues --    0.06571   0.07036   0.07576   0.08154   0.09412
 Alpha virt. eigenvalues --    0.10336   0.11158   0.11336   0.11674   0.12665

 Mulliken charges:
               1
     1  Mg   0.958558
     2  C    0.023087
     3  C   -0.099083
     4  C   -0.055528
     5  C   -0.077562
     6  N   -0.310016
     7  C   -0.023174
     8  C   -0.081136
     9  C   -0.098692
    10  C    0.069479
    11  C    0.037451
    12  C    0.038148
    13  C    0.015973
    14  C    0.210457
    15  O   -0.259643
    16  O   -0.377132
    17  N   -0.527498
    18  C    0.168437
    19  C   -0.173857
    20  C   -0.090887
    21  C    0.180695
    22  C    0.081685
    23  C    0.044241
    24  O   -0.218940
    25  C   -0.024116
    26  N   -0.381543
    27  C    0.035153
    28  C   -0.037126
    29  C   -0.116074
    30  C    0.079120
    31  C    0.030755
    32  C   -0.004848
    33  C   -0.053001
    34  N   -0.422894
    35  C    0.135994
    36  C   -0.223051
    37  C    0.035448
    38  C    0.103543
    39  C    0.073233
    40  C    0.104188
    41  O   -0.227700
    42  C   -0.055464
    43  C    0.238796
    44  O   -0.210036
    45  O   -0.373899
    46  C    0.142885
    47  C    0.260149
    48  C   -0.126825
    49  C   -0.193954
    50  C    0.033181
    51  C    0.029757
    52  C   -0.073950
    53  C   -0.010307
    54  C   -0.178067
    55  C    0.013248
    56  C    0.012841
    57  C   -0.019587
    58  C    0.003296
    59  C   -0.200217
    60  C   -0.001910
    61  C    0.029520
    62  C   -0.044804
    63  C    0.009193
    64  C   -0.182556
    65  C   -0.020977
    66  C   -0.024643
    67  H   -0.012888
    68  H    0.019376
    69  H   -0.002452
    70  H    0.023917
    71  H    0.029734
    72  H    0.054511
    73  H    0.050328
    74  H    0.050792
    75  H    0.033799
    76  H    0.047573
    77  H    0.057020
    78  H    0.029277
    79  H    0.065463
    80  H    0.051181
    81  H    0.022194
    82  H    0.049390
    83  H    0.047989
    84  H    0.068447
    85  H    0.046323
    86  H    0.039496
    87  H    0.016847
    88  H    0.051268
    89  H    0.039152
    90  H    0.035861
    91  H    0.020865
    92  H    0.034649
    93  H    0.028517
    94  H    0.034805
    95  H    0.050246
    96  H    0.036310
    97  H    0.065704
    98  H    0.074668
    99  H    0.049308
   100  H    0.050740
   101  H    0.054901
   102  H    0.036989
   103  H    0.062540
   104  H    0.020638
   105  H    0.023847
   106  H    0.042027
   107  H    0.043411
   108  H    0.047356
   109  H    0.041201
   110  H    0.021926
   111  H    0.016546
   112  H    0.035368
   113  H    0.022121
   114  H    0.019416
   115  H    0.014146
   116  H    0.034329
   117  H    0.028950
   118  H    0.007494
   119  H    0.012435
   120  H    0.023723
   121  H    0.014162
   122  H    0.017999
   123  H    0.021965
   124  H    0.020686
   125  H    0.019163
   126  H    0.034909
   127  H    0.024129
   128  H    0.014111
   129  H    0.017020
   130  H    0.004471
   131  H    0.019625
   132  H    0.014059
   133  H    0.009131
   134  H    0.028517
   135  H    0.037064
   136  H    0.022583
   137  H    0.032195
   138  H    0.031986
   139  H    0.027772
   140  H    0.020865
 Sum of Mulliken charges =  -0.00000

 Dipole moment (field-independent basis, Debye):
    X=             -5.2382    Y=              1.8577    Z=              1.6390  Tot=              5.7945
 Quadrupole moment (field-independent basis, Debye-Ang):
   XX=           -366.5826   YY=           -424.2193   ZZ=           -409.4394
   XY=             29.0022   XZ=             20.4268   YZ=             13.6371

 Normal termination of Gaussian 16 at Sat Apr 30 15:56:37 2022.
