 Gaussian 16, Revision A.03,
 Gaussian 16:  ES64L-G16RevA.03 25-Dec-2016

 --------------------
 #p ZINDO=(nstates=5)
 --------------------

 -----------------------------
 step_801_chromophore_12 ZINDO
 -----------------------------
 Symbolic Z-matrix:
 Charge =  0 Multiplicity = 1

                         Standard orientation:
 ---------------------------------------------------------------------
 Center     Atomic      Atomic             Coordinates (Angstroms)
 Number     Number       Type             X           Y           Z
 ---------------------------------------------------------------------
      1         12           0        4.370004    0.983769   -0.016229
      2          6           0        4.064214   -2.467095   -0.211158
      3          6           0        1.029636    1.221617   -0.671008
      4          6           0        4.802253    4.358730    0.086008
      5          6           0        7.855512    0.561057    0.156212
      6          7           0        2.695740   -0.450764   -0.143760
      7          6           0        2.819137   -1.781925   -0.171553
      8          6           0        1.425893   -2.471470   -0.156741
      9          6           0        0.531642   -1.290974   -0.616706
     10          6           0        1.446874   -0.083179   -0.432667
     11          6           0       -0.291053   -1.458733   -2.023190
     12          6           0        1.139494   -3.267432    1.186407
     13          6           0        0.377548   -4.555588    1.134246
     14          6           0       -0.851565   -4.809477    1.997439
     15          8           0       -0.693203   -5.284616    3.105466
     16          8           0       -2.052049   -4.670433    1.286028
     17          7           0        3.078176    2.526109   -0.235951
     18          6           0        1.713813    2.415170   -0.595024
     19          6           0        1.219836    3.747359   -0.896852
     20          6           0        2.281103    4.661816   -0.654479
     21          6           0        3.465856    3.883071   -0.204567
     22          6           0       -0.231949    3.916792   -1.301253
     23          6           0        2.318349    6.166182   -0.848303
     24          8           0        3.361933    6.758514   -0.816529
     25          6           0        1.070562    6.982458   -1.004857
     26          7           0        6.088418    2.300737    0.031401
     27          6           0        5.950372    3.672800    0.336758
     28          6           0        7.301621    4.187116    1.001823
     29          6           0        8.275505    2.950687    0.940575
     30          6           0        7.342838    1.859443    0.373573
     31          6           0        7.943103    5.452878    0.481377
     32          6           0        8.935881    2.573472    2.347392
     33          6           0       10.393401    2.464965    2.428386
     34          7           0        5.722855   -0.609167   -0.115657
     35          6           0        7.097406   -0.623560   -0.027399
     36          6           0        7.554436   -1.987541   -0.157101
     37          6           0        6.423548   -2.754282   -0.272454
     38          6           0        5.328336   -1.881013   -0.187373
     39          6           0        8.932982   -2.335872   -0.135653
     40          6           0        5.794561   -4.095417   -0.440050
     41          8           0        6.406127   -5.182163   -0.570720
     42          6           0        4.303394   -3.905592   -0.366686
     43          6           0        3.750563   -4.417493   -1.679997
     44          8           0        3.759873   -3.922751   -2.771565
     45          8           0        3.248520   -5.678150   -1.418433
     46          6           0        2.463364   -6.295703   -2.467181
     47          6           0       -3.200843   -5.100381    2.122181
     48          6           0       -4.344451   -4.944971    1.151075
     49          6           0       -5.408852   -4.098000    1.201789
     50          6           0       -5.643190   -3.113227    2.298519
     51          6           0       -6.488068   -4.108042    0.088861
     52          6           0       -7.363836   -2.872122   -0.172106
     53          6           0       -8.127022   -2.938755   -1.537296
     54          6           0       -9.431488   -2.063471   -1.595561
     55          6           0       -9.829974   -1.975215   -3.051839
     56          6           0       -9.367017   -0.661661   -0.933363
     57          6           0      -10.220347   -0.374452    0.366952
     58          6           0      -10.917676    0.946589    0.324841
     59          6           0      -10.358527    1.884103    1.426259
     60          6           0      -10.965633    1.560590    2.792313
     61          6           0      -10.653994    3.324163    1.071985
     62          6           0       -9.475985    4.356904    1.286899
     63          6           0       -9.113663    5.101154   -0.030085
     64          6           0       -7.633088    4.874978   -0.573418
     65          6           0       -6.537553    5.757102    0.192805
     66          6           0       -7.367737    5.120525   -2.104006
     67          1           0       -0.031153    1.344515   -0.895618
     68          1           0        5.038306    5.419836    0.184713
     69          1           0        8.923555    0.484316    0.371997
     70          1           0        1.419073   -3.224527   -0.944163
     71          1           0       -0.229467   -1.309454    0.162539
     72          1           0       -0.293147   -2.539003   -2.166107
     73          1           0        0.265205   -0.884930   -2.764713
     74          1           0       -1.216018   -0.920213   -1.817419
     75          1           0        0.496139   -2.675568    1.837051
     76          1           0        2.058451   -3.515321    1.718406
     77          1           0        1.053993   -5.364134    1.411554
     78          1           0        0.190054   -4.726712    0.074602
     79          1           0       -0.881181    3.741830   -0.442244
     80          1           0       -0.378308    3.177547   -2.088430
     81          1           0       -0.361868    4.913361   -1.722172
     82          1           0        1.167711    8.053623   -0.830624
     83          1           0        0.384486    6.619745   -0.239709
     84          1           0        0.635528    6.886548   -2.000165
     85          1           0        6.983554    4.328852    2.033674
     86          1           0        9.152177    3.104043    0.310882
     87          1           0        8.195832    6.120783    1.305930
     88          1           0        7.252861    6.115997   -0.039730
     89          1           0        8.916999    5.283162    0.022014
     90          1           0        8.447556    1.713203    2.805809
     91          1           0        8.618110    3.391059    2.994387
     92          1           0       10.879897    3.329057    2.880992
     93          1           0       10.886967    2.343467    1.463316
     94          1           0       10.758979    1.636687    3.034285
     95          1           0        9.076227   -3.325047    0.298858
     96          1           0        9.334538   -1.552938    0.507054
     97          1           0        9.374172   -2.405853   -1.129633
     98          1           0        4.013889   -4.652946    0.372306
     99          1           0        3.123082   -6.405539   -3.327363
    100          1           0        1.569955   -5.745560   -2.765249
    101          1           0        2.269389   -7.331032   -2.187540
    102          1           0       -3.279767   -4.391403    2.947382
    103          1           0       -3.168620   -6.132493    2.471566
    104          1           0       -4.540234   -5.769973    0.465548
    105          1           0       -4.835450   -2.959848    3.013565
    106          1           0       -6.362217   -3.593877    2.961046
    107          1           0       -6.063482   -2.145112    2.026712
    108          1           0       -7.135815   -4.958929    0.301557
    109          1           0       -6.051693   -4.210453   -0.904755
    110          1           0       -6.763906   -1.961656   -0.189792
    111          1           0       -8.067747   -2.628478    0.623668
    112          1           0       -8.307118   -3.965564   -1.854229
    113          1           0       -7.408830   -2.447461   -2.193905
    114          1           0      -10.220999   -2.574164   -1.044759
    115          1           0       -9.226484   -2.679351   -3.625134
    116          1           0       -9.694301   -1.007637   -3.534543
    117          1           0      -10.840753   -2.350237   -3.217726
    118          1           0       -9.735295    0.043276   -1.679269
    119          1           0       -8.345824   -0.333256   -0.738937
    120          1           0       -9.588818   -0.450667    1.252439
    121          1           0      -11.040437   -1.085506    0.461469
    122          1           0      -11.972457    0.754980    0.525348
    123          1           0      -10.849673    1.427839   -0.651029
    124          1           0       -9.299395    1.671523    1.575693
    125          1           0      -11.719522    0.777571    2.705035
    126          1           0      -11.478077    2.304786    3.402728
    127          1           0      -10.107423    1.190156    3.352973
    128          1           0      -11.382427    3.704411    1.787916
    129          1           0      -11.080568    3.486016    0.082002
    130          1           0       -8.604626    3.836281    1.684402
    131          1           0       -9.654623    5.047951    2.110505
    132          1           0       -9.264933    6.170925    0.107705
    133          1           0       -9.960532    4.864621   -0.673748
    134          1           0       -7.408348    3.826624   -0.383116
    135          1           0       -5.741473    6.145325   -0.443338
    136          1           0       -6.036660    5.144850    0.942133
    137          1           0       -7.056265    6.532157    0.755278
    138          1           0       -6.720894    5.942973   -2.412024
    139          1           0       -8.250624    5.144863   -2.743396
    140          1           0       -6.792349    4.248770   -2.416434
 ---------------------------------------------------------------------

 SCF Done:  E(RZINDO/S) =  -474.350786012     A.U. after   20 cycles

 Excitation energies and oscillator strengths:

 Excited State   1:      Singlet-A      1.2591 eV  984.68 nm  f=0.5702  <S**2>=0.000
     175 ->178        -0.19083
     176 ->177         0.66306
 This state for optimization and/or second-order correction.
 Total Energy, E(CIS/TDA) =  -474.304513984
 Copying the excited state density for this state as the 1-particle RhoCI density.

 Excited State   2:      Singlet-A      1.9387 eV  639.53 nm  f=0.0167  <S**2>=0.000
     175 ->177         0.51816
     176 ->178         0.45368

 Excited State   3:      Singlet-A      2.9167 eV  425.09 nm  f=0.0168  <S**2>=0.000
     167 ->179         0.11643
     168 ->177         0.34033
     168 ->178        -0.17216
     168 ->179        -0.40689
     168 ->181         0.14151
     168 ->183        -0.11794
     168 ->186        -0.18957
     176 ->179         0.10480

 Excited State   4:      Singlet-A      2.9491 eV  420.41 nm  f=0.6274  <S**2>=0.000
     168 ->179         0.10743
     175 ->177        -0.31646
     176 ->178         0.43285
     176 ->179         0.37725

 Excited State   5:      Singlet-A      3.0163 eV  411.05 nm  f=0.0576  <S**2>=0.000
     169 ->181         0.17463
     169 ->187         0.10361
     170 ->177         0.20935
     170 ->179         0.21695
     170 ->181         0.38892
     170 ->183        -0.14243
     170 ->186         0.16764
     170 ->187         0.20483
     170 ->201        -0.10276
     176 ->179        -0.13961
     176 ->181        -0.10392

 The electronic state is 1-A.
 Alpha  occ. eigenvalues --   -1.86921  -1.80377  -1.76747  -1.74185  -1.72086
 Alpha  occ. eigenvalues --   -1.69098  -1.65976  -1.60258  -1.59931  -1.59626
 Alpha  occ. eigenvalues --   -1.54074  -1.52168  -1.49096  -1.48990  -1.48013
 Alpha  occ. eigenvalues --   -1.45397  -1.45047  -1.40059  -1.39576  -1.38629
 Alpha  occ. eigenvalues --   -1.37571  -1.35476  -1.33838  -1.32155  -1.29186
 Alpha  occ. eigenvalues --   -1.29060  -1.24924  -1.22206  -1.20264  -1.18775
 Alpha  occ. eigenvalues --   -1.18664  -1.15854  -1.14534  -1.14387  -1.12744
 Alpha  occ. eigenvalues --   -1.12094  -1.11407  -1.09475  -1.04565  -1.03453
 Alpha  occ. eigenvalues --   -1.02689  -1.01388  -0.99373  -0.97819  -0.97273
 Alpha  occ. eigenvalues --   -0.96820  -0.94160  -0.93790  -0.92313  -0.91275
 Alpha  occ. eigenvalues --   -0.91150  -0.89800  -0.89335  -0.88478  -0.88283
 Alpha  occ. eigenvalues --   -0.85946  -0.84345  -0.83603  -0.82596  -0.80548
 Alpha  occ. eigenvalues --   -0.79572  -0.79386  -0.78373  -0.77617  -0.77380
 Alpha  occ. eigenvalues --   -0.76106  -0.75818  -0.75352  -0.74222  -0.73680
 Alpha  occ. eigenvalues --   -0.73043  -0.72179  -0.71770  -0.71094  -0.70694
 Alpha  occ. eigenvalues --   -0.70233  -0.69040  -0.68686  -0.68460  -0.67935
 Alpha  occ. eigenvalues --   -0.67308  -0.67100  -0.66908  -0.66297  -0.65848
 Alpha  occ. eigenvalues --   -0.65427  -0.65113  -0.64753  -0.64506  -0.64096
 Alpha  occ. eigenvalues --   -0.63664  -0.63404  -0.62868  -0.62821  -0.62278
 Alpha  occ. eigenvalues --   -0.62012  -0.61416  -0.61218  -0.60604  -0.59973
 Alpha  occ. eigenvalues --   -0.59552  -0.59334  -0.58790  -0.58315  -0.57920
 Alpha  occ. eigenvalues --   -0.57840  -0.57402  -0.56937  -0.56881  -0.56619
 Alpha  occ. eigenvalues --   -0.56514  -0.56177  -0.55333  -0.54764  -0.54401
 Alpha  occ. eigenvalues --   -0.54170  -0.53726  -0.53333  -0.52774  -0.52705
 Alpha  occ. eigenvalues --   -0.52270  -0.51792  -0.51598  -0.51582  -0.51263
 Alpha  occ. eigenvalues --   -0.51070  -0.50728  -0.50636  -0.50482  -0.50150
 Alpha  occ. eigenvalues --   -0.50069  -0.50011  -0.49528  -0.49164  -0.49061
 Alpha  occ. eigenvalues --   -0.48665  -0.48385  -0.48099  -0.47853  -0.47741
 Alpha  occ. eigenvalues --   -0.47275  -0.47077  -0.46824  -0.46754  -0.46514
 Alpha  occ. eigenvalues --   -0.46378  -0.45951  -0.45613  -0.45506  -0.45419
 Alpha  occ. eigenvalues --   -0.44947  -0.44902  -0.44780  -0.44651  -0.44397
 Alpha  occ. eigenvalues --   -0.43964  -0.43580  -0.43245  -0.42795  -0.42516
 Alpha  occ. eigenvalues --   -0.42344  -0.42340  -0.42140  -0.39510  -0.39292
 Alpha  occ. eigenvalues --   -0.38537  -0.37290  -0.35733  -0.34913  -0.34193
 Alpha  occ. eigenvalues --   -0.33562  -0.32543  -0.32490  -0.32320  -0.26754
 Alpha  occ. eigenvalues --   -0.21544
 Alpha virt. eigenvalues --   -0.08213  -0.02177  -0.00531   0.01015   0.01489
 Alpha virt. eigenvalues --    0.02804   0.02929   0.03463   0.03964   0.04979
 Alpha virt. eigenvalues --    0.06583   0.06814   0.07387   0.07643   0.08095

 Mulliken charges:
               1
     1  Mg   0.420245
     2  C   -0.052353
     3  C   -0.056983
     4  C   -0.047744
     5  C   -0.084890
     6  N   -0.253041
     7  C    0.135212
     8  C   -0.002069
     9  C   -0.012514
    10  C    0.112598
    11  C   -0.055649
    12  C   -0.016745
    13  C    0.002716
    14  C    0.465483
    15  O   -0.501389
    16  O   -0.265605
    17  N   -0.333398
    18  C    0.077269
    19  C   -0.003408
    20  C   -0.052516
    21  C    0.125906
    22  C   -0.043905
    23  C    0.330827
    24  O   -0.520162
    25  C   -0.027305
    26  N   -0.283683
    27  C    0.105078
    28  C    0.012762
    29  C   -0.004431
    30  C    0.151957
    31  C   -0.053389
    32  C   -0.024920
    33  C   -0.046947
    34  N   -0.329687
    35  C    0.114143
    36  C    0.065532
    37  C   -0.051038
    38  C    0.122034
    39  C   -0.037488
    40  C    0.337954
    41  O   -0.527946
    42  C    0.069735
    43  C    0.490525
    44  O   -0.507885
    45  O   -0.279728
    46  C    0.073421
    47  C    0.110155
    48  C   -0.103728
    49  C    0.004711
    50  C   -0.043903
    51  C   -0.021747
    52  C   -0.040514
    53  C   -0.036423
    54  C   -0.006044
    55  C   -0.055679
    56  C   -0.039855
    57  C   -0.036054
    58  C   -0.030598
    59  C   -0.003223
    60  C   -0.060534
    61  C   -0.037971
    62  C   -0.044017
    63  C   -0.037945
    64  C   -0.008213
    65  C   -0.060685
    66  C   -0.060886
    67  H    0.018623
    68  H    0.045588
    69  H    0.026755
    70  H    0.025211
    71  H    0.020100
    72  H    0.039678
    73  H    0.032339
    74  H    0.030429
    75  H    0.025594
    76  H    0.029550
    77  H    0.034965
    78  H    0.026744
    79  H    0.036704
    80  H    0.030315
    81  H    0.022078
    82  H    0.034825
    83  H    0.024531
    84  H    0.039144
    85  H    0.033308
    86  H    0.039616
    87  H    0.007623
    88  H    0.034129
    89  H    0.027426
    90  H    0.022585
    91  H    0.013142
    92  H    0.016232
    93  H    0.015277
    94  H    0.015315
    95  H    0.030505
    96  H    0.029986
    97  H    0.045325
    98  H    0.065527
    99  H    0.040873
   100  H    0.044838
   101  H    0.032324
   102  H    0.048119
   103  H    0.057321
   104  H    0.026692
   105  H    0.021156
   106  H    0.025274
   107  H    0.028565
   108  H    0.029093
   109  H    0.025614
   110  H    0.014388
   111  H    0.014635
   112  H    0.028173
   113  H    0.017059
   114  H    0.018571
   115  H    0.008685
   116  H    0.024431
   117  H    0.014754
   118  H    0.014482
   119  H    0.018155
   120  H    0.022226
   121  H    0.015358
   122  H    0.016289
   123  H    0.020034
   124  H    0.025630
   125  H    0.013247
   126  H    0.024728
   127  H    0.011025
   128  H    0.012254
   129  H    0.024603
   130  H    0.012625
   131  H    0.018932
   132  H    0.012049
   133  H    0.023801
   134  H    0.021068
   135  H    0.026683
   136  H    0.010870
   137  H    0.022649
   138  H    0.024469
   139  H    0.017247
   140  H    0.008418
 Sum of Mulliken charges =  -0.00000

 Dipole moment (field-independent basis, Debye):
    X=             -5.7419    Y=              1.1647    Z=              3.1281  Tot=              6.6416
 N-N= 4.380924305210D+03 E-N= 0.000000000000D+00  KE=-9.435783105496D+03
 Leave Link  601 at Sat Apr 30 16:09:15 2022, MaxMem=  6710886400 cpu:               1.7 elap:               0.1
 (Enter /sw/apps/gaussian-16.0/g16/l9999.exe)
 1\1\GINC-BP1-COMPUTE176\SP\RZINDO CIS\STO-3G\C55H74Mg1N4O6\OF15641\30-
 Apr-2022\0\\#p ZINDO=(nstates=5)\\step_801_chromophore_12 ZINDO\\0,1\M
 g,0,47.329,16.531,28.286\C,0,45.473,15.447,31.01\C,0,48.929,18.713,30.
 365\C,0,49.015,17.598,25.528\C,0,45.248,14.586,26.226\N,0,47.396,16.84
 5,30.471\C,0,46.574,16.276,31.359\C,0,46.983,16.644,32.813\C,0,47.853,
 17.899,32.543\C,0,48.121,17.807,31.043\C,0,47.354,19.325,33.176\C,0,47
 .532,15.404,33.638\C,0,47.215,15.288,35.097\C,0,48.296,15.086,36.151\O

 Normal termination of Gaussian 16 at Sat Apr 30 16:09:15 2022.
