 Gaussian 16, Revision A.03,
 Gaussian 16:  ES64L-G16RevA.03 25-Dec-2016

 ------------------------------
 #p blyp/Def2SVP td=(nstates=5)
 ------------------------------

 -------------------------------------------------
 step_51_chromophore_11 TDDFT with blyp functional
 -------------------------------------------------
 Symbolic Z-matrix:
 Charge =  0 Multiplicity = 1

                         Standard orientation:
 ---------------------------------------------------------------------
 Center     Atomic      Atomic             Coordinates (Angstroms)
 Number     Number       Type             X           Y           Z
 ---------------------------------------------------------------------
      1         12           0       -4.697506    1.311729    0.607455
      2          6           0       -5.164978   -2.128532    0.223225
      3          6           0       -2.358833    0.593970    2.989900
      4          6           0       -3.781936    4.483809    0.406029
      5          6           0       -7.166867    1.779261   -1.844905
      6          7           0       -3.788296   -0.615113    1.467669
      7          6           0       -4.135388   -1.880240    1.132247
      8          6           0       -3.390020   -2.861072    2.138999
      9          6           0       -2.657896   -1.960198    3.122409
     10          6           0       -2.980159   -0.611540    2.578086
     11          6           0       -3.089926   -2.084279    4.594419
     12          6           0       -2.498588   -4.090728    1.482842
     13          6           0       -1.308820   -3.670109    0.593032
     14          6           0       -0.155872   -4.703502    0.376052
     15          8           0       -0.091376   -5.512585   -0.543516
     16          8           0        0.840495   -4.531451    1.282948
     17          7           0       -3.317184    2.397801    1.633330
     18          6           0       -2.527050    1.957083    2.621616
     19          6           0       -1.714642    3.037157    3.080984
     20          6           0       -2.051963    4.183602    2.290678
     21          6           0       -3.081677    3.715105    1.379685
     22          6           0       -0.623621    2.832095    4.172293
     23          6           0       -1.573529    5.531686    2.462643
     24          8           0       -0.677517    5.713456    3.237421
     25          6           0       -2.273405    6.712627    1.886043
     26          7           0       -5.275071    2.827496   -0.632168
     27          6           0       -4.809833    4.117099   -0.449819
     28          6           0       -5.370894    5.091905   -1.481843
     29          6           0       -6.630809    4.316001   -2.037597
     30          6           0       -6.337420    2.878175   -1.525978
     31          6           0       -5.685538    6.509662   -0.973749
     32          6           0       -6.852269    4.372250   -3.521170
     33          6           0       -6.688165    5.823850   -4.143585
     34          7           0       -6.085627    0.102906   -0.498976
     35          6           0       -7.086484    0.464263   -1.418861
     36          6           0       -7.896586   -0.726256   -1.680193
     37          6           0       -7.167735   -1.705872   -1.101182
     38          6           0       -6.006556   -1.216682   -0.476403
     39          6           0       -9.100302   -0.775273   -2.525734
     40          6           0       -7.046464   -3.174714   -1.006934
     41          8           0       -7.849044   -3.990997   -1.446221
     42          6           0       -5.804516   -3.423204   -0.093120
     43          6           0       -4.926878   -4.154773   -1.060547
     44          8           0       -4.413494   -3.674784   -2.059495
     45          8           0       -4.890059   -5.479227   -0.670122
     46          6           0       -3.970668   -6.407279   -1.420165
     47          6           0        2.042804   -5.307073    1.117403
     48          6           0        2.823880   -4.608884    0.019937
     49          6           0        4.065909   -4.053057    0.030887
     50          6           0        4.992002   -3.987811    1.235022
     51          6           0        4.533158   -3.213250   -1.105592
     52          6           0        4.647736   -1.685662   -0.914437
     53          6           0        6.158745   -1.229713   -1.003020
     54          6           0        6.365890   -0.045358   -2.034699
     55          6           0        6.673203   -0.608118   -3.455380
     56          6           0        7.226252    1.036346   -1.436263
     57          6           0        8.601155    0.471082   -1.095519
     58          6           0        9.164584    0.942867    0.220931
     59          6           0       10.667251    0.541819    0.428636
     60          6           0       10.884333    0.173247    1.897785
     61          6           0       11.591521    1.740494   -0.033588
     62          6           0       12.521369    1.299700   -1.215397
     63          6           0       13.754327    2.204341   -1.251313
     64          6           0       15.057993    1.485195   -0.654234
     65          6           0       16.025526    2.623001   -0.286719
     66          6           0       15.633366    0.343722   -1.550235
     67          1           0       -1.525360    0.496823    3.688259
     68          1           0       -3.341983    5.403905    0.014641
     69          1           0       -7.953566    1.996667   -2.570410
     70          1           0       -4.205085   -3.329976    2.690767
     71          1           0       -1.590770   -2.172383    3.058519
     72          1           0       -2.181539   -2.220421    5.180403
     73          1           0       -3.596123   -3.048030    4.661172
     74          1           0       -3.725832   -1.264736    4.928352
     75          1           0       -3.166466   -4.678279    0.853457
     76          1           0       -2.173524   -4.693444    2.330368
     77          1           0       -0.877247   -2.757185    1.003532
     78          1           0       -1.651836   -3.386300   -0.402116
     79          1           0        0.278268    3.440159    4.089022
     80          1           0       -0.219644    1.820016    4.138320
     81          1           0       -0.988503    3.022858    5.181340
     82          1           0       -1.902769    6.753013    0.861373
     83          1           0       -2.047687    7.596358    2.482339
     84          1           0       -3.359924    6.630360    1.896124
     85          1           0       -4.561129    5.245690   -2.195914
     86          1           0       -7.561441    4.711825   -1.632850
     87          1           0       -6.707478    6.801565   -1.215206
     88          1           0       -5.012651    7.229500   -1.440313
     89          1           0       -5.691308    6.673992    0.104237
     90          1           0       -7.829729    3.987187   -3.811140
     91          1           0       -6.026769    3.751016   -3.868378
     92          1           0       -5.700000    5.762928   -4.598063
     93          1           0       -6.681128    6.621280   -3.400495
     94          1           0       -7.469508    6.123211   -4.842372
     95          1           0       -9.029015   -0.164190   -3.425417
     96          1           0      -10.054720   -0.761334   -2.000224
     97          1           0       -9.085715   -1.766649   -2.977410
     98          1           0       -5.968003   -4.053636    0.780834
     99          1           0       -4.537187   -7.218538   -1.879027
    100          1           0       -3.244242   -6.924547   -0.793331
    101          1           0       -3.475443   -5.833681   -2.202943
    102          1           0        1.807582   -6.337290    0.851411
    103          1           0        2.514506   -5.290456    2.099774
    104          1           0        2.234792   -4.375379   -0.867248
    105          1           0        5.639125   -4.854891    1.102743
    106          1           0        4.483279   -4.147650    2.186227
    107          1           0        5.671158   -3.136180    1.234565
    108          1           0        3.921923   -3.314716   -2.002477
    109          1           0        5.460502   -3.658058   -1.464789
    110          1           0        4.408605   -1.490170    0.131584
    111          1           0        3.957143   -1.075914   -1.497631
    112          1           0        6.744006   -2.116870   -1.244934
    113          1           0        6.418380   -0.974772    0.024236
    114          1           0        5.378022    0.404960   -2.131134
    115          1           0        5.896631   -0.229208   -4.119583
    116          1           0        6.394717   -1.661043   -3.509312
    117          1           0        7.609511   -0.231130   -3.867073
    118          1           0        6.648564    1.641142   -0.737009
    119          1           0        7.403452    1.847412   -2.142880
    120          1           0        9.346135    0.743498   -1.843995
    121          1           0        8.729149   -0.609347   -1.041470
    122          1           0        8.464332    0.575487    0.970910
    123          1           0        8.899399    2.000203    0.200992
    124          1           0       10.828010   -0.375035   -0.136870
    125          1           0       11.893368    0.414864    2.232702
    126          1           0       10.725678   -0.887758    2.094112
    127          1           0       10.289597    0.717874    2.630775
    128          1           0       12.247398    2.226790    0.687778
    129          1           0       10.943758    2.558148   -0.349960
    130          1           0       11.973859    1.395978   -2.153386
    131          1           0       12.736601    0.242912   -1.058147
    132          1           0       13.564852    3.104090   -0.666472
    133          1           0       14.036195    2.508728   -2.259348
    134          1           0       14.743047    1.018905    0.280248
    135          1           0       16.565538    2.805470   -1.216226
    136          1           0       16.772590    2.287094    0.432420
    137          1           0       15.573131    3.543321    0.081986
    138          1           0       15.500440   -0.638137   -1.097456
    139          1           0       16.683337    0.583993   -1.711019
    140          1           0       14.949718    0.371056   -2.399657
 ---------------------------------------------------------------------

 SCF Done:  E(RB-LYP) =  -3007.36760448     A.U. after   20 cycles

 Excitation energies and oscillator strengths:

 Excited State   1:      Singlet-A      1.6579 eV  747.85 nm  f=0.0002  <S**2>=0.000
     244 -> 247        0.70244
 This state for optimization and/or second-order correction.
 Total Energy, E(TD-HF/TD-DFT) =  -3007.30667828
 Copying the excited state density for this state as the 1-particle RhoCI density.

 Excited State   2:      Singlet-A      1.7870 eV  693.83 nm  f=0.2529  <S**2>=0.000
     245 -> 248       -0.19021
     246 -> 247        0.68353
     246 <- 247       -0.14454

 Excited State   3:      Singlet-A      1.9628 eV  631.68 nm  f=0.0343  <S**2>=0.000
     243 -> 247        0.60221
     245 -> 247       -0.33115
     246 -> 248       -0.11988

 Excited State   4:      Singlet-A      2.0031 eV  618.97 nm  f=0.0574  <S**2>=0.000
     243 -> 247        0.36273
     245 -> 247        0.54622
     246 -> 248        0.23258

 Excited State   5:      Singlet-A      2.2845 eV  542.73 nm  f=0.0000  <S**2>=0.000
     242 -> 247        0.70698

 The electronic state is 1-A.
 Alpha  occ. eigenvalues --  -46.26883 -18.82284 -18.82051 -18.76932 -18.76818
 Alpha  occ. eigenvalues --  -18.76145 -18.74239 -14.03537 -14.03401 -14.00939
 Alpha  occ. eigenvalues --  -14.00213 -10.04411 -10.03920  -9.99905  -9.98267
 Alpha  occ. eigenvalues --   -9.98182  -9.97184  -9.97149  -9.96905  -9.96731
 Alpha  occ. eigenvalues --   -9.96483  -9.95844  -9.95338  -9.95178  -9.95163
 Alpha  occ. eigenvalues --   -9.94525  -9.94357  -9.94236  -9.94219  -9.94206
 Alpha  occ. eigenvalues --   -9.93883  -9.93843  -9.93708  -9.93480  -9.93317
 Alpha  occ. eigenvalues --   -9.93019  -9.93014  -9.92999  -9.92948  -9.92771
 Alpha  occ. eigenvalues --   -9.92630  -9.92551  -9.92378  -9.92316  -9.92272
 Alpha  occ. eigenvalues --   -9.92132  -9.91829  -9.91802  -9.91751  -9.91632
 Alpha  occ. eigenvalues --   -9.91554  -9.91453  -9.91409  -9.91345  -9.91172
 Alpha  occ. eigenvalues --   -9.91105  -9.91075  -9.91005  -9.90997  -9.90971
 Alpha  occ. eigenvalues --   -9.90894  -9.90594  -9.90591  -9.90487  -9.90396
 Alpha  occ. eigenvalues --   -9.90320  -2.91575  -1.72004  -1.71478  -1.71267
 Alpha  occ. eigenvalues --   -0.98635  -0.96855  -0.92208  -0.91376  -0.89968
 Alpha  occ. eigenvalues --   -0.89638  -0.86827  -0.86222  -0.85906  -0.84961
 Alpha  occ. eigenvalues --   -0.76139  -0.73589  -0.73035  -0.72976  -0.72810
 Alpha  occ. eigenvalues --   -0.72107  -0.71759  -0.71068  -0.70526  -0.70399
 Alpha  occ. eigenvalues --   -0.69621  -0.69053  -0.68059  -0.67723  -0.67302
 Alpha  occ. eigenvalues --   -0.66395  -0.65644  -0.65218  -0.64884  -0.64640
 Alpha  occ. eigenvalues --   -0.64146  -0.62591  -0.62261  -0.61731  -0.60769
 Alpha  occ. eigenvalues --   -0.60572  -0.60266  -0.60118  -0.59916  -0.58557
 Alpha  occ. eigenvalues --   -0.58405  -0.58212  -0.57319  -0.56160  -0.55195
 Alpha  occ. eigenvalues --   -0.53897  -0.53385  -0.53147  -0.52633  -0.51487
 Alpha  occ. eigenvalues --   -0.51465  -0.51244  -0.50757  -0.50426  -0.50261
 Alpha  occ. eigenvalues --   -0.49534  -0.48226  -0.48077  -0.48063  -0.46748
 Alpha  occ. eigenvalues --   -0.46578  -0.46103  -0.45805  -0.45550  -0.44703
 Alpha  occ. eigenvalues --   -0.44376  -0.44261  -0.43928  -0.42876  -0.42749
 Alpha  occ. eigenvalues --   -0.42480  -0.41985  -0.41682  -0.41571  -0.41204
 Alpha  occ. eigenvalues --   -0.40938  -0.40728  -0.40409  -0.40198  -0.40001
 Alpha  occ. eigenvalues --   -0.39848  -0.39834  -0.39697  -0.39393  -0.38923
 Alpha  occ. eigenvalues --   -0.38824  -0.38517  -0.38463  -0.38136  -0.38051
 Alpha  occ. eigenvalues --   -0.37896  -0.37576  -0.37463  -0.37308  -0.37256
 Alpha  occ. eigenvalues --   -0.37090  -0.37007  -0.36703  -0.36636  -0.36341
 Alpha  occ. eigenvalues --   -0.36225  -0.36179  -0.35825  -0.35496  -0.35383
 Alpha  occ. eigenvalues --   -0.35271  -0.35192  -0.35122  -0.34886  -0.34857
 Alpha  occ. eigenvalues --   -0.34576  -0.34097  -0.34052  -0.33953  -0.33588
 Alpha  occ. eigenvalues --   -0.33518  -0.33464  -0.33363  -0.32999  -0.32918
 Alpha  occ. eigenvalues --   -0.32748  -0.32695  -0.32537  -0.32452  -0.32331
 Alpha  occ. eigenvalues --   -0.32159  -0.31900  -0.31810  -0.31699  -0.31672
 Alpha  occ. eigenvalues --   -0.31494  -0.31366  -0.31239  -0.31083  -0.30914
 Alpha  occ. eigenvalues --   -0.30678  -0.30484  -0.30325  -0.30250  -0.29927
 Alpha  occ. eigenvalues --   -0.29826  -0.29671  -0.29570  -0.29482  -0.29060
 Alpha  occ. eigenvalues --   -0.28969  -0.28839  -0.28476  -0.28246  -0.28129
 Alpha  occ. eigenvalues --   -0.27880  -0.26753  -0.26589  -0.26344  -0.26320
 Alpha  occ. eigenvalues --   -0.26275  -0.25875  -0.25828  -0.25346  -0.24978
 Alpha  occ. eigenvalues --   -0.24898  -0.24655  -0.24368  -0.23859  -0.23746
 Alpha  occ. eigenvalues --   -0.23655  -0.22627  -0.22022  -0.21733  -0.20516
 Alpha  occ. eigenvalues --   -0.20279  -0.20130  -0.18848  -0.17766  -0.17398
 Alpha  occ. eigenvalues --   -0.16009
 Alpha virt. eigenvalues --   -0.11735  -0.07124  -0.06109  -0.04684  -0.03227
 Alpha virt. eigenvalues --   -0.02153  -0.01983  -0.01791  -0.01544  -0.00142
 Alpha virt. eigenvalues --    0.01257   0.01526   0.02574   0.02669   0.03097

 Mulliken charges:
               1
     1  Mg   0.692424
     2  C    0.062629
     3  C   -0.040652
     4  C   -0.078431
     5  C   -0.073961
     6  N   -0.187823
     7  C   -0.092081
     8  C    0.051288
     9  C   -0.009069
    10  C   -0.003550
    11  C    0.154295
    12  C    0.093626
    13  C    0.118767
    14  C    0.074587
    15  O   -0.202528
    16  O   -0.256629
    17  N   -0.285220
    18  C    0.107096
    19  C   -0.112705
    20  C    0.074668
    21  C    0.136813
    22  C    0.156307
    23  C   -0.153641
    24  O   -0.147286
    25  C    0.145886
    26  N   -0.269861
    27  C    0.010656
    28  C    0.017501
    29  C    0.041445
    30  C    0.042477
    31  C    0.122721
    32  C    0.049497
    33  C    0.071926
    34  N   -0.257317
    35  C    0.116858
    36  C   -0.166344
    37  C    0.107687
    38  C    0.053595
    39  C    0.175741
    40  C   -0.022976
    41  O   -0.128345
    42  C    0.061672
    43  C    0.099065
    44  O   -0.171436
    45  O   -0.284841
    46  C    0.194820
    47  C    0.348021
    48  C   -0.119878
    49  C   -0.138776
    50  C    0.143960
    51  C    0.122513
    52  C    0.071801
    53  C    0.038658
    54  C   -0.059612
    55  C    0.145682
    56  C    0.147837
    57  C    0.040126
    58  C    0.078258
    59  C   -0.016703
    60  C    0.099301
    61  C    0.099393
    62  C    0.071954
    63  C    0.070986
    64  C   -0.127831
    65  C    0.107466
    66  C    0.134400
    67  H   -0.075005
    68  H   -0.048100
    69  H   -0.071382
    70  H   -0.030102
    71  H   -0.010876
    72  H   -0.009456
    73  H   -0.018530
    74  H    0.010255
    75  H    0.001848
    76  H   -0.015403
    77  H   -0.012377
    78  H    0.009078
    79  H   -0.001278
    80  H   -0.014456
    81  H   -0.000608
    82  H    0.011070
    83  H   -0.009943
    84  H    0.005556
    85  H   -0.010365
    86  H   -0.021455
    87  H   -0.009575
    88  H   -0.011090
    89  H   -0.012295
    90  H   -0.004096
    91  H   -0.018515
    92  H   -0.003343
    93  H   -0.024673
    94  H   -0.003876
    95  H   -0.005979
    96  H    0.009129
    97  H   -0.010692
    98  H   -0.013361
    99  H    0.018123
   100  H    0.025161
   101  H    0.033533
   102  H   -0.001217
   103  H   -0.020312
   104  H   -0.020471
   105  H   -0.008601
   106  H   -0.009278
   107  H   -0.003987
   108  H   -0.044241
   109  H   -0.026925
   110  H   -0.029542
   111  H   -0.011926
   112  H   -0.021771
   113  H   -0.021074
   114  H   -0.050050
   115  H   -0.035905
   116  H   -0.023299
   117  H   -0.004947
   118  H   -0.035165
   119  H   -0.055417
   120  H   -0.040769
   121  H   -0.031020
   122  H   -0.047274
   123  H   -0.040653
   124  H   -0.031651
   125  H   -0.029976
   126  H   -0.020438
   127  H   -0.020010
   128  H   -0.027902
   129  H   -0.034416
   130  H   -0.029446
   131  H   -0.025396
   132  H   -0.031522
   133  H   -0.038311
   134  H   -0.039655
   135  H   -0.023563
   136  H   -0.021342
   137  H   -0.011362
   138  H   -0.011924
   139  H   -0.009037
   140  H   -0.014032
 Sum of Mulliken charges =  -0.00000

 Dipole moment (field-independent basis, Debye):
    X=              0.3016    Y=              1.9948    Z=              1.3986  Tot=              2.4549
 Quadrupole moment (field-independent basis, Debye-Ang):
   XX=           -398.3967   YY=           -407.1506   ZZ=           -404.8537
   XY=            -46.0892   XZ=             -5.3759   YZ=            -39.5177

 Normal termination of Gaussian 16 at Thu May  5 03:04:45 2022.
