 Gaussian 16, Revision A.03,
 Gaussian 16:  ES64L-G16RevA.03 25-Dec-2016

 -----------------------------------
 #p cam-b3lyp/Def2SVP td=(nstates=5)
 -----------------------------------

 ------------------------------------------------------
 step_51_chromophore_11 TDDFT with cam-b3lyp functional
 ------------------------------------------------------
 Symbolic Z-matrix:
 Charge =  0 Multiplicity = 1

                         Standard orientation:
 ---------------------------------------------------------------------
 Center     Atomic      Atomic             Coordinates (Angstroms)
 Number     Number       Type             X           Y           Z
 ---------------------------------------------------------------------
      1         12           0       -4.697506    1.311729    0.607455
      2          6           0       -5.164978   -2.128532    0.223225
      3          6           0       -2.358833    0.593970    2.989900
      4          6           0       -3.781936    4.483809    0.406029
      5          6           0       -7.166867    1.779261   -1.844905
      6          7           0       -3.788296   -0.615113    1.467669
      7          6           0       -4.135388   -1.880240    1.132247
      8          6           0       -3.390020   -2.861072    2.138999
      9          6           0       -2.657896   -1.960198    3.122409
     10          6           0       -2.980159   -0.611540    2.578086
     11          6           0       -3.089926   -2.084279    4.594419
     12          6           0       -2.498588   -4.090728    1.482842
     13          6           0       -1.308820   -3.670109    0.593032
     14          6           0       -0.155872   -4.703502    0.376052
     15          8           0       -0.091376   -5.512585   -0.543516
     16          8           0        0.840495   -4.531451    1.282948
     17          7           0       -3.317184    2.397801    1.633330
     18          6           0       -2.527050    1.957083    2.621616
     19          6           0       -1.714642    3.037157    3.080984
     20          6           0       -2.051963    4.183602    2.290678
     21          6           0       -3.081677    3.715105    1.379685
     22          6           0       -0.623621    2.832095    4.172293
     23          6           0       -1.573529    5.531686    2.462643
     24          8           0       -0.677517    5.713456    3.237421
     25          6           0       -2.273405    6.712627    1.886043
     26          7           0       -5.275071    2.827496   -0.632168
     27          6           0       -4.809833    4.117099   -0.449819
     28          6           0       -5.370894    5.091905   -1.481843
     29          6           0       -6.630809    4.316001   -2.037597
     30          6           0       -6.337420    2.878175   -1.525978
     31          6           0       -5.685538    6.509662   -0.973749
     32          6           0       -6.852269    4.372250   -3.521170
     33          6           0       -6.688165    5.823850   -4.143585
     34          7           0       -6.085627    0.102906   -0.498976
     35          6           0       -7.086484    0.464263   -1.418861
     36          6           0       -7.896586   -0.726256   -1.680193
     37          6           0       -7.167735   -1.705872   -1.101182
     38          6           0       -6.006556   -1.216682   -0.476403
     39          6           0       -9.100302   -0.775273   -2.525734
     40          6           0       -7.046464   -3.174714   -1.006934
     41          8           0       -7.849044   -3.990997   -1.446221
     42          6           0       -5.804516   -3.423204   -0.093120
     43          6           0       -4.926878   -4.154773   -1.060547
     44          8           0       -4.413494   -3.674784   -2.059495
     45          8           0       -4.890059   -5.479227   -0.670122
     46          6           0       -3.970668   -6.407279   -1.420165
     47          6           0        2.042804   -5.307073    1.117403
     48          6           0        2.823880   -4.608884    0.019937
     49          6           0        4.065909   -4.053057    0.030887
     50          6           0        4.992002   -3.987811    1.235022
     51          6           0        4.533158   -3.213250   -1.105592
     52          6           0        4.647736   -1.685662   -0.914437
     53          6           0        6.158745   -1.229713   -1.003020
     54          6           0        6.365890   -0.045358   -2.034699
     55          6           0        6.673203   -0.608118   -3.455380
     56          6           0        7.226252    1.036346   -1.436263
     57          6           0        8.601155    0.471082   -1.095519
     58          6           0        9.164584    0.942867    0.220931
     59          6           0       10.667251    0.541819    0.428636
     60          6           0       10.884333    0.173247    1.897785
     61          6           0       11.591521    1.740494   -0.033588
     62          6           0       12.521369    1.299700   -1.215397
     63          6           0       13.754327    2.204341   -1.251313
     64          6           0       15.057993    1.485195   -0.654234
     65          6           0       16.025526    2.623001   -0.286719
     66          6           0       15.633366    0.343722   -1.550235
     67          1           0       -1.525360    0.496823    3.688259
     68          1           0       -3.341983    5.403905    0.014641
     69          1           0       -7.953566    1.996667   -2.570410
     70          1           0       -4.205085   -3.329976    2.690767
     71          1           0       -1.590770   -2.172383    3.058519
     72          1           0       -2.181539   -2.220421    5.180403
     73          1           0       -3.596123   -3.048030    4.661172
     74          1           0       -3.725832   -1.264736    4.928352
     75          1           0       -3.166466   -4.678279    0.853457
     76          1           0       -2.173524   -4.693444    2.330368
     77          1           0       -0.877247   -2.757185    1.003532
     78          1           0       -1.651836   -3.386300   -0.402116
     79          1           0        0.278268    3.440159    4.089022
     80          1           0       -0.219644    1.820016    4.138320
     81          1           0       -0.988503    3.022858    5.181340
     82          1           0       -1.902769    6.753013    0.861373
     83          1           0       -2.047687    7.596358    2.482339
     84          1           0       -3.359924    6.630360    1.896124
     85          1           0       -4.561129    5.245690   -2.195914
     86          1           0       -7.561441    4.711825   -1.632850
     87          1           0       -6.707478    6.801565   -1.215206
     88          1           0       -5.012651    7.229500   -1.440313
     89          1           0       -5.691308    6.673992    0.104237
     90          1           0       -7.829729    3.987187   -3.811140
     91          1           0       -6.026769    3.751016   -3.868378
     92          1           0       -5.700000    5.762928   -4.598063
     93          1           0       -6.681128    6.621280   -3.400495
     94          1           0       -7.469508    6.123211   -4.842372
     95          1           0       -9.029015   -0.164190   -3.425417
     96          1           0      -10.054720   -0.761334   -2.000224
     97          1           0       -9.085715   -1.766649   -2.977410
     98          1           0       -5.968003   -4.053636    0.780834
     99          1           0       -4.537187   -7.218538   -1.879027
    100          1           0       -3.244242   -6.924547   -0.793331
    101          1           0       -3.475443   -5.833681   -2.202943
    102          1           0        1.807582   -6.337290    0.851411
    103          1           0        2.514506   -5.290456    2.099774
    104          1           0        2.234792   -4.375379   -0.867248
    105          1           0        5.639125   -4.854891    1.102743
    106          1           0        4.483279   -4.147650    2.186227
    107          1           0        5.671158   -3.136180    1.234565
    108          1           0        3.921923   -3.314716   -2.002477
    109          1           0        5.460502   -3.658058   -1.464789
    110          1           0        4.408605   -1.490170    0.131584
    111          1           0        3.957143   -1.075914   -1.497631
    112          1           0        6.744006   -2.116870   -1.244934
    113          1           0        6.418380   -0.974772    0.024236
    114          1           0        5.378022    0.404960   -2.131134
    115          1           0        5.896631   -0.229208   -4.119583
    116          1           0        6.394717   -1.661043   -3.509312
    117          1           0        7.609511   -0.231130   -3.867073
    118          1           0        6.648564    1.641142   -0.737009
    119          1           0        7.403452    1.847412   -2.142880
    120          1           0        9.346135    0.743498   -1.843995
    121          1           0        8.729149   -0.609347   -1.041470
    122          1           0        8.464332    0.575487    0.970910
    123          1           0        8.899399    2.000203    0.200992
    124          1           0       10.828010   -0.375035   -0.136870
    125          1           0       11.893368    0.414864    2.232702
    126          1           0       10.725678   -0.887758    2.094112
    127          1           0       10.289597    0.717874    2.630775
    128          1           0       12.247398    2.226790    0.687778
    129          1           0       10.943758    2.558148   -0.349960
    130          1           0       11.973859    1.395978   -2.153386
    131          1           0       12.736601    0.242912   -1.058147
    132          1           0       13.564852    3.104090   -0.666472
    133          1           0       14.036195    2.508728   -2.259348
    134          1           0       14.743047    1.018905    0.280248
    135          1           0       16.565538    2.805470   -1.216226
    136          1           0       16.772590    2.287094    0.432420
    137          1           0       15.573131    3.543321    0.081986
    138          1           0       15.500440   -0.638137   -1.097456
    139          1           0       16.683337    0.583993   -1.711019
    140          1           0       14.949718    0.371056   -2.399657
 ---------------------------------------------------------------------

 SCF Done:  E(RCAM-B3LYP) =  -3007.16733549     A.U. after   18 cycles

 Excitation energies and oscillator strengths:

 Excited State   1:      Singlet-A      1.6863 eV  735.23 nm  f=0.3433  <S**2>=0.000
     245 -> 248       -0.18413
     246 -> 247        0.68478
     245 <- 248       -0.11015
 This state for optimization and/or second-order correction.
 Total Energy, E(TD-HF/TD-DFT) =  -3007.10536403
 Copying the excited state density for this state as the 1-particle RhoCI density.

 Excited State   2:      Singlet-A      2.2007 eV  563.38 nm  f=0.0962  <S**2>=0.000
     245 -> 247        0.63386
     246 -> 248        0.30296

 Excited State   3:      Singlet-A      3.3227 eV  373.14 nm  f=0.0191  <S**2>=0.000
     242 -> 247       -0.38756
     244 -> 247        0.54970
     246 -> 248       -0.15980

 Excited State   4:      Singlet-A      3.4101 eV  363.58 nm  f=0.0109  <S**2>=0.000
     239 -> 247        0.11156
     240 -> 247        0.47756
     240 -> 249       -0.24786
     240 -> 250        0.10980
     242 -> 247       -0.26669
     244 -> 247       -0.24899
     246 -> 248       -0.13936

 Excited State   5:      Singlet-A      3.4326 eV  361.20 nm  f=0.1152  <S**2>=0.000
     239 -> 247        0.14627
     240 -> 247        0.28928
     240 -> 249       -0.16190
     242 -> 247        0.32286
     244 -> 247        0.32425
     245 -> 247       -0.11767
     246 -> 248        0.33915

 The electronic state is 1-A.
 Alpha  occ. eigenvalues --  -46.88425 -19.25115 -19.25108 -19.20145 -19.19831
 Alpha  occ. eigenvalues --  -19.19551 -19.17268 -14.42553 -14.42242 -14.39330
 Alpha  occ. eigenvalues --  -14.38661 -10.39744 -10.39491 -10.35416 -10.33114
 Alpha  occ. eigenvalues --  -10.32219 -10.31757 -10.31513 -10.31358 -10.31085
 Alpha  occ. eigenvalues --  -10.30925 -10.30185 -10.29752 -10.29408 -10.29224
 Alpha  occ. eigenvalues --  -10.28581 -10.28480 -10.28470 -10.28334 -10.28199
 Alpha  occ. eigenvalues --  -10.28179 -10.28125 -10.27915 -10.27820 -10.27767
 Alpha  occ. eigenvalues --  -10.27246 -10.27122 -10.26822 -10.26728 -10.26688
 Alpha  occ. eigenvalues --  -10.26512 -10.26370 -10.26034 -10.26025 -10.26007
 Alpha  occ. eigenvalues --  -10.25901 -10.25693 -10.25569 -10.25541 -10.25456
 Alpha  occ. eigenvalues --  -10.25388 -10.25268 -10.25210 -10.25059 -10.24856
 Alpha  occ. eigenvalues --  -10.24801 -10.24787 -10.24750 -10.24621 -10.24607
 Alpha  occ. eigenvalues --  -10.24591 -10.24562 -10.24186 -10.24060 -10.24014
 Alpha  occ. eigenvalues --  -10.23958  -3.17025  -1.91929  -1.91501  -1.91310
 Alpha  occ. eigenvalues --   -1.17093  -1.15524  -1.10514  -1.09947  -1.07872
 Alpha  occ. eigenvalues --   -1.07661  -1.04611  -1.03834  -1.03579  -1.02514
 Alpha  occ. eigenvalues --   -0.93430  -0.90450  -0.89805  -0.89704  -0.89585
 Alpha  occ. eigenvalues --   -0.88786  -0.88450  -0.87740  -0.87139  -0.86943
 Alpha  occ. eigenvalues --   -0.86038  -0.85537  -0.84293  -0.83949  -0.83487
 Alpha  occ. eigenvalues --   -0.82424  -0.81691  -0.81107  -0.80701  -0.80575
 Alpha  occ. eigenvalues --   -0.79907  -0.78274  -0.77823  -0.77272  -0.76131
 Alpha  occ. eigenvalues --   -0.76034  -0.75618  -0.75440  -0.75201  -0.73734
 Alpha  occ. eigenvalues --   -0.73529  -0.73266  -0.72270  -0.71031  -0.69840
 Alpha  occ. eigenvalues --   -0.68566  -0.67936  -0.67611  -0.66992  -0.65781
 Alpha  occ. eigenvalues --   -0.65652  -0.65375  -0.64648  -0.64470  -0.64324
 Alpha  occ. eigenvalues --   -0.63331  -0.62083  -0.61858  -0.61835  -0.60319
 Alpha  occ. eigenvalues --   -0.60222  -0.59771  -0.59232  -0.58962  -0.58448
 Alpha  occ. eigenvalues --   -0.57880  -0.57670  -0.57084  -0.56089  -0.55841
 Alpha  occ. eigenvalues --   -0.55670  -0.55039  -0.54745  -0.54495  -0.54200
 Alpha  occ. eigenvalues --   -0.53800  -0.53621  -0.53370  -0.53101  -0.52854
 Alpha  occ. eigenvalues --   -0.52413  -0.52355  -0.52264  -0.52143  -0.51581
 Alpha  occ. eigenvalues --   -0.51576  -0.51148  -0.50929  -0.50866  -0.50420
 Alpha  occ. eigenvalues --   -0.50202  -0.49999  -0.49814  -0.49679  -0.49512
 Alpha  occ. eigenvalues --   -0.49405  -0.49270  -0.49143  -0.48968  -0.48712
 Alpha  occ. eigenvalues --   -0.48603  -0.48386  -0.48168  -0.47711  -0.47557
 Alpha  occ. eigenvalues --   -0.47425  -0.47132  -0.47065  -0.46907  -0.46671
 Alpha  occ. eigenvalues --   -0.46509  -0.46029  -0.45773  -0.45742  -0.45688
 Alpha  occ. eigenvalues --   -0.45401  -0.45263  -0.44974  -0.44788  -0.44515
 Alpha  occ. eigenvalues --   -0.44348  -0.44297  -0.44164  -0.43993  -0.43806
 Alpha  occ. eigenvalues --   -0.43783  -0.43612  -0.43580  -0.43357  -0.43286
 Alpha  occ. eigenvalues --   -0.43032  -0.42878  -0.42720  -0.42571  -0.42216
 Alpha  occ. eigenvalues --   -0.42165  -0.41969  -0.41794  -0.41500  -0.41426
 Alpha  occ. eigenvalues --   -0.41298  -0.40951  -0.40837  -0.40808  -0.40596
 Alpha  occ. eigenvalues --   -0.40173  -0.39971  -0.39493  -0.39263  -0.39125
 Alpha  occ. eigenvalues --   -0.38751  -0.37551  -0.37448  -0.37379  -0.37264
 Alpha  occ. eigenvalues --   -0.37175  -0.36865  -0.36629  -0.36456  -0.36316
 Alpha  occ. eigenvalues --   -0.35502  -0.35197  -0.34899  -0.34882  -0.34695
 Alpha  occ. eigenvalues --   -0.34056  -0.33977  -0.33163  -0.31508  -0.30821
 Alpha  occ. eigenvalues --   -0.30051  -0.29943  -0.29680  -0.29628  -0.24177
 Alpha  occ. eigenvalues --   -0.21297
 Alpha virt. eigenvalues --   -0.08809  -0.02081   0.00445   0.02378   0.02946
 Alpha virt. eigenvalues --    0.04418   0.04959   0.05851   0.06087   0.06523
 Alpha virt. eigenvalues --    0.07909   0.08795   0.08858   0.09173   0.09224

 Mulliken charges:
               1
     1  Mg   0.826917
     2  C    0.026899
     3  C   -0.049959
     4  C   -0.099675
     5  C   -0.084831
     6  N   -0.252371
     7  C   -0.048153
     8  C    0.004063
     9  C   -0.064329
    10  C    0.009367
    11  C    0.095899
    12  C    0.048113
    13  C    0.053476
    14  C    0.153802
    15  O   -0.243897
    16  O   -0.320358
    17  N   -0.376438
    18  C    0.113713
    19  C   -0.117464
    20  C   -0.004044
    21  C    0.165509
    22  C    0.105580
    23  C   -0.071991
    24  O   -0.189400
    25  C    0.058939
    26  N   -0.345700
    27  C    0.041825
    28  C   -0.043852
    29  C   -0.011570
    30  C    0.063355
    31  C    0.058531
    32  C   -0.002806
    33  C    0.009052
    34  N   -0.343515
    35  C    0.119209
    36  C   -0.161033
    37  C    0.037973
    38  C    0.093514
    39  C    0.119366
    40  C    0.068105
    41  O   -0.164348
    42  C   -0.018836
    43  C    0.188611
    44  O   -0.208552
    45  O   -0.349773
    46  C    0.160401
    47  C    0.306586
    48  C   -0.137222
    49  C   -0.158872
    50  C    0.081457
    51  C    0.060942
    52  C    0.015961
    53  C   -0.013011
    54  C   -0.116064
    55  C    0.083683
    56  C    0.090602
    57  C   -0.010809
    58  C    0.031593
    59  C   -0.083771
    60  C    0.044428
    61  C    0.050308
    62  C    0.019714
    63  C    0.014636
    64  C   -0.179746
    65  C    0.046279
    66  C    0.071136
    67  H   -0.038636
    68  H   -0.015626
    69  H   -0.035817
    70  H    0.005653
    71  H    0.023223
    72  H    0.015704
    73  H    0.005578
    74  H    0.036672
    75  H    0.024708
    76  H    0.015290
    77  H    0.020416
    78  H    0.040063
    79  H    0.029211
    80  H    0.008700
    81  H    0.026095
    82  H    0.037096
    83  H    0.025642
    84  H    0.034096
    85  H    0.024112
    86  H    0.013053
    87  H    0.014534
    88  H    0.014350
    89  H    0.015214
    90  H    0.023029
    91  H    0.011132
    92  H    0.019906
    93  H   -0.000994
    94  H    0.021483
    95  H    0.020284
    96  H    0.037191
    97  H    0.018800
    98  H    0.033132
    99  H    0.040975
   100  H    0.045495
   101  H    0.059963
   102  H    0.031962
   103  H    0.010885
   104  H    0.011442
   105  H    0.017528
   106  H    0.015108
   107  H    0.018925
   108  H   -0.011139
   109  H    0.001796
   110  H    0.000522
   111  H    0.016018
   112  H    0.004193
   113  H    0.004234
   114  H   -0.016050
   115  H   -0.009800
   116  H    0.001168
   117  H    0.019095
   118  H   -0.004473
   119  H   -0.022865
   120  H   -0.014907
   121  H   -0.004753
   122  H   -0.019166
   123  H   -0.013175
   124  H    0.000302
   125  H   -0.005550
   126  H    0.004105
   127  H    0.004221
   128  H   -0.000649
   129  H   -0.005320
   130  H   -0.001217
   131  H    0.000758
   132  H   -0.004180
   133  H   -0.008847
   134  H   -0.010527
   135  H   -0.000787
   136  H    0.004364
   137  H    0.013044
   138  H    0.012448
   139  H    0.015116
   140  H    0.009292
 Sum of Mulliken charges =  -0.00000

 Dipole moment (field-independent basis, Debye):
    X=              0.1231    Y=              2.0139    Z=              1.4210  Tot=              2.4678
 Quadrupole moment (field-independent basis, Debye-Ang):
   XX=           -397.1375   YY=           -403.3216   ZZ=           -404.0286
   XY=            -46.4895   XZ=             -3.8239   YZ=            -41.0708

 Normal termination of Gaussian 16 at Thu May  5 01:31:23 2022.
