 Gaussian 16, Revision A.03,
 Gaussian 16:  ES64L-G16RevA.03 25-Dec-2016

 ---------------------------------
 #p PBE1PBE/Def2SVP td=(nstates=5)
 ---------------------------------

 ----------------------------------------------------
 step_51_chromophore_11 TDDFT with PBE1PBE functional
 ----------------------------------------------------
 Symbolic Z-matrix:
 Charge =  0 Multiplicity = 1

                         Standard orientation:
 ---------------------------------------------------------------------
 Center     Atomic      Atomic             Coordinates (Angstroms)
 Number     Number       Type             X           Y           Z
 ---------------------------------------------------------------------
      1         12           0       -4.697506    1.311729    0.607455
      2          6           0       -5.164978   -2.128532    0.223225
      3          6           0       -2.358833    0.593970    2.989900
      4          6           0       -3.781936    4.483809    0.406029
      5          6           0       -7.166867    1.779261   -1.844905
      6          7           0       -3.788296   -0.615113    1.467669
      7          6           0       -4.135388   -1.880240    1.132247
      8          6           0       -3.390020   -2.861072    2.138999
      9          6           0       -2.657896   -1.960198    3.122409
     10          6           0       -2.980159   -0.611540    2.578086
     11          6           0       -3.089926   -2.084279    4.594419
     12          6           0       -2.498588   -4.090728    1.482842
     13          6           0       -1.308820   -3.670109    0.593032
     14          6           0       -0.155872   -4.703502    0.376052
     15          8           0       -0.091376   -5.512585   -0.543516
     16          8           0        0.840495   -4.531451    1.282948
     17          7           0       -3.317184    2.397801    1.633330
     18          6           0       -2.527050    1.957083    2.621616
     19          6           0       -1.714642    3.037157    3.080984
     20          6           0       -2.051963    4.183602    2.290678
     21          6           0       -3.081677    3.715105    1.379685
     22          6           0       -0.623621    2.832095    4.172293
     23          6           0       -1.573529    5.531686    2.462643
     24          8           0       -0.677517    5.713456    3.237421
     25          6           0       -2.273405    6.712627    1.886043
     26          7           0       -5.275071    2.827496   -0.632168
     27          6           0       -4.809833    4.117099   -0.449819
     28          6           0       -5.370894    5.091905   -1.481843
     29          6           0       -6.630809    4.316001   -2.037597
     30          6           0       -6.337420    2.878175   -1.525978
     31          6           0       -5.685538    6.509662   -0.973749
     32          6           0       -6.852269    4.372250   -3.521170
     33          6           0       -6.688165    5.823850   -4.143585
     34          7           0       -6.085627    0.102906   -0.498976
     35          6           0       -7.086484    0.464263   -1.418861
     36          6           0       -7.896586   -0.726256   -1.680193
     37          6           0       -7.167735   -1.705872   -1.101182
     38          6           0       -6.006556   -1.216682   -0.476403
     39          6           0       -9.100302   -0.775273   -2.525734
     40          6           0       -7.046464   -3.174714   -1.006934
     41          8           0       -7.849044   -3.990997   -1.446221
     42          6           0       -5.804516   -3.423204   -0.093120
     43          6           0       -4.926878   -4.154773   -1.060547
     44          8           0       -4.413494   -3.674784   -2.059495
     45          8           0       -4.890059   -5.479227   -0.670122
     46          6           0       -3.970668   -6.407279   -1.420165
     47          6           0        2.042804   -5.307073    1.117403
     48          6           0        2.823880   -4.608884    0.019937
     49          6           0        4.065909   -4.053057    0.030887
     50          6           0        4.992002   -3.987811    1.235022
     51          6           0        4.533158   -3.213250   -1.105592
     52          6           0        4.647736   -1.685662   -0.914437
     53          6           0        6.158745   -1.229713   -1.003020
     54          6           0        6.365890   -0.045358   -2.034699
     55          6           0        6.673203   -0.608118   -3.455380
     56          6           0        7.226252    1.036346   -1.436263
     57          6           0        8.601155    0.471082   -1.095519
     58          6           0        9.164584    0.942867    0.220931
     59          6           0       10.667251    0.541819    0.428636
     60          6           0       10.884333    0.173247    1.897785
     61          6           0       11.591521    1.740494   -0.033588
     62          6           0       12.521369    1.299700   -1.215397
     63          6           0       13.754327    2.204341   -1.251313
     64          6           0       15.057993    1.485195   -0.654234
     65          6           0       16.025526    2.623001   -0.286719
     66          6           0       15.633366    0.343722   -1.550235
     67          1           0       -1.525360    0.496823    3.688259
     68          1           0       -3.341983    5.403905    0.014641
     69          1           0       -7.953566    1.996667   -2.570410
     70          1           0       -4.205085   -3.329976    2.690767
     71          1           0       -1.590770   -2.172383    3.058519
     72          1           0       -2.181539   -2.220421    5.180403
     73          1           0       -3.596123   -3.048030    4.661172
     74          1           0       -3.725832   -1.264736    4.928352
     75          1           0       -3.166466   -4.678279    0.853457
     76          1           0       -2.173524   -4.693444    2.330368
     77          1           0       -0.877247   -2.757185    1.003532
     78          1           0       -1.651836   -3.386300   -0.402116
     79          1           0        0.278268    3.440159    4.089022
     80          1           0       -0.219644    1.820016    4.138320
     81          1           0       -0.988503    3.022858    5.181340
     82          1           0       -1.902769    6.753013    0.861373
     83          1           0       -2.047687    7.596358    2.482339
     84          1           0       -3.359924    6.630360    1.896124
     85          1           0       -4.561129    5.245690   -2.195914
     86          1           0       -7.561441    4.711825   -1.632850
     87          1           0       -6.707478    6.801565   -1.215206
     88          1           0       -5.012651    7.229500   -1.440313
     89          1           0       -5.691308    6.673992    0.104237
     90          1           0       -7.829729    3.987187   -3.811140
     91          1           0       -6.026769    3.751016   -3.868378
     92          1           0       -5.700000    5.762928   -4.598063
     93          1           0       -6.681128    6.621280   -3.400495
     94          1           0       -7.469508    6.123211   -4.842372
     95          1           0       -9.029015   -0.164190   -3.425417
     96          1           0      -10.054720   -0.761334   -2.000224
     97          1           0       -9.085715   -1.766649   -2.977410
     98          1           0       -5.968003   -4.053636    0.780834
     99          1           0       -4.537187   -7.218538   -1.879027
    100          1           0       -3.244242   -6.924547   -0.793331
    101          1           0       -3.475443   -5.833681   -2.202943
    102          1           0        1.807582   -6.337290    0.851411
    103          1           0        2.514506   -5.290456    2.099774
    104          1           0        2.234792   -4.375379   -0.867248
    105          1           0        5.639125   -4.854891    1.102743
    106          1           0        4.483279   -4.147650    2.186227
    107          1           0        5.671158   -3.136180    1.234565
    108          1           0        3.921923   -3.314716   -2.002477
    109          1           0        5.460502   -3.658058   -1.464789
    110          1           0        4.408605   -1.490170    0.131584
    111          1           0        3.957143   -1.075914   -1.497631
    112          1           0        6.744006   -2.116870   -1.244934
    113          1           0        6.418380   -0.974772    0.024236
    114          1           0        5.378022    0.404960   -2.131134
    115          1           0        5.896631   -0.229208   -4.119583
    116          1           0        6.394717   -1.661043   -3.509312
    117          1           0        7.609511   -0.231130   -3.867073
    118          1           0        6.648564    1.641142   -0.737009
    119          1           0        7.403452    1.847412   -2.142880
    120          1           0        9.346135    0.743498   -1.843995
    121          1           0        8.729149   -0.609347   -1.041470
    122          1           0        8.464332    0.575487    0.970910
    123          1           0        8.899399    2.000203    0.200992
    124          1           0       10.828010   -0.375035   -0.136870
    125          1           0       11.893368    0.414864    2.232702
    126          1           0       10.725678   -0.887758    2.094112
    127          1           0       10.289597    0.717874    2.630775
    128          1           0       12.247398    2.226790    0.687778
    129          1           0       10.943758    2.558148   -0.349960
    130          1           0       11.973859    1.395978   -2.153386
    131          1           0       12.736601    0.242912   -1.058147
    132          1           0       13.564852    3.104090   -0.666472
    133          1           0       14.036195    2.508728   -2.259348
    134          1           0       14.743047    1.018905    0.280248
    135          1           0       16.565538    2.805470   -1.216226
    136          1           0       16.772590    2.287094    0.432420
    137          1           0       15.573131    3.543321    0.081986
    138          1           0       15.500440   -0.638137   -1.097456
    139          1           0       16.683337    0.583993   -1.711019
    140          1           0       14.949718    0.371056   -2.399657
 ---------------------------------------------------------------------

 SCF Done:  E(RPBE1PBE) =  -3005.35606260     A.U. after   15 cycles

 Excitation energies and oscillator strengths:

 Excited State   1:      Singlet-A      1.8404 eV  673.68 nm  f=0.3291  <S**2>=0.000
     245 -> 248       -0.17584
     246 -> 247        0.69183
     246 <- 247       -0.10521
 This state for optimization and/or second-order correction.
 Total Energy, E(TD-HF/TD-DFT) =  -3005.28842911
 Copying the excited state density for this state as the 1-particle RhoCI density.

 Excited State   2:      Singlet-A      2.2073 eV  561.71 nm  f=0.0978  <S**2>=0.000
     245 -> 247        0.64536
     246 -> 248        0.27732

 Excited State   3:      Singlet-A      2.8632 eV  433.03 nm  f=0.0001  <S**2>=0.000
     244 -> 247        0.68116
     244 -> 249        0.12346
     244 -> 250       -0.11813

 Excited State   4:      Singlet-A      2.9503 eV  420.24 nm  f=0.0006  <S**2>=0.000
     240 -> 247        0.63407
     240 -> 249       -0.16960
     241 -> 247       -0.20884

 Excited State   5:      Singlet-A      2.9899 eV  414.67 nm  f=0.0013  <S**2>=0.000
     241 -> 247       -0.17907
     242 -> 247        0.67432

 The electronic state is 1-A.
 Alpha  occ. eigenvalues --  -46.91818 -19.25829 -19.25716 -19.20295 -19.20111
 Alpha  occ. eigenvalues --  -19.19655 -19.17550 -14.41999 -14.41828 -14.38993
 Alpha  occ. eigenvalues --  -14.38281 -10.36789 -10.36459 -10.32497 -10.30290
 Alpha  occ. eigenvalues --  -10.29597 -10.29451 -10.29219 -10.28879 -10.28683
 Alpha  occ. eigenvalues --  -10.28529 -10.27920 -10.27378 -10.27222 -10.27007
 Alpha  occ. eigenvalues --  -10.26310 -10.26206 -10.26074 -10.25988 -10.25934
 Alpha  occ. eigenvalues --  -10.25911 -10.25871 -10.25701 -10.25393 -10.25214
 Alpha  occ. eigenvalues --  -10.24866 -10.24768 -10.24459 -10.24348 -10.24263
 Alpha  occ. eigenvalues --  -10.24205 -10.23893 -10.23741 -10.23502 -10.23501
 Alpha  occ. eigenvalues --  -10.23396 -10.23267 -10.23224 -10.23173 -10.23089
 Alpha  occ. eigenvalues --  -10.22960 -10.22802 -10.22625 -10.22625 -10.22439
 Alpha  occ. eigenvalues --  -10.22410 -10.22385 -10.22178 -10.22154 -10.22154
 Alpha  occ. eigenvalues --  -10.22130 -10.21942 -10.21575 -10.21532 -10.21514
 Alpha  occ. eigenvalues --  -10.21439  -3.13997  -1.86843  -1.86393  -1.86204
 Alpha  occ. eigenvalues --   -1.11929  -1.10182  -1.05343  -1.04582  -1.02738
 Alpha  occ. eigenvalues --   -1.02407  -0.99219  -0.98540  -0.98201  -0.97153
 Alpha  occ. eigenvalues --   -0.87724  -0.84558  -0.84046  -0.83965  -0.83716
 Alpha  occ. eigenvalues --   -0.83132  -0.82540  -0.82009  -0.81435  -0.81058
 Alpha  occ. eigenvalues --   -0.80276  -0.79926  -0.78536  -0.78229  -0.77713
 Alpha  occ. eigenvalues --   -0.76612  -0.75944  -0.75313  -0.74987  -0.74855
 Alpha  occ. eigenvalues --   -0.74077  -0.72551  -0.72085  -0.71573  -0.70349
 Alpha  occ. eigenvalues --   -0.70259  -0.69785  -0.69706  -0.69342  -0.67973
 Alpha  occ. eigenvalues --   -0.67847  -0.67602  -0.66660  -0.65339  -0.64254
 Alpha  occ. eigenvalues --   -0.63022  -0.62194  -0.62115  -0.61213  -0.60104
 Alpha  occ. eigenvalues --   -0.59936  -0.59799  -0.59244  -0.58946  -0.58451
 Alpha  occ. eigenvalues --   -0.57827  -0.56372  -0.56264  -0.56111  -0.54760
 Alpha  occ. eigenvalues --   -0.54638  -0.54293  -0.53898  -0.53582  -0.52779
 Alpha  occ. eigenvalues --   -0.52380  -0.52127  -0.51636  -0.50566  -0.50420
 Alpha  occ. eigenvalues --   -0.50258  -0.49580  -0.49240  -0.48824  -0.48710
 Alpha  occ. eigenvalues --   -0.48333  -0.48061  -0.47976  -0.47572  -0.47347
 Alpha  occ. eigenvalues --   -0.47047  -0.46824  -0.46717  -0.46637  -0.46167
 Alpha  occ. eigenvalues --   -0.45958  -0.45746  -0.45496  -0.45402  -0.44963
 Alpha  occ. eigenvalues --   -0.44728  -0.44558  -0.44360  -0.44196  -0.44096
 Alpha  occ. eigenvalues --   -0.43989  -0.43826  -0.43755  -0.43630  -0.43373
 Alpha  occ. eigenvalues --   -0.43216  -0.43042  -0.42728  -0.42428  -0.42215
 Alpha  occ. eigenvalues --   -0.42065  -0.41823  -0.41718  -0.41586  -0.41305
 Alpha  occ. eigenvalues --   -0.41255  -0.40692  -0.40527  -0.40366  -0.40335
 Alpha  occ. eigenvalues --   -0.40152  -0.39992  -0.39670  -0.39525  -0.39146
 Alpha  occ. eigenvalues --   -0.39108  -0.38959  -0.38880  -0.38701  -0.38583
 Alpha  occ. eigenvalues --   -0.38462  -0.38308  -0.38301  -0.38123  -0.38035
 Alpha  occ. eigenvalues --   -0.37814  -0.37693  -0.37468  -0.37391  -0.37052
 Alpha  occ. eigenvalues --   -0.36962  -0.36832  -0.36662  -0.36322  -0.36244
 Alpha  occ. eigenvalues --   -0.36156  -0.35848  -0.35686  -0.35623  -0.35356
 Alpha  occ. eigenvalues --   -0.35001  -0.34887  -0.34429  -0.34167  -0.33929
 Alpha  occ. eigenvalues --   -0.33500  -0.32402  -0.32349  -0.32314  -0.32273
 Alpha  occ. eigenvalues --   -0.31971  -0.31867  -0.31490  -0.31372  -0.31180
 Alpha  occ. eigenvalues --   -0.30401  -0.30060  -0.30001  -0.29802  -0.29508
 Alpha  occ. eigenvalues --   -0.28984  -0.28896  -0.28710  -0.27075  -0.25679
 Alpha  occ. eigenvalues --   -0.25519  -0.25262  -0.25006  -0.24812  -0.21104
 Alpha  occ. eigenvalues --   -0.18945
 Alpha virt. eigenvalues --   -0.11311  -0.05530  -0.03784  -0.02070  -0.00155
 Alpha virt. eigenvalues --    0.00330   0.00729   0.01242   0.01572   0.02714
 Alpha virt. eigenvalues --    0.04215   0.04414   0.05522   0.05648   0.05921

 Mulliken charges:
               1
     1  Mg   0.978265
     2  C   -0.011946
     3  C   -0.046062
     4  C   -0.095928
     5  C   -0.079551
     6  N   -0.352643
     7  C    0.042781
     8  C   -0.060678
     9  C   -0.145561
    10  C    0.047580
    11  C    0.040465
    12  C   -0.016085
    13  C   -0.020492
    14  C    0.218766
    15  O   -0.275537
    16  O   -0.349248
    17  N   -0.501450
    18  C    0.144598
    19  C   -0.139247
    20  C   -0.066871
    21  C    0.198554
    22  C    0.051280
    23  C   -0.012678
    24  O   -0.225301
    25  C   -0.022441
    26  N   -0.450320
    27  C    0.087061
    28  C   -0.125382
    29  C   -0.087569
    30  C    0.100447
    31  C    0.001422
    32  C   -0.064355
    33  C   -0.062666
    34  N   -0.459880
    35  C    0.133454
    36  C   -0.181488
    37  C   -0.015760
    38  C    0.161511
    39  C    0.068474
    40  C    0.161306
    41  O   -0.211310
    42  C   -0.129177
    43  C    0.281221
    44  O   -0.242060
    45  O   -0.381181
    46  C    0.106480
    47  C    0.259391
    48  C   -0.144219
    49  C   -0.205946
    50  C    0.017471
    51  C   -0.000398
    52  C   -0.044452
    53  C   -0.066412
    54  C   -0.206475
    55  C    0.024554
    56  C    0.036492
    57  C   -0.075193
    58  C   -0.018964
    59  C   -0.180368
    60  C   -0.011217
    61  C    0.003268
    62  C   -0.042997
    63  C   -0.047830
    64  C   -0.263426
    65  C   -0.018669
    66  C    0.007253
    67  H   -0.005978
    68  H    0.017448
    69  H   -0.002910
    70  H    0.044344
    71  H    0.059482
    72  H    0.043355
    73  H    0.034060
    74  H    0.063690
    75  H    0.067928
    76  H    0.047609
    77  H    0.053134
    78  H    0.072486
    79  H    0.056656
    80  H    0.034902
    81  H    0.054458
    82  H    0.064659
    83  H    0.053921
    84  H    0.062639
    85  H    0.061156
    86  H    0.050508
    87  H    0.040735
    88  H    0.041641
    89  H    0.043607
    90  H    0.054642
    91  H    0.045462
    92  H    0.047473
    93  H    0.029238
    94  H    0.049314
    95  H    0.045998
    96  H    0.064406
    97  H    0.047419
    98  H    0.067714
    99  H    0.062503
   100  H    0.065455
   101  H    0.079635
   102  H    0.059628
   103  H    0.037976
   104  H    0.040932
   105  H    0.047144
   106  H    0.042206
   107  H    0.047344
   108  H    0.021404
   109  H    0.034791
   110  H    0.035880
   111  H    0.045699
   112  H    0.034473
   113  H    0.037126
   114  H    0.023807
   115  H    0.018369
   116  H    0.029287
   117  H    0.045896
   118  H    0.025909
   119  H    0.011325
   120  H    0.021113
   121  H    0.028533
   122  H    0.014256
   123  H    0.019763
   124  H    0.036034
   125  H    0.022496
   126  H    0.031890
   127  H    0.031159
   128  H    0.030247
   129  H    0.027500
   130  H    0.031777
   131  H    0.033326
   132  H    0.027600
   133  H    0.024496
   134  H    0.028879
   135  H    0.027913
   136  H    0.033113
   137  H    0.039818
   138  H    0.039806
   139  H    0.042141
   140  H    0.037489
 Sum of Mulliken charges =  -0.00000

 Dipole moment (field-independent basis, Debye):
    X=              0.2262    Y=              2.2508    Z=              1.4886  Tot=              2.7080
 Quadrupole moment (field-independent basis, Debye-Ang):
   XX=           -394.6239   YY=           -399.7978   ZZ=           -400.2402
   XY=            -47.8001   XZ=             -2.9778   YZ=            -41.9839

 Normal termination of Gaussian 16 at Thu May  5 01:59:16 2022.
