 Gaussian 16, Revision A.03,
 Gaussian 16:  ES64L-G16RevA.03 25-Dec-2016

 --------------------------------
 #p wB97XD/Def2SVP td=(nstates=5)
 --------------------------------

 ---------------------------------------------------
 step_51_chromophore_11 TDDFT with wB97XD functional
 ---------------------------------------------------
 Symbolic Z-matrix:
 Charge =  0 Multiplicity = 1

                         Standard orientation:
 ---------------------------------------------------------------------
 Center     Atomic      Atomic             Coordinates (Angstroms)
 Number     Number       Type             X           Y           Z
 ---------------------------------------------------------------------
      1         12           0       -4.697506    1.311729    0.607455
      2          6           0       -5.164978   -2.128532    0.223225
      3          6           0       -2.358833    0.593970    2.989900
      4          6           0       -3.781936    4.483809    0.406029
      5          6           0       -7.166867    1.779261   -1.844905
      6          7           0       -3.788296   -0.615113    1.467669
      7          6           0       -4.135388   -1.880240    1.132247
      8          6           0       -3.390020   -2.861072    2.138999
      9          6           0       -2.657896   -1.960198    3.122409
     10          6           0       -2.980159   -0.611540    2.578086
     11          6           0       -3.089926   -2.084279    4.594419
     12          6           0       -2.498588   -4.090728    1.482842
     13          6           0       -1.308820   -3.670109    0.593032
     14          6           0       -0.155872   -4.703502    0.376052
     15          8           0       -0.091376   -5.512585   -0.543516
     16          8           0        0.840495   -4.531451    1.282948
     17          7           0       -3.317184    2.397801    1.633330
     18          6           0       -2.527050    1.957083    2.621616
     19          6           0       -1.714642    3.037157    3.080984
     20          6           0       -2.051963    4.183602    2.290678
     21          6           0       -3.081677    3.715105    1.379685
     22          6           0       -0.623621    2.832095    4.172293
     23          6           0       -1.573529    5.531686    2.462643
     24          8           0       -0.677517    5.713456    3.237421
     25          6           0       -2.273405    6.712627    1.886043
     26          7           0       -5.275071    2.827496   -0.632168
     27          6           0       -4.809833    4.117099   -0.449819
     28          6           0       -5.370894    5.091905   -1.481843
     29          6           0       -6.630809    4.316001   -2.037597
     30          6           0       -6.337420    2.878175   -1.525978
     31          6           0       -5.685538    6.509662   -0.973749
     32          6           0       -6.852269    4.372250   -3.521170
     33          6           0       -6.688165    5.823850   -4.143585
     34          7           0       -6.085627    0.102906   -0.498976
     35          6           0       -7.086484    0.464263   -1.418861
     36          6           0       -7.896586   -0.726256   -1.680193
     37          6           0       -7.167735   -1.705872   -1.101182
     38          6           0       -6.006556   -1.216682   -0.476403
     39          6           0       -9.100302   -0.775273   -2.525734
     40          6           0       -7.046464   -3.174714   -1.006934
     41          8           0       -7.849044   -3.990997   -1.446221
     42          6           0       -5.804516   -3.423204   -0.093120
     43          6           0       -4.926878   -4.154773   -1.060547
     44          8           0       -4.413494   -3.674784   -2.059495
     45          8           0       -4.890059   -5.479227   -0.670122
     46          6           0       -3.970668   -6.407279   -1.420165
     47          6           0        2.042804   -5.307073    1.117403
     48          6           0        2.823880   -4.608884    0.019937
     49          6           0        4.065909   -4.053057    0.030887
     50          6           0        4.992002   -3.987811    1.235022
     51          6           0        4.533158   -3.213250   -1.105592
     52          6           0        4.647736   -1.685662   -0.914437
     53          6           0        6.158745   -1.229713   -1.003020
     54          6           0        6.365890   -0.045358   -2.034699
     55          6           0        6.673203   -0.608118   -3.455380
     56          6           0        7.226252    1.036346   -1.436263
     57          6           0        8.601155    0.471082   -1.095519
     58          6           0        9.164584    0.942867    0.220931
     59          6           0       10.667251    0.541819    0.428636
     60          6           0       10.884333    0.173247    1.897785
     61          6           0       11.591521    1.740494   -0.033588
     62          6           0       12.521369    1.299700   -1.215397
     63          6           0       13.754327    2.204341   -1.251313
     64          6           0       15.057993    1.485195   -0.654234
     65          6           0       16.025526    2.623001   -0.286719
     66          6           0       15.633366    0.343722   -1.550235
     67          1           0       -1.525360    0.496823    3.688259
     68          1           0       -3.341983    5.403905    0.014641
     69          1           0       -7.953566    1.996667   -2.570410
     70          1           0       -4.205085   -3.329976    2.690767
     71          1           0       -1.590770   -2.172383    3.058519
     72          1           0       -2.181539   -2.220421    5.180403
     73          1           0       -3.596123   -3.048030    4.661172
     74          1           0       -3.725832   -1.264736    4.928352
     75          1           0       -3.166466   -4.678279    0.853457
     76          1           0       -2.173524   -4.693444    2.330368
     77          1           0       -0.877247   -2.757185    1.003532
     78          1           0       -1.651836   -3.386300   -0.402116
     79          1           0        0.278268    3.440159    4.089022
     80          1           0       -0.219644    1.820016    4.138320
     81          1           0       -0.988503    3.022858    5.181340
     82          1           0       -1.902769    6.753013    0.861373
     83          1           0       -2.047687    7.596358    2.482339
     84          1           0       -3.359924    6.630360    1.896124
     85          1           0       -4.561129    5.245690   -2.195914
     86          1           0       -7.561441    4.711825   -1.632850
     87          1           0       -6.707478    6.801565   -1.215206
     88          1           0       -5.012651    7.229500   -1.440313
     89          1           0       -5.691308    6.673992    0.104237
     90          1           0       -7.829729    3.987187   -3.811140
     91          1           0       -6.026769    3.751016   -3.868378
     92          1           0       -5.700000    5.762928   -4.598063
     93          1           0       -6.681128    6.621280   -3.400495
     94          1           0       -7.469508    6.123211   -4.842372
     95          1           0       -9.029015   -0.164190   -3.425417
     96          1           0      -10.054720   -0.761334   -2.000224
     97          1           0       -9.085715   -1.766649   -2.977410
     98          1           0       -5.968003   -4.053636    0.780834
     99          1           0       -4.537187   -7.218538   -1.879027
    100          1           0       -3.244242   -6.924547   -0.793331
    101          1           0       -3.475443   -5.833681   -2.202943
    102          1           0        1.807582   -6.337290    0.851411
    103          1           0        2.514506   -5.290456    2.099774
    104          1           0        2.234792   -4.375379   -0.867248
    105          1           0        5.639125   -4.854891    1.102743
    106          1           0        4.483279   -4.147650    2.186227
    107          1           0        5.671158   -3.136180    1.234565
    108          1           0        3.921923   -3.314716   -2.002477
    109          1           0        5.460502   -3.658058   -1.464789
    110          1           0        4.408605   -1.490170    0.131584
    111          1           0        3.957143   -1.075914   -1.497631
    112          1           0        6.744006   -2.116870   -1.244934
    113          1           0        6.418380   -0.974772    0.024236
    114          1           0        5.378022    0.404960   -2.131134
    115          1           0        5.896631   -0.229208   -4.119583
    116          1           0        6.394717   -1.661043   -3.509312
    117          1           0        7.609511   -0.231130   -3.867073
    118          1           0        6.648564    1.641142   -0.737009
    119          1           0        7.403452    1.847412   -2.142880
    120          1           0        9.346135    0.743498   -1.843995
    121          1           0        8.729149   -0.609347   -1.041470
    122          1           0        8.464332    0.575487    0.970910
    123          1           0        8.899399    2.000203    0.200992
    124          1           0       10.828010   -0.375035   -0.136870
    125          1           0       11.893368    0.414864    2.232702
    126          1           0       10.725678   -0.887758    2.094112
    127          1           0       10.289597    0.717874    2.630775
    128          1           0       12.247398    2.226790    0.687778
    129          1           0       10.943758    2.558148   -0.349960
    130          1           0       11.973859    1.395978   -2.153386
    131          1           0       12.736601    0.242912   -1.058147
    132          1           0       13.564852    3.104090   -0.666472
    133          1           0       14.036195    2.508728   -2.259348
    134          1           0       14.743047    1.018905    0.280248
    135          1           0       16.565538    2.805470   -1.216226
    136          1           0       16.772590    2.287094    0.432420
    137          1           0       15.573131    3.543321    0.081986
    138          1           0       15.500440   -0.638137   -1.097456
    139          1           0       16.683337    0.583993   -1.711019
    140          1           0       14.949718    0.371056   -2.399657
 ---------------------------------------------------------------------

 SCF Done:  E(RwB97XD) =  -3007.86623274     A.U. after   20 cycles

 Excitation energies and oscillator strengths:

 Excited State   1:      Singlet-A      1.6279 eV  761.60 nm  f=0.3422  <S**2>=0.000
     245 -> 248       -0.18969
     246 -> 247        0.68268
     245 <- 248       -0.11984
 This state for optimization and/or second-order correction.
 Total Energy, E(TD-HF/TD-DFT) =  -3007.80640695
 Copying the excited state density for this state as the 1-particle RhoCI density.

 Excited State   2:      Singlet-A      2.1458 eV  577.80 nm  f=0.0946  <S**2>=0.000
     245 -> 247        0.63237
     246 -> 248        0.30431

 Excited State   3:      Singlet-A      3.3276 eV  372.59 nm  f=0.0267  <S**2>=0.000
     241 -> 247       -0.44230
     243 -> 247        0.48230
     246 -> 248       -0.19720

 Excited State   4:      Singlet-A      3.4240 eV  362.10 nm  f=0.0006  <S**2>=0.000
     240 -> 247        0.51866
     240 -> 249       -0.29956
     240 -> 250       -0.12715
     241 -> 247       -0.13184
     243 -> 247       -0.24300

 Excited State   5:      Singlet-A      3.4578 eV  358.57 nm  f=0.1651  <S**2>=0.000
     239 -> 247        0.10278
     240 -> 247        0.19635
     240 -> 249       -0.11839
     241 -> 247        0.29416
     243 -> 247        0.39736
     245 -> 247       -0.13610
     246 -> 248        0.38171

 The electronic state is 1-A.
 Alpha  occ. eigenvalues --  -46.94762 -19.30371 -19.30350 -19.25090 -19.24784
 Alpha  occ. eigenvalues --  -19.24633 -19.22246 -14.47178 -14.46849 -14.43914
 Alpha  occ. eigenvalues --  -14.43262 -10.43577 -10.43357 -10.39477 -10.37006
 Alpha  occ. eigenvalues --  -10.36095 -10.35811 -10.35563 -10.35108 -10.35100
 Alpha  occ. eigenvalues --  -10.34946 -10.34213 -10.33804 -10.33503 -10.33223
 Alpha  occ. eigenvalues --  -10.32588 -10.32513 -10.32485 -10.32395 -10.32354
 Alpha  occ. eigenvalues --  -10.32217 -10.32151 -10.32056 -10.31935 -10.31678
 Alpha  occ. eigenvalues --  -10.31322 -10.31126 -10.30834 -10.30670 -10.30560
 Alpha  occ. eigenvalues --  -10.30554 -10.30271 -10.30024 -10.29897 -10.29847
 Alpha  occ. eigenvalues --  -10.29786 -10.29740 -10.29492 -10.29484 -10.29442
 Alpha  occ. eigenvalues --  -10.29345 -10.29146 -10.29114 -10.28986 -10.28915
 Alpha  occ. eigenvalues --  -10.28750 -10.28742 -10.28550 -10.28529 -10.28525
 Alpha  occ. eigenvalues --  -10.28520 -10.28375 -10.27999 -10.27920 -10.27879
 Alpha  occ. eigenvalues --  -10.27874  -3.20794  -1.94390  -1.93940  -1.93749
 Alpha  occ. eigenvalues --   -1.19295  -1.17683  -1.12693  -1.12213  -1.10080
 Alpha  occ. eigenvalues --   -1.09866  -1.06629  -1.05882  -1.05600  -1.04535
 Alpha  occ. eigenvalues --   -0.95438  -0.92230  -0.91661  -0.91552  -0.91378
 Alpha  occ. eigenvalues --   -0.90707  -0.90209  -0.89665  -0.89088  -0.88721
 Alpha  occ. eigenvalues --   -0.87926  -0.87491  -0.86183  -0.85862  -0.85357
 Alpha  occ. eigenvalues --   -0.84266  -0.83596  -0.82972  -0.82645  -0.82512
 Alpha  occ. eigenvalues --   -0.81737  -0.80206  -0.79717  -0.79192  -0.78010
 Alpha  occ. eigenvalues --   -0.77941  -0.77401  -0.77383  -0.77009  -0.75594
 Alpha  occ. eigenvalues --   -0.75465  -0.75205  -0.74223  -0.72955  -0.71793
 Alpha  occ. eigenvalues --   -0.70577  -0.69797  -0.69613  -0.68851  -0.67628
 Alpha  occ. eigenvalues --   -0.67600  -0.67322  -0.66662  -0.66432  -0.66126
 Alpha  occ. eigenvalues --   -0.65303  -0.63906  -0.63850  -0.63711  -0.62209
 Alpha  occ. eigenvalues --   -0.62198  -0.61763  -0.61240  -0.60955  -0.60402
 Alpha  occ. eigenvalues --   -0.59849  -0.59604  -0.59034  -0.58025  -0.57785
 Alpha  occ. eigenvalues --   -0.57637  -0.56977  -0.56689  -0.56328  -0.56116
 Alpha  occ. eigenvalues --   -0.55746  -0.55487  -0.55331  -0.54995  -0.54764
 Alpha  occ. eigenvalues --   -0.54309  -0.54253  -0.54141  -0.54043  -0.53511
 Alpha  occ. eigenvalues --   -0.53497  -0.53074  -0.52863  -0.52759  -0.52303
 Alpha  occ. eigenvalues --   -0.52078  -0.51925  -0.51728  -0.51550  -0.51476
 Alpha  occ. eigenvalues --   -0.51286  -0.51157  -0.51043  -0.50894  -0.50650
 Alpha  occ. eigenvalues --   -0.50525  -0.50331  -0.50020  -0.49606  -0.49467
 Alpha  occ. eigenvalues --   -0.49362  -0.49034  -0.48965  -0.48853  -0.48535
 Alpha  occ. eigenvalues --   -0.48432  -0.47968  -0.47711  -0.47632  -0.47589
 Alpha  occ. eigenvalues --   -0.47345  -0.47161  -0.46853  -0.46691  -0.46355
 Alpha  occ. eigenvalues --   -0.46237  -0.46168  -0.46068  -0.45862  -0.45758
 Alpha  occ. eigenvalues --   -0.45642  -0.45542  -0.45489  -0.45284  -0.45195
 Alpha  occ. eigenvalues --   -0.44957  -0.44792  -0.44583  -0.44526  -0.44132
 Alpha  occ. eigenvalues --   -0.44072  -0.43925  -0.43728  -0.43426  -0.43326
 Alpha  occ. eigenvalues --   -0.43240  -0.42847  -0.42731  -0.42673  -0.42448
 Alpha  occ. eigenvalues --   -0.42043  -0.41873  -0.41415  -0.41167  -0.40953
 Alpha  occ. eigenvalues --   -0.40581  -0.39394  -0.39344  -0.39302  -0.39199
 Alpha  occ. eigenvalues --   -0.39036  -0.38925  -0.38561  -0.38472  -0.38225
 Alpha  occ. eigenvalues --   -0.37330  -0.37040  -0.36877  -0.36730  -0.36665
 Alpha  occ. eigenvalues --   -0.35916  -0.35869  -0.35433  -0.33706  -0.32839
 Alpha  occ. eigenvalues --   -0.32116  -0.31937  -0.31807  -0.31719  -0.26103
 Alpha  occ. eigenvalues --   -0.23109
 Alpha virt. eigenvalues --   -0.07159  -0.00167   0.02511   0.04507   0.06024
 Alpha virt. eigenvalues --    0.06677   0.07418   0.07958   0.08327   0.09197
 Alpha virt. eigenvalues --    0.10705   0.11271   0.12314   0.12377   0.12637

 Mulliken charges:
               1
     1  Mg   0.967691
     2  C    0.001945
     3  C   -0.056643
     4  C   -0.109394
     5  C   -0.095397
     6  N   -0.317959
     7  C   -0.003437
     8  C   -0.034783
     9  C   -0.120440
    10  C    0.032658
    11  C    0.049237
    12  C    0.007895
    13  C   -0.004412
    14  C    0.207770
    15  O   -0.273280
    16  O   -0.349597
    17  N   -0.465359
    18  C    0.130214
    19  C   -0.133586
    20  C   -0.054958
    21  C    0.189948
    22  C    0.061870
    23  C   -0.020228
    24  O   -0.221595
    25  C   -0.005832
    26  N   -0.421516
    27  C    0.074667
    28  C   -0.098972
    29  C   -0.059800
    30  C    0.089468
    31  C    0.008395
    32  C   -0.050771
    33  C   -0.044666
    34  N   -0.426490
    35  C    0.128258
    36  C   -0.174747
    37  C   -0.007464
    38  C    0.136887
    39  C    0.076448
    40  C    0.141309
    41  O   -0.199818
    42  C   -0.091497
    43  C    0.256704
    44  O   -0.237324
    45  O   -0.379949
    46  C    0.122160
    47  C    0.276579
    48  C   -0.155274
    49  C   -0.189805
    50  C    0.030979
    51  C    0.018649
    52  C   -0.029693
    53  C   -0.050972
    54  C   -0.170433
    55  C    0.032941
    56  C    0.046060
    57  C   -0.052886
    58  C   -0.002125
    59  C   -0.147459
    60  C   -0.000451
    61  C    0.014643
    62  C   -0.026384
    63  C   -0.025995
    64  C   -0.236985
    65  C   -0.004172
    66  C    0.018600
    67  H   -0.013883
    68  H    0.005139
    69  H   -0.010568
    70  H    0.031785
    71  H    0.049070
    72  H    0.038537
    73  H    0.026950
    74  H    0.058755
    75  H    0.047115
    76  H    0.040986
    77  H    0.045214
    78  H    0.067627
    79  H    0.053151
    80  H    0.029051
    81  H    0.049927
    82  H    0.059091
    83  H    0.052441
    84  H    0.054777
    85  H    0.050535
    86  H    0.039952
    87  H    0.034249
    88  H    0.037134
    89  H    0.038046
    90  H    0.047647
    91  H    0.035505
    92  H    0.041420
    93  H    0.019199
    94  H    0.045031
    95  H    0.042154
    96  H    0.061344
    97  H    0.042415
    98  H    0.064226
    99  H    0.058956
   100  H    0.063206
   101  H    0.076370
   102  H    0.055346
   103  H    0.034089
   104  H    0.035793
   105  H    0.040973
   106  H    0.036428
   107  H    0.040002
   108  H    0.014945
   109  H    0.024602
   110  H    0.024973
   111  H    0.039457
   112  H    0.022191
   113  H    0.025756
   114  H    0.010823
   115  H    0.012810
   116  H    0.022363
   117  H    0.041234
   118  H    0.019385
   119  H    0.003982
   120  H    0.008121
   121  H    0.015681
   122  H    0.003478
   123  H    0.008853
   124  H    0.024108
   125  H    0.015725
   126  H    0.026857
   127  H    0.025138
   128  H    0.019966
   129  H    0.018360
   130  H    0.024324
   131  H    0.021780
   132  H    0.016302
   133  H    0.015635
   134  H    0.015179
   135  H    0.019237
   136  H    0.027758
   137  H    0.034513
   138  H    0.035086
   139  H    0.037012
   140  H    0.029756
 Sum of Mulliken charges =  -0.00000

 Dipole moment (field-independent basis, Debye):
    X=              0.1178    Y=              2.0556    Z=              1.4535  Tot=              2.5203
 Quadrupole moment (field-independent basis, Debye-Ang):
   XX=           -393.0175   YY=           -399.1065   ZZ=           -400.1636
   XY=            -46.6628   XZ=             -2.8798   YZ=            -41.7951

 Normal termination of Gaussian 16 at Thu May  5 02:45:27 2022.
