 Gaussian 16, Revision A.03,
 Gaussian 16:  ES64L-G16RevA.03 25-Dec-2016

 --------------------
 #p ZINDO=(nstates=5)
 --------------------

 ----------------------------
 step_51_chromophore_11 ZINDO
 ----------------------------
 Symbolic Z-matrix:
 Charge =  0 Multiplicity = 1

                         Standard orientation:
 ---------------------------------------------------------------------
 Center     Atomic      Atomic             Coordinates (Angstroms)
 Number     Number       Type             X           Y           Z
 ---------------------------------------------------------------------
      1         12           0       -4.697506    1.311729    0.607455
      2          6           0       -5.164978   -2.128532    0.223225
      3          6           0       -2.358833    0.593970    2.989900
      4          6           0       -3.781936    4.483809    0.406029
      5          6           0       -7.166867    1.779261   -1.844905
      6          7           0       -3.788296   -0.615113    1.467669
      7          6           0       -4.135388   -1.880240    1.132247
      8          6           0       -3.390020   -2.861072    2.138999
      9          6           0       -2.657896   -1.960198    3.122409
     10          6           0       -2.980159   -0.611540    2.578086
     11          6           0       -3.089926   -2.084279    4.594419
     12          6           0       -2.498588   -4.090728    1.482842
     13          6           0       -1.308820   -3.670109    0.593032
     14          6           0       -0.155872   -4.703502    0.376052
     15          8           0       -0.091376   -5.512585   -0.543516
     16          8           0        0.840495   -4.531451    1.282948
     17          7           0       -3.317184    2.397801    1.633330
     18          6           0       -2.527050    1.957083    2.621616
     19          6           0       -1.714642    3.037157    3.080984
     20          6           0       -2.051963    4.183602    2.290678
     21          6           0       -3.081677    3.715105    1.379685
     22          6           0       -0.623621    2.832095    4.172293
     23          6           0       -1.573529    5.531686    2.462643
     24          8           0       -0.677517    5.713456    3.237421
     25          6           0       -2.273405    6.712627    1.886043
     26          7           0       -5.275071    2.827496   -0.632168
     27          6           0       -4.809833    4.117099   -0.449819
     28          6           0       -5.370894    5.091905   -1.481843
     29          6           0       -6.630809    4.316001   -2.037597
     30          6           0       -6.337420    2.878175   -1.525978
     31          6           0       -5.685538    6.509662   -0.973749
     32          6           0       -6.852269    4.372250   -3.521170
     33          6           0       -6.688165    5.823850   -4.143585
     34          7           0       -6.085627    0.102906   -0.498976
     35          6           0       -7.086484    0.464263   -1.418861
     36          6           0       -7.896586   -0.726256   -1.680193
     37          6           0       -7.167735   -1.705872   -1.101182
     38          6           0       -6.006556   -1.216682   -0.476403
     39          6           0       -9.100302   -0.775273   -2.525734
     40          6           0       -7.046464   -3.174714   -1.006934
     41          8           0       -7.849044   -3.990997   -1.446221
     42          6           0       -5.804516   -3.423204   -0.093120
     43          6           0       -4.926878   -4.154773   -1.060547
     44          8           0       -4.413494   -3.674784   -2.059495
     45          8           0       -4.890059   -5.479227   -0.670122
     46          6           0       -3.970668   -6.407279   -1.420165
     47          6           0        2.042804   -5.307073    1.117403
     48          6           0        2.823880   -4.608884    0.019937
     49          6           0        4.065909   -4.053057    0.030887
     50          6           0        4.992002   -3.987811    1.235022
     51          6           0        4.533158   -3.213250   -1.105592
     52          6           0        4.647736   -1.685662   -0.914437
     53          6           0        6.158745   -1.229713   -1.003020
     54          6           0        6.365890   -0.045358   -2.034699
     55          6           0        6.673203   -0.608118   -3.455380
     56          6           0        7.226252    1.036346   -1.436263
     57          6           0        8.601155    0.471082   -1.095519
     58          6           0        9.164584    0.942867    0.220931
     59          6           0       10.667251    0.541819    0.428636
     60          6           0       10.884333    0.173247    1.897785
     61          6           0       11.591521    1.740494   -0.033588
     62          6           0       12.521369    1.299700   -1.215397
     63          6           0       13.754327    2.204341   -1.251313
     64          6           0       15.057993    1.485195   -0.654234
     65          6           0       16.025526    2.623001   -0.286719
     66          6           0       15.633366    0.343722   -1.550235
     67          1           0       -1.525360    0.496823    3.688259
     68          1           0       -3.341983    5.403905    0.014641
     69          1           0       -7.953566    1.996667   -2.570410
     70          1           0       -4.205085   -3.329976    2.690767
     71          1           0       -1.590770   -2.172383    3.058519
     72          1           0       -2.181539   -2.220421    5.180403
     73          1           0       -3.596123   -3.048030    4.661172
     74          1           0       -3.725832   -1.264736    4.928352
     75          1           0       -3.166466   -4.678279    0.853457
     76          1           0       -2.173524   -4.693444    2.330368
     77          1           0       -0.877247   -2.757185    1.003532
     78          1           0       -1.651836   -3.386300   -0.402116
     79          1           0        0.278268    3.440159    4.089022
     80          1           0       -0.219644    1.820016    4.138320
     81          1           0       -0.988503    3.022858    5.181340
     82          1           0       -1.902769    6.753013    0.861373
     83          1           0       -2.047687    7.596358    2.482339
     84          1           0       -3.359924    6.630360    1.896124
     85          1           0       -4.561129    5.245690   -2.195914
     86          1           0       -7.561441    4.711825   -1.632850
     87          1           0       -6.707478    6.801565   -1.215206
     88          1           0       -5.012651    7.229500   -1.440313
     89          1           0       -5.691308    6.673992    0.104237
     90          1           0       -7.829729    3.987187   -3.811140
     91          1           0       -6.026769    3.751016   -3.868378
     92          1           0       -5.700000    5.762928   -4.598063
     93          1           0       -6.681128    6.621280   -3.400495
     94          1           0       -7.469508    6.123211   -4.842372
     95          1           0       -9.029015   -0.164190   -3.425417
     96          1           0      -10.054720   -0.761334   -2.000224
     97          1           0       -9.085715   -1.766649   -2.977410
     98          1           0       -5.968003   -4.053636    0.780834
     99          1           0       -4.537187   -7.218538   -1.879027
    100          1           0       -3.244242   -6.924547   -0.793331
    101          1           0       -3.475443   -5.833681   -2.202943
    102          1           0        1.807582   -6.337290    0.851411
    103          1           0        2.514506   -5.290456    2.099774
    104          1           0        2.234792   -4.375379   -0.867248
    105          1           0        5.639125   -4.854891    1.102743
    106          1           0        4.483279   -4.147650    2.186227
    107          1           0        5.671158   -3.136180    1.234565
    108          1           0        3.921923   -3.314716   -2.002477
    109          1           0        5.460502   -3.658058   -1.464789
    110          1           0        4.408605   -1.490170    0.131584
    111          1           0        3.957143   -1.075914   -1.497631
    112          1           0        6.744006   -2.116870   -1.244934
    113          1           0        6.418380   -0.974772    0.024236
    114          1           0        5.378022    0.404960   -2.131134
    115          1           0        5.896631   -0.229208   -4.119583
    116          1           0        6.394717   -1.661043   -3.509312
    117          1           0        7.609511   -0.231130   -3.867073
    118          1           0        6.648564    1.641142   -0.737009
    119          1           0        7.403452    1.847412   -2.142880
    120          1           0        9.346135    0.743498   -1.843995
    121          1           0        8.729149   -0.609347   -1.041470
    122          1           0        8.464332    0.575487    0.970910
    123          1           0        8.899399    2.000203    0.200992
    124          1           0       10.828010   -0.375035   -0.136870
    125          1           0       11.893368    0.414864    2.232702
    126          1           0       10.725678   -0.887758    2.094112
    127          1           0       10.289597    0.717874    2.630775
    128          1           0       12.247398    2.226790    0.687778
    129          1           0       10.943758    2.558148   -0.349960
    130          1           0       11.973859    1.395978   -2.153386
    131          1           0       12.736601    0.242912   -1.058147
    132          1           0       13.564852    3.104090   -0.666472
    133          1           0       14.036195    2.508728   -2.259348
    134          1           0       14.743047    1.018905    0.280248
    135          1           0       16.565538    2.805470   -1.216226
    136          1           0       16.772590    2.287094    0.432420
    137          1           0       15.573131    3.543321    0.081986
    138          1           0       15.500440   -0.638137   -1.097456
    139          1           0       16.683337    0.583993   -1.711019
    140          1           0       14.949718    0.371056   -2.399657
 ---------------------------------------------------------------------

 SCF Done:  E(RZINDO/S) =  -474.462686830     A.U. after   20 cycles

 Excitation energies and oscillator strengths:

 Excited State   1:      Singlet-A      1.2244 eV 1012.63 nm  f=0.5593  <S**2>=0.000
     175 ->178        -0.19921
     176 ->177         0.66134
 This state for optimization and/or second-order correction.
 Total Energy, E(CIS/TDA) =  -474.417691728
 Copying the excited state density for this state as the 1-particle RhoCI density.

 Excited State   2:      Singlet-A      1.8642 eV  665.07 nm  f=0.0288  <S**2>=0.000
     175 ->177         0.54097
     176 ->178         0.43217

 Excited State   3:      Singlet-A      2.8621 eV  433.20 nm  f=0.0244  <S**2>=0.000
     168 ->177         0.28140
     168 ->179        -0.36275
     168 ->180         0.11733
     168 ->185        -0.13235
     169 ->177         0.20497
     169 ->179        -0.23721
     176 ->178         0.10118
     176 ->179        -0.18155

 Excited State   4:      Singlet-A      2.9035 eV  427.02 nm  f=0.0304  <S**2>=0.000
     170 ->177         0.27357
     170 ->178         0.11307
     170 ->179         0.21832
     170 ->180         0.40834
     170 ->184         0.15528
     170 ->185         0.20948
     170 ->187         0.17077
     170 ->196         0.11693

 Excited State   5:      Singlet-A      2.9423 eV  421.38 nm  f=0.7072  <S**2>=0.000
     168 ->177        -0.10502
     168 ->179         0.12106
     171 ->177        -0.15062
     175 ->177        -0.31469
     176 ->178         0.43177
     176 ->179        -0.28850

 The electronic state is 1-A.
 Alpha  occ. eigenvalues --   -1.85982  -1.82459  -1.79962  -1.74866  -1.72673
 Alpha  occ. eigenvalues --   -1.71420  -1.65478  -1.62115  -1.60556  -1.58052
 Alpha  occ. eigenvalues --   -1.55264  -1.50374  -1.49963  -1.49422  -1.46999
 Alpha  occ. eigenvalues --   -1.44367  -1.43489  -1.41519  -1.38292  -1.37334
 Alpha  occ. eigenvalues --   -1.35474  -1.35055  -1.31888  -1.30167  -1.28161
 Alpha  occ. eigenvalues --   -1.27127  -1.26969  -1.23054  -1.19242  -1.18675
 Alpha  occ. eigenvalues --   -1.17224  -1.16232  -1.15885  -1.14782  -1.14131
 Alpha  occ. eigenvalues --   -1.12960  -1.09650  -1.09344  -1.05589  -1.03925
 Alpha  occ. eigenvalues --   -1.02770  -1.02368  -0.99955  -0.98123  -0.97916
 Alpha  occ. eigenvalues --   -0.94825  -0.94201  -0.93537  -0.92506  -0.91969
 Alpha  occ. eigenvalues --   -0.91550  -0.91105  -0.88471  -0.87027  -0.86010
 Alpha  occ. eigenvalues --   -0.85136  -0.84147  -0.83733  -0.81581  -0.80829
 Alpha  occ. eigenvalues --   -0.79895  -0.79387  -0.78330  -0.77405  -0.76836
 Alpha  occ. eigenvalues --   -0.76409  -0.75949  -0.75625  -0.75204  -0.74792
 Alpha  occ. eigenvalues --   -0.74210  -0.73345  -0.72380  -0.71760  -0.70453
 Alpha  occ. eigenvalues --   -0.69715  -0.69458  -0.69204  -0.68566  -0.67731
 Alpha  occ. eigenvalues --   -0.67467  -0.67098  -0.66450  -0.65551  -0.65445
 Alpha  occ. eigenvalues --   -0.65111  -0.64841  -0.64211  -0.63804  -0.63613
 Alpha  occ. eigenvalues --   -0.63171  -0.63044  -0.62545  -0.61380  -0.61336
 Alpha  occ. eigenvalues --   -0.60979  -0.60518  -0.60348  -0.59956  -0.59468
 Alpha  occ. eigenvalues --   -0.59275  -0.58435  -0.58041  -0.57736  -0.57065
 Alpha  occ. eigenvalues --   -0.56933  -0.56804  -0.56364  -0.56156  -0.55985
 Alpha  occ. eigenvalues --   -0.55943  -0.55822  -0.55454  -0.55101  -0.54638
 Alpha  occ. eigenvalues --   -0.54327  -0.54141  -0.53735  -0.53531  -0.53138
 Alpha  occ. eigenvalues --   -0.52972  -0.52361  -0.51990  -0.51863  -0.51763
 Alpha  occ. eigenvalues --   -0.51434  -0.50766  -0.50508  -0.50300  -0.50032
 Alpha  occ. eigenvalues --   -0.50002  -0.49841  -0.49655  -0.49560  -0.49115
 Alpha  occ. eigenvalues --   -0.48845  -0.48449  -0.48219  -0.47857  -0.47674
 Alpha  occ. eigenvalues --   -0.47587  -0.47351  -0.47275  -0.46937  -0.46591
 Alpha  occ. eigenvalues --   -0.46076  -0.45962  -0.45934  -0.45704  -0.45571
 Alpha  occ. eigenvalues --   -0.45296  -0.44852  -0.44774  -0.44187  -0.43570
 Alpha  occ. eigenvalues --   -0.43341  -0.43199  -0.42960  -0.42254  -0.42189
 Alpha  occ. eigenvalues --   -0.41441  -0.41206  -0.40885  -0.38881  -0.38734
 Alpha  occ. eigenvalues --   -0.38386  -0.37747  -0.35454  -0.34689  -0.34042
 Alpha  occ. eigenvalues --   -0.33498  -0.32597  -0.32312  -0.31553  -0.26810
 Alpha  occ. eigenvalues --   -0.21920
 Alpha virt. eigenvalues --   -0.08694  -0.02487  -0.00879   0.01121   0.01953
 Alpha virt. eigenvalues --    0.02372   0.02676   0.03079   0.04747   0.04851
 Alpha virt. eigenvalues --    0.05812   0.06679   0.07009   0.07765   0.08034

 Mulliken charges:
               1
     1  Mg   0.425444
     2  C   -0.031797
     3  C   -0.070890
     4  C   -0.095433
     5  C   -0.062636
     6  N   -0.281088
     7  C    0.116868
     8  C   -0.002360
     9  C    0.014469
    10  C    0.112364
    11  C   -0.049934
    12  C   -0.022545
    13  C    0.008202
    14  C    0.468309
    15  O   -0.516202
    16  O   -0.264922
    17  N   -0.305276
    18  C    0.098410
    19  C    0.026211
    20  C   -0.049669
    21  C    0.115323
    22  C   -0.041476
    23  C    0.333753
    24  O   -0.531988
    25  C   -0.030178
    26  N   -0.274308
    27  C    0.119803
    28  C    0.006544
    29  C    0.010466
    30  C    0.126997
    31  C   -0.054755
    32  C   -0.030976
    33  C   -0.069414
    34  N   -0.333985
    35  C    0.105629
    36  C    0.055863
    37  C   -0.027999
    38  C    0.123144
    39  C   -0.040596
    40  C    0.334861
    41  O   -0.508676
    42  C    0.062625
    43  C    0.493341
    44  O   -0.524066
    45  O   -0.281189
    46  C    0.067671
    47  C    0.114537
    48  C   -0.087054
    49  C   -0.005107
    50  C   -0.046755
    51  C   -0.016563
    52  C   -0.038472
    53  C   -0.042420
    54  C   -0.009057
    55  C   -0.062356
    56  C   -0.023970
    57  C   -0.032299
    58  C   -0.042048
    59  C   -0.003777
    60  C   -0.057355
    61  C   -0.040010
    62  C   -0.037959
    63  C   -0.037126
    64  C   -0.021438
    65  C   -0.057856
    66  C   -0.060364
    67  H    0.023841
    68  H    0.028821
    69  H    0.020165
    70  H    0.023648
    71  H    0.033341
    72  H    0.021684
    73  H    0.016660
    74  H    0.036740
    75  H    0.033370
    76  H    0.027030
    77  H    0.031964
    78  H    0.046198
    79  H    0.034548
    80  H    0.017863
    81  H    0.032426
    82  H    0.042313
    83  H    0.035185
    84  H    0.028450
    85  H    0.039842
    86  H    0.033745
    87  H    0.014709
    88  H    0.019424
    89  H    0.022103
    90  H    0.025493
    91  H    0.023472
    92  H    0.021345
    93  H    0.021172
    94  H    0.023790
    95  H    0.032532
    96  H    0.044684
    97  H    0.024627
    98  H    0.055471
    99  H    0.037990
   100  H    0.041680
   101  H    0.055628
   102  H    0.052602
   103  H    0.032012
   104  H    0.039781
   105  H    0.021142
   106  H    0.024776
   107  H    0.031232
   108  H    0.009149
   109  H    0.020065
   110  H    0.010860
   111  H    0.033549
   112  H    0.021896
   113  H    0.015658
   114  H    0.007357
   115  H    0.006974
   116  H    0.030383
   117  H    0.033077
   118  H    0.028362
   119  H    0.003494
   120  H    0.010787
   121  H    0.017732
   122  H    0.011060
   123  H    0.017612
   124  H    0.030024
   125  H    0.008988
   126  H    0.014607
   127  H    0.017579
   128  H    0.027611
   129  H    0.016556
   130  H    0.015756
   131  H    0.024133
   132  H    0.021140
   133  H    0.016008
   134  H    0.011308
   135  H    0.014324
   136  H    0.011239
   137  H    0.024921
   138  H    0.020978
   139  H    0.031004
   140  H    0.025818
 Sum of Mulliken charges =  -0.00000

 Dipole moment (field-independent basis, Debye):
    X=             -1.6538    Y=              2.4810    Z=              1.9463  Tot=              3.5607
 N-N= 4.351852755685D+03 E-N= 0.000000000000D+00  KE=-9.378221513928D+03
 Leave Link  601 at Thu May  5 03:04:51 2022, MaxMem=  6710886400 cpu:               0.8 elap:               0.0
 (Enter /sw/apps/gaussian-16.0/g16/l9999.exe)
 1\1\GINC-BP1-COMPUTE192\SP\RZINDO CIS\STO-3G\C55H74Mg1N4O6\OF15641\05-
 May-2022\0\\#p ZINDO=(nstates=5)\\step_51_chromophore_11 ZINDO\\0,1\Mg
 ,0,53.702,23.424,44.947\C,0,50.951,25.454,44.231\C,0,51.764,20.735,44.
 126\C,0,56.493,21.649,44.922\C,0,55.466,26.346,45.772\N,0,51.56,23.139
 ,44.166\C,0,50.655,24.121,43.942\C,0,49.264,23.421,43.616\C,0,49.509,2
 1.928,43.776\C,0,50.963,21.904,44.099\C,0,48.684,21.227,44.87\C,0,48.4
 87,23.882,42.23\C,0,49.236,23.612,40.907\C,0,48.394,23.534,39.592\O,0,

 Normal termination of Gaussian 16 at Thu May  5 03:04:52 2022.
