 Gaussian 16, Revision A.03,
 Gaussian 16:  ES64L-G16RevA.03 25-Dec-2016

 ------------------------------
 #p blyp/Def2SVP td=(nstates=5)
 ------------------------------

 -------------------------------------------------
 step_501_chromophore_1 TDDFT with blyp functional
 -------------------------------------------------
 Symbolic Z-matrix:
 Charge =  0 Multiplicity = 1

                         Standard orientation:
 ---------------------------------------------------------------------
 Center     Atomic      Atomic             Coordinates (Angstroms)
 Number     Number       Type             X           Y           Z
 ---------------------------------------------------------------------
      1         12           0       -5.873255    0.390762   -0.086672
      2          6           0       -3.524532   -2.052857    0.681170
      3          6           0       -3.856387    2.728849    1.260585
      4          6           0       -8.444251    2.588011   -0.121457
      5          6           0       -8.231547   -2.181050   -0.701485
      6          7           0       -3.919674    0.262623    0.747902
      7          6           0       -3.019157   -0.774688    0.855515
      8          6           0       -1.697858   -0.282688    1.507891
      9          6           0       -2.152206    1.075367    2.126299
     10          6           0       -3.338399    1.443668    1.247295
     11          6           0       -2.585131    0.999079    3.632736
     12          6           0       -0.590592   -0.353593    0.440402
     13          6           0        0.701207   -0.881822    0.936971
     14          6           0        1.601157   -1.384609   -0.099085
     15          8           0        1.628662   -1.107666   -1.313082
     16          8           0        2.573868   -2.134482    0.584445
     17          7           0       -6.017969    2.413572    0.284139
     18          6           0       -5.034780    3.206920    0.782566
     19          6           0       -5.415521    4.582806    0.583949
     20          6           0       -6.793922    4.539650    0.164088
     21          6           0       -7.169283    3.122728    0.174478
     22          6           0       -4.539018    5.737208    0.914882
     23          6           0       -7.829825    5.682451   -0.091726
     24          8           0       -8.986037    5.466741   -0.460682
     25          6           0       -7.423838    7.128798   -0.038576
     26          7           0       -8.098139    0.143804   -0.037978
     27          6           0       -8.926673    1.288684   -0.192156
     28          6           0      -10.347126    0.955757   -0.508816
     29          6           0      -10.148417   -0.546329   -0.893771
     30          6           0       -8.691810   -0.881256   -0.583848
     31          6           0      -11.346403    1.214910    0.669118
     32          6           0      -10.456399   -0.850428   -2.405464
     33          6           0       -9.737040    0.059070   -3.433916
     34          7           0       -5.891182   -1.684876   -0.138537
     35          6           0       -6.909361   -2.597662   -0.454524
     36          6           0       -6.338147   -3.888516   -0.356374
     37          6           0       -5.023777   -3.702721    0.053681
     38          6           0       -4.818444   -2.368268    0.178578
     39          6           0       -7.029551   -5.171450   -0.692074
     40          6           0       -3.882323   -4.385549    0.448558
     41          8           0       -3.678427   -5.611252    0.518735
     42          6           0       -2.775083   -3.380274    0.887035
     43          6           0       -1.605210   -3.677224   -0.102300
     44          8           0       -1.610481   -3.429881   -1.321352
     45          8           0       -0.571864   -4.265889    0.618569
     46          6           0        0.565374   -4.877408   -0.139909
     47          6           0        3.587599   -2.747048   -0.318237
     48          6           0        4.777936   -1.902853   -0.098432
     49          6           0        5.990336   -2.131388    0.378989
     50          6           0        6.579481   -3.407314    0.840012
     51          6           0        6.991007   -0.876724    0.314009
     52          6           0        7.978165   -0.565811   -0.874042
     53          6           0        9.182946    0.303018   -0.382565
     54          6           0        9.436387    1.618141   -1.237342
     55          6           0        8.097726    2.474490   -1.151680
     56          6           0        9.950674    1.342416   -2.718630
     57          6           0       11.127854    2.233251   -3.111509
     58          6           0       12.481757    1.401726   -3.127219
     59          6           0       13.469243    1.667034   -2.017662
     60          6           0       14.894889    1.982370   -2.492537
     61          6           0       13.633954    0.487057   -1.025539
     62          6           0       14.230150    0.915143    0.355900
     63          6           0       13.696266    0.101093    1.553602
     64          6           0       13.103633    0.982761    2.717510
     65          6           0       13.724258    0.667412    4.092512
     66          6           0       11.575040    1.077787    2.755854
     67          1           0       -3.161612    3.371620    1.805325
     68          1           0       -9.357895    3.155968   -0.312664
     69          1           0       -8.848957   -2.997869   -1.081194
     70          1           0       -1.361510   -0.992787    2.262609
     71          1           0       -1.373378    1.819575    1.962578
     72          1           0       -2.454214    0.033681    4.122415
     73          1           0       -3.659147    1.152387    3.729973
     74          1           0       -1.975300    1.696791    4.206307
     75          1           0       -0.378763    0.680524    0.172301
     76          1           0       -0.975427   -0.938028   -0.395763
     77          1           0        0.446279   -1.737824    1.561987
     78          1           0        1.156844   -0.130102    1.581196
     79          1           0       -3.493814    5.436840    0.986054
     80          1           0       -4.986341    6.273745    1.752296
     81          1           0       -4.549927    6.444145    0.085218
     82          1           0       -8.348378    7.659854    0.189070
     83          1           0       -7.073727    7.469729   -1.013162
     84          1           0       -6.707667    7.324379    0.760118
     85          1           0      -10.740295    1.479923   -1.381018
     86          1           0      -10.796138   -1.156544   -0.263504
     87          1           0      -10.788476    1.243219    1.605465
     88          1           0      -12.140302    0.481244    0.809867
     89          1           0      -11.901924    2.152190    0.626290
     90          1           0      -11.542758   -0.834245   -2.494650
     91          1           0      -10.182293   -1.900203   -2.509508
     92          1           0       -9.102760   -0.502708   -4.119915
     93          1           0       -9.151842    0.777175   -2.858812
     94          1           0      -10.432410    0.620833   -4.056883
     95          1           0       -6.957213   -5.787933    0.203882
     96          1           0       -6.530479   -5.598613   -1.561865
     97          1           0       -8.097660   -5.089504   -0.893773
     98          1           0       -2.458978   -3.643177    1.896171
     99          1           0        0.127146   -5.657528   -0.761967
    100          1           0        1.373908   -5.328774    0.435022
    101          1           0        0.856547   -3.978505   -0.683390
    102          1           0        3.293793   -2.798977   -1.366863
    103          1           0        3.759355   -3.767034    0.024138
    104          1           0        4.624065   -0.883526   -0.451233
    105          1           0        7.497339   -3.702022    0.331661
    106          1           0        5.881586   -4.201152    0.574968
    107          1           0        6.716122   -3.523301    1.915853
    108          1           0        7.555642   -0.982279    1.240589
    109          1           0        6.386396    0.018107    0.462550
    110          1           0        7.538453   -0.132050   -1.771651
    111          1           0        8.407967   -1.535146   -1.124882
    112          1           0       10.092136   -0.289590   -0.285981
    113          1           0        8.869096    0.635505    0.607437
    114          1           0       10.263258    2.169967   -0.789434
    115          1           0        8.458108    3.486145   -0.964828
    116          1           0        7.482986    2.181427   -0.299645
    117          1           0        7.621184    2.544018   -2.128685
    118          1           0        9.071584    1.595794   -3.311541
    119          1           0       10.182189    0.293462   -2.907405
    120          1           0       11.218320    3.049098   -2.395581
    121          1           0       10.898281    2.855885   -3.975932
    122          1           0       12.899537    1.673620   -4.096739
    123          1           0       12.389842    0.331342   -3.308280
    124          1           0       13.184348    2.587880   -1.508906
    125          1           0       15.006526    3.024909   -2.195589
    126          1           0       15.180329    1.749725   -3.518985
    127          1           0       15.674054    1.474130   -1.923917
    128          1           0       14.268989   -0.265766   -1.492692
    129          1           0       12.652406    0.033883   -0.885661
    130          1           0       14.172918    1.982638    0.570183
    131          1           0       15.303790    0.730952    0.343811
    132          1           0       14.543342   -0.456936    1.952092
    133          1           0       12.885918   -0.565850    1.259981
    134          1           0       13.528731    1.979949    2.601141
    135          1           0       13.791434    1.599885    4.653192
    136          1           0       14.733010    0.278962    3.947284
    137          1           0       12.988570   -0.017529    4.511349
    138          1           0       11.279405    2.032844    3.190110
    139          1           0       11.103410    0.274004    3.320896
    140          1           0       11.116327    1.133214    1.769562
 ---------------------------------------------------------------------

 SCF Done:  E(RB-LYP) =  -3007.35470388     A.U. after   21 cycles

 Excitation energies and oscillator strengths:

 Excited State   1:      Singlet-A      1.6598 eV  746.97 nm  f=0.0000  <S**2>=0.000
     244 -> 247        0.70415
 This state for optimization and/or second-order correction.
 Total Energy, E(TD-HF/TD-DFT) =  -3007.29370672
 Copying the excited state density for this state as the 1-particle RhoCI density.

 Excited State   2:      Singlet-A      1.7777 eV  697.44 nm  f=0.2548  <S**2>=0.000
     243 -> 247        0.21343
     245 -> 248        0.15677
     246 -> 247        0.66325
     246 <- 247       -0.15045

 Excited State   3:      Singlet-A      1.8728 eV  662.01 nm  f=0.0462  <S**2>=0.000
     243 -> 247        0.64948
     245 -> 247        0.16977
     246 -> 247       -0.20940

 Excited State   4:      Singlet-A      2.0312 eV  610.39 nm  f=0.0898  <S**2>=0.000
     243 -> 247       -0.17395
     245 -> 247        0.62120
     246 -> 248       -0.20802
     246 -> 249       -0.11607

 Excited State   5:      Singlet-A      2.4014 eV  516.31 nm  f=0.0085  <S**2>=0.000
     242 -> 247        0.68917

 The electronic state is 1-A.
 Alpha  occ. eigenvalues --  -46.26771 -18.81984 -18.81912 -18.77634 -18.76882
 Alpha  occ. eigenvalues --  -18.75497 -18.74437 -14.03097 -14.02554 -14.00939
 Alpha  occ. eigenvalues --  -14.00126 -10.04396 -10.04287 -10.00024  -9.98305
 Alpha  occ. eigenvalues --   -9.97883  -9.97648  -9.96378  -9.96185  -9.95945
 Alpha  occ. eigenvalues --   -9.95932  -9.95815  -9.95095  -9.94963  -9.94418
 Alpha  occ. eigenvalues --   -9.93933  -9.93898  -9.93848  -9.93791  -9.93667
 Alpha  occ. eigenvalues --   -9.93475  -9.93178  -9.93071  -9.93044  -9.93009
 Alpha  occ. eigenvalues --   -9.92885  -9.92817  -9.92808  -9.92605  -9.92536
 Alpha  occ. eigenvalues --   -9.92527  -9.92360  -9.92243  -9.92185  -9.92090
 Alpha  occ. eigenvalues --   -9.92046  -9.91946  -9.91934  -9.91870  -9.91868
 Alpha  occ. eigenvalues --   -9.91849  -9.91489  -9.91447  -9.91411  -9.91274
 Alpha  occ. eigenvalues --   -9.91262  -9.91186  -9.91112  -9.91084  -9.90986
 Alpha  occ. eigenvalues --   -9.90923  -9.90921  -9.90836  -9.90628  -9.90244
 Alpha  occ. eigenvalues --   -9.89731  -2.91464  -1.71868  -1.71360  -1.71173
 Alpha  occ. eigenvalues --   -0.96632  -0.95990  -0.91062  -0.89561  -0.89337
 Alpha  occ. eigenvalues --   -0.88729  -0.87011  -0.86276  -0.85884  -0.84687
 Alpha  occ. eigenvalues --   -0.75372  -0.73855  -0.72974  -0.72711  -0.72365
 Alpha  occ. eigenvalues --   -0.71949  -0.71486  -0.71219  -0.70748  -0.70527
 Alpha  occ. eigenvalues --   -0.69952  -0.69474  -0.67938  -0.67301  -0.67023
 Alpha  occ. eigenvalues --   -0.66083  -0.65619  -0.65276  -0.65159  -0.64591
 Alpha  occ. eigenvalues --   -0.63942  -0.62813  -0.62445  -0.61557  -0.60817
 Alpha  occ. eigenvalues --   -0.60354  -0.60211  -0.60182  -0.59369  -0.58732
 Alpha  occ. eigenvalues --   -0.58330  -0.57862  -0.57098  -0.55708  -0.54861
 Alpha  occ. eigenvalues --   -0.53879  -0.53568  -0.52646  -0.52371  -0.51474
 Alpha  occ. eigenvalues --   -0.51203  -0.50823  -0.50574  -0.50097  -0.49718
 Alpha  occ. eigenvalues --   -0.49071  -0.48348  -0.47949  -0.47630  -0.46927
 Alpha  occ. eigenvalues --   -0.46436  -0.46246  -0.45887  -0.45221  -0.44230
 Alpha  occ. eigenvalues --   -0.43759  -0.43683  -0.43420  -0.42911  -0.42504
 Alpha  occ. eigenvalues --   -0.42149  -0.41939  -0.41561  -0.41525  -0.41261
 Alpha  occ. eigenvalues --   -0.41159  -0.40578  -0.40314  -0.40226  -0.40187
 Alpha  occ. eigenvalues --   -0.40020  -0.39867  -0.39762  -0.39233  -0.38925
 Alpha  occ. eigenvalues --   -0.38821  -0.38755  -0.38690  -0.38198  -0.38094
 Alpha  occ. eigenvalues --   -0.37922  -0.37854  -0.37529  -0.37142  -0.36911
 Alpha  occ. eigenvalues --   -0.36791  -0.36782  -0.36673  -0.36409  -0.36237
 Alpha  occ. eigenvalues --   -0.36126  -0.35904  -0.35882  -0.35611  -0.35526
 Alpha  occ. eigenvalues --   -0.35168  -0.35057  -0.34792  -0.34715  -0.34454
 Alpha  occ. eigenvalues --   -0.34299  -0.34014  -0.33942  -0.33858  -0.33748
 Alpha  occ. eigenvalues --   -0.33663  -0.33592  -0.33164  -0.32984  -0.32885
 Alpha  occ. eigenvalues --   -0.32694  -0.32688  -0.32370  -0.32041  -0.31866
 Alpha  occ. eigenvalues --   -0.31813  -0.31711  -0.31507  -0.31309  -0.31213
 Alpha  occ. eigenvalues --   -0.31122  -0.31012  -0.30918  -0.30723  -0.30647
 Alpha  occ. eigenvalues --   -0.30411  -0.30189  -0.30151  -0.30047  -0.29874
 Alpha  occ. eigenvalues --   -0.29723  -0.29650  -0.29517  -0.28973  -0.28820
 Alpha  occ. eigenvalues --   -0.28552  -0.28546  -0.28289  -0.28143  -0.28017
 Alpha  occ. eigenvalues --   -0.27292  -0.27207  -0.26812  -0.26508  -0.26029
 Alpha  occ. eigenvalues --   -0.25788  -0.25636  -0.25551  -0.25483  -0.25056
 Alpha  occ. eigenvalues --   -0.24928  -0.24673  -0.24549  -0.23923  -0.23433
 Alpha  occ. eigenvalues --   -0.23106  -0.22555  -0.22380  -0.21607  -0.20755
 Alpha  occ. eigenvalues --   -0.20287  -0.20056  -0.18574  -0.17762  -0.17441
 Alpha  occ. eigenvalues --   -0.15887
 Alpha virt. eigenvalues --   -0.11770  -0.06915  -0.05888  -0.04578  -0.04116
 Alpha virt. eigenvalues --   -0.02750  -0.02635  -0.02038  -0.01719   0.00301
 Alpha virt. eigenvalues --    0.01273   0.01901   0.02085   0.02786   0.02861

 Mulliken charges:
               1
     1  Mg   0.690272
     2  C   -0.036625
     3  C   -0.095798
     4  C    0.009201
     5  C   -0.098000
     6  N   -0.271414
     7  C   -0.056644
     8  C   -0.003505
     9  C    0.030491
    10  C   -0.008933
    11  C    0.139389
    12  C    0.129349
    13  C    0.110497
    14  C    0.117347
    15  O   -0.201728
    16  O   -0.303335
    17  N   -0.297358
    18  C    0.223137
    19  C   -0.155055
    20  C    0.023664
    21  C    0.154166
    22  C    0.176978
    23  C   -0.066436
    24  O   -0.178382
    25  C    0.133030
    26  N   -0.188604
    27  C   -0.091870
    28  C    0.059041
    29  C    0.004105
    30  C    0.075974
    31  C    0.118288
    32  C    0.074681
    33  C    0.066138
    34  N   -0.246168
    35  C    0.091699
    36  C   -0.186072
    37  C    0.192889
    38  C    0.119006
    39  C    0.182389
    40  C   -0.155650
    41  O   -0.168597
    42  C    0.101057
    43  C    0.136570
    44  O   -0.198127
    45  O   -0.298243
    46  C    0.202875
    47  C    0.355725
    48  C   -0.084138
    49  C   -0.139245
    50  C    0.151757
    51  C    0.064326
    52  C    0.128793
    53  C    0.032528
    54  C   -0.105890
    55  C    0.107258
    56  C    0.118874
    57  C    0.074096
    58  C    0.140390
    59  C   -0.073312
    60  C    0.105564
    61  C    0.091770
    62  C    0.072985
    63  C    0.113883
    64  C   -0.110325
    65  C    0.097797
    66  C    0.100466
    67  H   -0.061584
    68  H   -0.049594
    69  H   -0.056086
    70  H   -0.039001
    71  H   -0.044668
    72  H   -0.011401
    73  H    0.006335
    74  H   -0.002603
    75  H   -0.031935
    76  H    0.018979
    77  H   -0.007718
    78  H    0.009722
    79  H   -0.009041
    80  H    0.021626
    81  H   -0.006506
    82  H   -0.004219
    83  H    0.024081
    84  H   -0.021338
    85  H   -0.016408
    86  H   -0.034084
    87  H   -0.007883
    88  H   -0.013005
    89  H   -0.003850
    90  H   -0.024040
    91  H   -0.029420
    92  H   -0.001679
    93  H    0.009129
    94  H   -0.005600
    95  H    0.007826
    96  H    0.019182
    97  H   -0.028770
    98  H   -0.008940
    99  H    0.025411
   100  H    0.030577
   101  H    0.036437
   102  H    0.013463
   103  H   -0.032841
   104  H   -0.036690
   105  H    0.000613
   106  H   -0.039598
   107  H    0.004333
   108  H   -0.032473
   109  H   -0.025521
   110  H   -0.015147
   111  H   -0.042875
   112  H   -0.017342
   113  H   -0.013622
   114  H   -0.029408
   115  H   -0.024609
   116  H   -0.002192
   117  H   -0.008997
   118  H   -0.046000
   119  H   -0.026465
   120  H   -0.044304
   121  H   -0.037001
   122  H   -0.050830
   123  H   -0.041741
   124  H   -0.040317
   125  H   -0.024759
   126  H   -0.013775
   127  H   -0.029486
   128  H   -0.028088
   129  H   -0.029121
   130  H   -0.028812
   131  H   -0.034028
   132  H   -0.045072
   133  H   -0.030033
   134  H   -0.042511
   135  H   -0.015904
   136  H   -0.014718
   137  H   -0.016473
   138  H   -0.024999
   139  H   -0.010721
   140  H   -0.010858
 Sum of Mulliken charges =  -0.00000

 Dipole moment (field-independent basis, Debye):
    X=              2.1540    Y=              2.6658    Z=              1.9683  Tot=              3.9523
 Quadrupole moment (field-independent basis, Debye-Ang):
   XX=           -374.7816   YY=           -411.2374   ZZ=           -406.6434
   XY=              0.1745   XZ=              3.3178   YZ=              6.0851

 Normal termination of Gaussian 16 at Thu May  5 00:15:49 2022.
