 Gaussian 16, Revision A.03,
 Gaussian 16:  ES64L-G16RevA.03 25-Dec-2016

 -----------------------------------
 #p cam-b3lyp/Def2SVP td=(nstates=5)
 -----------------------------------

 ------------------------------------------------------
 step_501_chromophore_1 TDDFT with cam-b3lyp functional
 ------------------------------------------------------
 Symbolic Z-matrix:
 Charge =  0 Multiplicity = 1

                         Standard orientation:
 ---------------------------------------------------------------------
 Center     Atomic      Atomic             Coordinates (Angstroms)
 Number     Number       Type             X           Y           Z
 ---------------------------------------------------------------------
      1         12           0       -5.873255    0.390762   -0.086672
      2          6           0       -3.524532   -2.052857    0.681170
      3          6           0       -3.856387    2.728849    1.260585
      4          6           0       -8.444251    2.588011   -0.121457
      5          6           0       -8.231547   -2.181050   -0.701485
      6          7           0       -3.919674    0.262623    0.747902
      7          6           0       -3.019157   -0.774688    0.855515
      8          6           0       -1.697858   -0.282688    1.507891
      9          6           0       -2.152206    1.075367    2.126299
     10          6           0       -3.338399    1.443668    1.247295
     11          6           0       -2.585131    0.999079    3.632736
     12          6           0       -0.590592   -0.353593    0.440402
     13          6           0        0.701207   -0.881822    0.936971
     14          6           0        1.601157   -1.384609   -0.099085
     15          8           0        1.628662   -1.107666   -1.313082
     16          8           0        2.573868   -2.134482    0.584445
     17          7           0       -6.017969    2.413572    0.284139
     18          6           0       -5.034780    3.206920    0.782566
     19          6           0       -5.415521    4.582806    0.583949
     20          6           0       -6.793922    4.539650    0.164088
     21          6           0       -7.169283    3.122728    0.174478
     22          6           0       -4.539018    5.737208    0.914882
     23          6           0       -7.829825    5.682451   -0.091726
     24          8           0       -8.986037    5.466741   -0.460682
     25          6           0       -7.423838    7.128798   -0.038576
     26          7           0       -8.098139    0.143804   -0.037978
     27          6           0       -8.926673    1.288684   -0.192156
     28          6           0      -10.347126    0.955757   -0.508816
     29          6           0      -10.148417   -0.546329   -0.893771
     30          6           0       -8.691810   -0.881256   -0.583848
     31          6           0      -11.346403    1.214910    0.669118
     32          6           0      -10.456399   -0.850428   -2.405464
     33          6           0       -9.737040    0.059070   -3.433916
     34          7           0       -5.891182   -1.684876   -0.138537
     35          6           0       -6.909361   -2.597662   -0.454524
     36          6           0       -6.338147   -3.888516   -0.356374
     37          6           0       -5.023777   -3.702721    0.053681
     38          6           0       -4.818444   -2.368268    0.178578
     39          6           0       -7.029551   -5.171450   -0.692074
     40          6           0       -3.882323   -4.385549    0.448558
     41          8           0       -3.678427   -5.611252    0.518735
     42          6           0       -2.775083   -3.380274    0.887035
     43          6           0       -1.605210   -3.677224   -0.102300
     44          8           0       -1.610481   -3.429881   -1.321352
     45          8           0       -0.571864   -4.265889    0.618569
     46          6           0        0.565374   -4.877408   -0.139909
     47          6           0        3.587599   -2.747048   -0.318237
     48          6           0        4.777936   -1.902853   -0.098432
     49          6           0        5.990336   -2.131388    0.378989
     50          6           0        6.579481   -3.407314    0.840012
     51          6           0        6.991007   -0.876724    0.314009
     52          6           0        7.978165   -0.565811   -0.874042
     53          6           0        9.182946    0.303018   -0.382565
     54          6           0        9.436387    1.618141   -1.237342
     55          6           0        8.097726    2.474490   -1.151680
     56          6           0        9.950674    1.342416   -2.718630
     57          6           0       11.127854    2.233251   -3.111509
     58          6           0       12.481757    1.401726   -3.127219
     59          6           0       13.469243    1.667034   -2.017662
     60          6           0       14.894889    1.982370   -2.492537
     61          6           0       13.633954    0.487057   -1.025539
     62          6           0       14.230150    0.915143    0.355900
     63          6           0       13.696266    0.101093    1.553602
     64          6           0       13.103633    0.982761    2.717510
     65          6           0       13.724258    0.667412    4.092512
     66          6           0       11.575040    1.077787    2.755854
     67          1           0       -3.161612    3.371620    1.805325
     68          1           0       -9.357895    3.155968   -0.312664
     69          1           0       -8.848957   -2.997869   -1.081194
     70          1           0       -1.361510   -0.992787    2.262609
     71          1           0       -1.373378    1.819575    1.962578
     72          1           0       -2.454214    0.033681    4.122415
     73          1           0       -3.659147    1.152387    3.729973
     74          1           0       -1.975300    1.696791    4.206307
     75          1           0       -0.378763    0.680524    0.172301
     76          1           0       -0.975427   -0.938028   -0.395763
     77          1           0        0.446279   -1.737824    1.561987
     78          1           0        1.156844   -0.130102    1.581196
     79          1           0       -3.493814    5.436840    0.986054
     80          1           0       -4.986341    6.273745    1.752296
     81          1           0       -4.549927    6.444145    0.085218
     82          1           0       -8.348378    7.659854    0.189070
     83          1           0       -7.073727    7.469729   -1.013162
     84          1           0       -6.707667    7.324379    0.760118
     85          1           0      -10.740295    1.479923   -1.381018
     86          1           0      -10.796138   -1.156544   -0.263504
     87          1           0      -10.788476    1.243219    1.605465
     88          1           0      -12.140302    0.481244    0.809867
     89          1           0      -11.901924    2.152190    0.626290
     90          1           0      -11.542758   -0.834245   -2.494650
     91          1           0      -10.182293   -1.900203   -2.509508
     92          1           0       -9.102760   -0.502708   -4.119915
     93          1           0       -9.151842    0.777175   -2.858812
     94          1           0      -10.432410    0.620833   -4.056883
     95          1           0       -6.957213   -5.787933    0.203882
     96          1           0       -6.530479   -5.598613   -1.561865
     97          1           0       -8.097660   -5.089504   -0.893773
     98          1           0       -2.458978   -3.643177    1.896171
     99          1           0        0.127146   -5.657528   -0.761967
    100          1           0        1.373908   -5.328774    0.435022
    101          1           0        0.856547   -3.978505   -0.683390
    102          1           0        3.293793   -2.798977   -1.366863
    103          1           0        3.759355   -3.767034    0.024138
    104          1           0        4.624065   -0.883526   -0.451233
    105          1           0        7.497339   -3.702022    0.331661
    106          1           0        5.881586   -4.201152    0.574968
    107          1           0        6.716122   -3.523301    1.915853
    108          1           0        7.555642   -0.982279    1.240589
    109          1           0        6.386396    0.018107    0.462550
    110          1           0        7.538453   -0.132050   -1.771651
    111          1           0        8.407967   -1.535146   -1.124882
    112          1           0       10.092136   -0.289590   -0.285981
    113          1           0        8.869096    0.635505    0.607437
    114          1           0       10.263258    2.169967   -0.789434
    115          1           0        8.458108    3.486145   -0.964828
    116          1           0        7.482986    2.181427   -0.299645
    117          1           0        7.621184    2.544018   -2.128685
    118          1           0        9.071584    1.595794   -3.311541
    119          1           0       10.182189    0.293462   -2.907405
    120          1           0       11.218320    3.049098   -2.395581
    121          1           0       10.898281    2.855885   -3.975932
    122          1           0       12.899537    1.673620   -4.096739
    123          1           0       12.389842    0.331342   -3.308280
    124          1           0       13.184348    2.587880   -1.508906
    125          1           0       15.006526    3.024909   -2.195589
    126          1           0       15.180329    1.749725   -3.518985
    127          1           0       15.674054    1.474130   -1.923917
    128          1           0       14.268989   -0.265766   -1.492692
    129          1           0       12.652406    0.033883   -0.885661
    130          1           0       14.172918    1.982638    0.570183
    131          1           0       15.303790    0.730952    0.343811
    132          1           0       14.543342   -0.456936    1.952092
    133          1           0       12.885918   -0.565850    1.259981
    134          1           0       13.528731    1.979949    2.601141
    135          1           0       13.791434    1.599885    4.653192
    136          1           0       14.733010    0.278962    3.947284
    137          1           0       12.988570   -0.017529    4.511349
    138          1           0       11.279405    2.032844    3.190110
    139          1           0       11.103410    0.274004    3.320896
    140          1           0       11.116327    1.133214    1.769562
 ---------------------------------------------------------------------

 SCF Done:  E(RCAM-B3LYP) =  -3007.15001697     A.U. after   19 cycles

 Excitation energies and oscillator strengths:

 Excited State   1:      Singlet-A      1.6610 eV  746.45 nm  f=0.3711  <S**2>=0.000
     245 -> 248        0.16256
     246 -> 247        0.68888
     245 <- 248        0.10425
 This state for optimization and/or second-order correction.
 Total Energy, E(TD-HF/TD-DFT) =  -3007.08897715
 Copying the excited state density for this state as the 1-particle RhoCI density.

 Excited State   2:      Singlet-A      2.2188 eV  558.78 nm  f=0.1370  <S**2>=0.000
     245 -> 247        0.64331
     246 -> 248       -0.27254

 Excited State   3:      Singlet-A      3.2407 eV  382.58 nm  f=0.0003  <S**2>=0.000
     242 -> 247        0.31339
     242 -> 249        0.12675
     242 -> 251       -0.11642
     243 -> 247        0.45778
     244 -> 247       -0.37217

 Excited State   4:      Singlet-A      3.2592 eV  380.42 nm  f=0.0002  <S**2>=0.000
     242 -> 247        0.48938
     242 -> 249        0.19238
     242 -> 251       -0.17211
     243 -> 247       -0.12967
     244 -> 247        0.38845

 Excited State   5:      Singlet-A      3.3293 eV  372.40 nm  f=0.0005  <S**2>=0.000
     242 -> 247       -0.17530
     243 -> 247        0.47887
     244 -> 247        0.41869
     246 -> 248        0.19559

 The electronic state is 1-A.
 Alpha  occ. eigenvalues --  -46.88301 -19.24878 -19.24875 -19.20660 -19.20032
 Alpha  occ. eigenvalues --  -19.18713 -19.17654 -14.41939 -14.41466 -14.39328
 Alpha  occ. eigenvalues --  -14.38487 -10.40043 -10.39714 -10.35262 -10.33644
 Alpha  occ. eigenvalues --  -10.32032 -10.31795 -10.30965 -10.30567 -10.30308
 Alpha  occ. eigenvalues --  -10.30226 -10.30206 -10.29289 -10.29193 -10.28384
 Alpha  occ. eigenvalues --  -10.28361 -10.28231 -10.28205 -10.28028 -10.27682
 Alpha  occ. eigenvalues --  -10.27532 -10.27438 -10.27169 -10.27155 -10.26990
 Alpha  occ. eigenvalues --  -10.26983 -10.26901 -10.26714 -10.26527 -10.26463
 Alpha  occ. eigenvalues --  -10.26343 -10.26080 -10.25976 -10.25928 -10.25923
 Alpha  occ. eigenvalues --  -10.25917 -10.25863 -10.25814 -10.25716 -10.25557
 Alpha  occ. eigenvalues --  -10.25523 -10.25194 -10.25171 -10.25126 -10.25079
 Alpha  occ. eigenvalues --  -10.25028 -10.24829 -10.24785 -10.24754 -10.24636
 Alpha  occ. eigenvalues --  -10.24603 -10.24522 -10.24513 -10.24220 -10.23816
 Alpha  occ. eigenvalues --  -10.23770  -3.16895  -1.91776  -1.91355  -1.91198
 Alpha  occ. eigenvalues --   -1.15066  -1.14503  -1.09452  -1.07950  -1.07177
 Alpha  occ. eigenvalues --   -1.06693  -1.04795  -1.03885  -1.03505  -1.02238
 Alpha  occ. eigenvalues --   -0.92540  -0.90730  -0.89796  -0.89511  -0.89066
 Alpha  occ. eigenvalues --   -0.88571  -0.88163  -0.87818  -0.87341  -0.87131
 Alpha  occ. eigenvalues --   -0.86524  -0.85872  -0.84191  -0.83516  -0.83156
 Alpha  occ. eigenvalues --   -0.82085  -0.81689  -0.81337  -0.80997  -0.80474
 Alpha  occ. eigenvalues --   -0.79733  -0.78487  -0.78124  -0.77044  -0.76261
 Alpha  occ. eigenvalues --   -0.75701  -0.75548  -0.75484  -0.74639  -0.73968
 Alpha  occ. eigenvalues --   -0.73442  -0.72901  -0.72027  -0.70511  -0.69502
 Alpha  occ. eigenvalues --   -0.68499  -0.68173  -0.67086  -0.66817  -0.65734
 Alpha  occ. eigenvalues --   -0.65400  -0.64921  -0.64458  -0.64078  -0.63722
 Alpha  occ. eigenvalues --   -0.62886  -0.62251  -0.61632  -0.61418  -0.60591
 Alpha  occ. eigenvalues --   -0.60077  -0.59865  -0.59345  -0.58590  -0.57648
 Alpha  occ. eigenvalues --   -0.57132  -0.57043  -0.56918  -0.55940  -0.55459
 Alpha  occ. eigenvalues --   -0.55170  -0.55115  -0.54820  -0.54617  -0.54350
 Alpha  occ. eigenvalues --   -0.53856  -0.53241  -0.52970  -0.52960  -0.52891
 Alpha  occ. eigenvalues --   -0.52813  -0.52518  -0.52401  -0.52103  -0.51650
 Alpha  occ. eigenvalues --   -0.51561  -0.51442  -0.51062  -0.50461  -0.50425
 Alpha  occ. eigenvalues --   -0.50336  -0.50090  -0.49750  -0.49616  -0.49281
 Alpha  occ. eigenvalues --   -0.49217  -0.48986  -0.48944  -0.48736  -0.48421
 Alpha  occ. eigenvalues --   -0.48152  -0.48082  -0.48027  -0.47878  -0.47647
 Alpha  occ. eigenvalues --   -0.47549  -0.47323  -0.47038  -0.46659  -0.46388
 Alpha  occ. eigenvalues --   -0.46157  -0.45910  -0.45756  -0.45600  -0.45533
 Alpha  occ. eigenvalues --   -0.45375  -0.45308  -0.44789  -0.44596  -0.44538
 Alpha  occ. eigenvalues --   -0.44470  -0.44177  -0.44152  -0.43968  -0.43482
 Alpha  occ. eigenvalues --   -0.43445  -0.43381  -0.43305  -0.43076  -0.42696
 Alpha  occ. eigenvalues --   -0.42660  -0.42390  -0.42327  -0.42111  -0.42028
 Alpha  occ. eigenvalues --   -0.41745  -0.41607  -0.41587  -0.41371  -0.41218
 Alpha  occ. eigenvalues --   -0.41069  -0.40775  -0.40640  -0.40571  -0.40249
 Alpha  occ. eigenvalues --   -0.39710  -0.39577  -0.39415  -0.39252  -0.38982
 Alpha  occ. eigenvalues --   -0.38240  -0.38132  -0.37599  -0.37349  -0.36992
 Alpha  occ. eigenvalues --   -0.36810  -0.36655  -0.36376  -0.36159  -0.36149
 Alpha  occ. eigenvalues --   -0.35671  -0.35513  -0.35232  -0.34758  -0.34181
 Alpha  occ. eigenvalues --   -0.34079  -0.33834  -0.33214  -0.31321  -0.30802
 Alpha  occ. eigenvalues --   -0.30508  -0.30060  -0.29704  -0.29382  -0.24233
 Alpha  occ. eigenvalues --   -0.21182
 Alpha virt. eigenvalues --   -0.08991  -0.01503   0.00541   0.02266   0.02441
 Alpha virt. eigenvalues --    0.03615   0.04906   0.05051   0.05886   0.07352
 Alpha virt. eigenvalues --    0.08134   0.08178   0.08916   0.08996   0.09143

 Mulliken charges:
               1
     1  Mg   0.822597
     2  C   -0.061505
     3  C   -0.108841
     4  C   -0.010363
     5  C   -0.097618
     6  N   -0.340048
     7  C   -0.016048
     8  C   -0.048984
     9  C   -0.031944
    10  C    0.011242
    11  C    0.081664
    12  C    0.074494
    13  C    0.038700
    14  C    0.197470
    15  O   -0.240896
    16  O   -0.366355
    17  N   -0.383300
    18  C    0.220896
    19  C   -0.158241
    20  C   -0.039863
    21  C    0.171665
    22  C    0.117355
    23  C    0.010893
    24  O   -0.218637
    25  C    0.055151
    26  N   -0.251753
    27  C   -0.074948
    28  C   -0.004100
    29  C   -0.051308
    30  C    0.088373
    31  C    0.063739
    32  C    0.024254
    33  C    0.002141
    34  N   -0.340152
    35  C    0.098720
    36  C   -0.182133
    37  C    0.104152
    38  C    0.160330
    39  C    0.133444
    40  C   -0.058986
    41  O   -0.207741
    42  C    0.036180
    43  C    0.220828
    44  O   -0.233921
    45  O   -0.363058
    46  C    0.171062
    47  C    0.311219
    48  C   -0.098577
    49  C   -0.161570
    50  C    0.089526
    51  C    0.015445
    52  C    0.069614
    53  C   -0.011741
    54  C   -0.149350
    55  C    0.045955
    56  C    0.061951
    57  C    0.020911
    58  C    0.077477
    59  C   -0.127508
    60  C    0.045563
    61  C    0.042540
    62  C    0.019329
    63  C    0.058645
    64  C   -0.169507
    65  C    0.043096
    66  C    0.047784
    67  H   -0.026244
    68  H   -0.008773
    69  H   -0.020978
    70  H   -0.003541
    71  H   -0.008770
    72  H    0.013725
    73  H    0.032188
    74  H    0.021203
    75  H   -0.000398
    76  H    0.050580
    77  H    0.025611
    78  H    0.042815
    79  H    0.018875
    80  H    0.045397
    81  H    0.020170
    82  H    0.029439
    83  H    0.052150
    84  H    0.006311
    85  H    0.019386
    86  H    0.002957
    87  H    0.017719
    88  H    0.011226
    89  H    0.020588
    90  H    0.005159
    91  H   -0.001481
    92  H    0.023484
    93  H    0.028003
    94  H    0.019144
    95  H    0.034802
    96  H    0.045471
    97  H   -0.002639
    98  H    0.035703
    99  H    0.049470
   100  H    0.052766
   101  H    0.051762
   102  H    0.047898
   103  H   -0.004211
   104  H   -0.004276
   105  H    0.024335
   106  H   -0.015062
   107  H    0.029668
   108  H   -0.004426
   109  H    0.000519
   110  H    0.012104
   111  H   -0.014037
   112  H    0.006005
   113  H    0.010764
   114  H   -0.001467
   115  H    0.000695
   116  H    0.019792
   117  H    0.014222
   118  H   -0.016724
   119  H    0.001456
   120  H   -0.016288
   121  H   -0.005832
   122  H   -0.017466
   123  H   -0.011759
   124  H   -0.008939
   125  H   -0.000071
   126  H    0.011420
   127  H   -0.004828
   128  H    0.000422
   129  H   -0.007191
   130  H   -0.001556
   131  H   -0.006079
   132  H   -0.014092
   133  H   -0.002903
   134  H   -0.011095
   135  H    0.007884
   136  H    0.009044
   137  H    0.005264
   138  H    0.000371
   139  H    0.011475
   140  H    0.006275
 Sum of Mulliken charges =  -0.00000

 Dipole moment (field-independent basis, Debye):
    X=              2.1394    Y=              2.9393    Z=              2.1100  Tot=              4.2034
 Quadrupole moment (field-independent basis, Debye-Ang):
   XX=           -371.8590   YY=           -406.2206   ZZ=           -406.9136
   XY=             -1.2425   XZ=              3.6541   YZ=              6.7511

 Normal termination of Gaussian 16 at Wed May  4 23:01:09 2022.
