 Gaussian 16, Revision A.03,
 Gaussian 16:  ES64L-G16RevA.03 25-Dec-2016

 ---------------------------------
 #p PBE1PBE/Def2SVP td=(nstates=5)
 ---------------------------------

 ----------------------------------------------------
 step_501_chromophore_1 TDDFT with PBE1PBE functional
 ----------------------------------------------------
 Symbolic Z-matrix:
 Charge =  0 Multiplicity = 1

                         Standard orientation:
 ---------------------------------------------------------------------
 Center     Atomic      Atomic             Coordinates (Angstroms)
 Number     Number       Type             X           Y           Z
 ---------------------------------------------------------------------
      1         12           0       -5.873255    0.390762   -0.086672
      2          6           0       -3.524532   -2.052857    0.681170
      3          6           0       -3.856387    2.728849    1.260585
      4          6           0       -8.444251    2.588011   -0.121457
      5          6           0       -8.231547   -2.181050   -0.701485
      6          7           0       -3.919674    0.262623    0.747902
      7          6           0       -3.019157   -0.774688    0.855515
      8          6           0       -1.697858   -0.282688    1.507891
      9          6           0       -2.152206    1.075367    2.126299
     10          6           0       -3.338399    1.443668    1.247295
     11          6           0       -2.585131    0.999079    3.632736
     12          6           0       -0.590592   -0.353593    0.440402
     13          6           0        0.701207   -0.881822    0.936971
     14          6           0        1.601157   -1.384609   -0.099085
     15          8           0        1.628662   -1.107666   -1.313082
     16          8           0        2.573868   -2.134482    0.584445
     17          7           0       -6.017969    2.413572    0.284139
     18          6           0       -5.034780    3.206920    0.782566
     19          6           0       -5.415521    4.582806    0.583949
     20          6           0       -6.793922    4.539650    0.164088
     21          6           0       -7.169283    3.122728    0.174478
     22          6           0       -4.539018    5.737208    0.914882
     23          6           0       -7.829825    5.682451   -0.091726
     24          8           0       -8.986037    5.466741   -0.460682
     25          6           0       -7.423838    7.128798   -0.038576
     26          7           0       -8.098139    0.143804   -0.037978
     27          6           0       -8.926673    1.288684   -0.192156
     28          6           0      -10.347126    0.955757   -0.508816
     29          6           0      -10.148417   -0.546329   -0.893771
     30          6           0       -8.691810   -0.881256   -0.583848
     31          6           0      -11.346403    1.214910    0.669118
     32          6           0      -10.456399   -0.850428   -2.405464
     33          6           0       -9.737040    0.059070   -3.433916
     34          7           0       -5.891182   -1.684876   -0.138537
     35          6           0       -6.909361   -2.597662   -0.454524
     36          6           0       -6.338147   -3.888516   -0.356374
     37          6           0       -5.023777   -3.702721    0.053681
     38          6           0       -4.818444   -2.368268    0.178578
     39          6           0       -7.029551   -5.171450   -0.692074
     40          6           0       -3.882323   -4.385549    0.448558
     41          8           0       -3.678427   -5.611252    0.518735
     42          6           0       -2.775083   -3.380274    0.887035
     43          6           0       -1.605210   -3.677224   -0.102300
     44          8           0       -1.610481   -3.429881   -1.321352
     45          8           0       -0.571864   -4.265889    0.618569
     46          6           0        0.565374   -4.877408   -0.139909
     47          6           0        3.587599   -2.747048   -0.318237
     48          6           0        4.777936   -1.902853   -0.098432
     49          6           0        5.990336   -2.131388    0.378989
     50          6           0        6.579481   -3.407314    0.840012
     51          6           0        6.991007   -0.876724    0.314009
     52          6           0        7.978165   -0.565811   -0.874042
     53          6           0        9.182946    0.303018   -0.382565
     54          6           0        9.436387    1.618141   -1.237342
     55          6           0        8.097726    2.474490   -1.151680
     56          6           0        9.950674    1.342416   -2.718630
     57          6           0       11.127854    2.233251   -3.111509
     58          6           0       12.481757    1.401726   -3.127219
     59          6           0       13.469243    1.667034   -2.017662
     60          6           0       14.894889    1.982370   -2.492537
     61          6           0       13.633954    0.487057   -1.025539
     62          6           0       14.230150    0.915143    0.355900
     63          6           0       13.696266    0.101093    1.553602
     64          6           0       13.103633    0.982761    2.717510
     65          6           0       13.724258    0.667412    4.092512
     66          6           0       11.575040    1.077787    2.755854
     67          1           0       -3.161612    3.371620    1.805325
     68          1           0       -9.357895    3.155968   -0.312664
     69          1           0       -8.848957   -2.997869   -1.081194
     70          1           0       -1.361510   -0.992787    2.262609
     71          1           0       -1.373378    1.819575    1.962578
     72          1           0       -2.454214    0.033681    4.122415
     73          1           0       -3.659147    1.152387    3.729973
     74          1           0       -1.975300    1.696791    4.206307
     75          1           0       -0.378763    0.680524    0.172301
     76          1           0       -0.975427   -0.938028   -0.395763
     77          1           0        0.446279   -1.737824    1.561987
     78          1           0        1.156844   -0.130102    1.581196
     79          1           0       -3.493814    5.436840    0.986054
     80          1           0       -4.986341    6.273745    1.752296
     81          1           0       -4.549927    6.444145    0.085218
     82          1           0       -8.348378    7.659854    0.189070
     83          1           0       -7.073727    7.469729   -1.013162
     84          1           0       -6.707667    7.324379    0.760118
     85          1           0      -10.740295    1.479923   -1.381018
     86          1           0      -10.796138   -1.156544   -0.263504
     87          1           0      -10.788476    1.243219    1.605465
     88          1           0      -12.140302    0.481244    0.809867
     89          1           0      -11.901924    2.152190    0.626290
     90          1           0      -11.542758   -0.834245   -2.494650
     91          1           0      -10.182293   -1.900203   -2.509508
     92          1           0       -9.102760   -0.502708   -4.119915
     93          1           0       -9.151842    0.777175   -2.858812
     94          1           0      -10.432410    0.620833   -4.056883
     95          1           0       -6.957213   -5.787933    0.203882
     96          1           0       -6.530479   -5.598613   -1.561865
     97          1           0       -8.097660   -5.089504   -0.893773
     98          1           0       -2.458978   -3.643177    1.896171
     99          1           0        0.127146   -5.657528   -0.761967
    100          1           0        1.373908   -5.328774    0.435022
    101          1           0        0.856547   -3.978505   -0.683390
    102          1           0        3.293793   -2.798977   -1.366863
    103          1           0        3.759355   -3.767034    0.024138
    104          1           0        4.624065   -0.883526   -0.451233
    105          1           0        7.497339   -3.702022    0.331661
    106          1           0        5.881586   -4.201152    0.574968
    107          1           0        6.716122   -3.523301    1.915853
    108          1           0        7.555642   -0.982279    1.240589
    109          1           0        6.386396    0.018107    0.462550
    110          1           0        7.538453   -0.132050   -1.771651
    111          1           0        8.407967   -1.535146   -1.124882
    112          1           0       10.092136   -0.289590   -0.285981
    113          1           0        8.869096    0.635505    0.607437
    114          1           0       10.263258    2.169967   -0.789434
    115          1           0        8.458108    3.486145   -0.964828
    116          1           0        7.482986    2.181427   -0.299645
    117          1           0        7.621184    2.544018   -2.128685
    118          1           0        9.071584    1.595794   -3.311541
    119          1           0       10.182189    0.293462   -2.907405
    120          1           0       11.218320    3.049098   -2.395581
    121          1           0       10.898281    2.855885   -3.975932
    122          1           0       12.899537    1.673620   -4.096739
    123          1           0       12.389842    0.331342   -3.308280
    124          1           0       13.184348    2.587880   -1.508906
    125          1           0       15.006526    3.024909   -2.195589
    126          1           0       15.180329    1.749725   -3.518985
    127          1           0       15.674054    1.474130   -1.923917
    128          1           0       14.268989   -0.265766   -1.492692
    129          1           0       12.652406    0.033883   -0.885661
    130          1           0       14.172918    1.982638    0.570183
    131          1           0       15.303790    0.730952    0.343811
    132          1           0       14.543342   -0.456936    1.952092
    133          1           0       12.885918   -0.565850    1.259981
    134          1           0       13.528731    1.979949    2.601141
    135          1           0       13.791434    1.599885    4.653192
    136          1           0       14.733010    0.278962    3.947284
    137          1           0       12.988570   -0.017529    4.511349
    138          1           0       11.279405    2.032844    3.190110
    139          1           0       11.103410    0.274004    3.320896
    140          1           0       11.116327    1.133214    1.769562
 ---------------------------------------------------------------------

 SCF Done:  E(RPBE1PBE) =  -3005.33887248     A.U. after   16 cycles

 Excitation energies and oscillator strengths:

 Excited State   1:      Singlet-A      1.8243 eV  679.63 nm  f=0.3547  <S**2>=0.000
     245 -> 248        0.15482
     246 -> 247        0.69679
     246 <- 247       -0.11757
 This state for optimization and/or second-order correction.
 Total Energy, E(TD-HF/TD-DFT) =  -3005.27183090
 Copying the excited state density for this state as the 1-particle RhoCI density.

 Excited State   2:      Singlet-A      2.2324 eV  555.38 nm  f=0.1304  <S**2>=0.000
     245 -> 247        0.65179
     246 -> 248       -0.24408

 Excited State   3:      Singlet-A      2.7180 eV  456.15 nm  f=0.0006  <S**2>=0.000
     244 -> 247        0.68214
     244 -> 249        0.12847
     244 -> 250       -0.11844

 Excited State   4:      Singlet-A      2.9115 eV  425.84 nm  f=0.0034  <S**2>=0.000
     242 -> 247       -0.15461
     243 -> 247        0.67910

 Excited State   5:      Singlet-A      2.9981 eV  413.55 nm  f=0.0087  <S**2>=0.000
     241 -> 247        0.12584
     242 -> 247        0.66298
     243 -> 247        0.12794
     246 -> 248        0.11034

 The electronic state is 1-A.
 Alpha  occ. eigenvalues --  -46.91690 -19.25600 -19.25514 -19.20932 -19.20227
 Alpha  occ. eigenvalues --  -19.18965 -19.17857 -14.41543 -14.40907 -14.39005
 Alpha  occ. eigenvalues --  -14.38137 -10.37068 -10.36725 -10.32440 -10.30735
 Alpha  occ. eigenvalues --  -10.29195 -10.29163 -10.28669 -10.28378 -10.28113
 Alpha  occ. eigenvalues --  -10.27987 -10.27841 -10.26938 -10.26925 -10.26216
 Alpha  occ. eigenvalues --  -10.25990 -10.25964 -10.25836 -10.25756 -10.25518
 Alpha  occ. eigenvalues --  -10.25370 -10.24980 -10.24963 -10.24824 -10.24818
 Alpha  occ. eigenvalues --  -10.24445 -10.24360 -10.24254 -10.24183 -10.23984
 Alpha  occ. eigenvalues --  -10.23964 -10.23825 -10.23573 -10.23516 -10.23449
 Alpha  occ. eigenvalues --  -10.23342 -10.23337 -10.23204 -10.23105 -10.23071
 Alpha  occ. eigenvalues --  -10.22929 -10.22871 -10.22807 -10.22679 -10.22648
 Alpha  occ. eigenvalues --  -10.22622 -10.22344 -10.22299 -10.22257 -10.22214
 Alpha  occ. eigenvalues --  -10.22171 -10.22076 -10.21890 -10.21609 -10.21375
 Alpha  occ. eigenvalues --  -10.21219  -3.13863  -1.86683  -1.86241  -1.86088
 Alpha  occ. eigenvalues --   -1.09834  -1.09212  -1.04204  -1.02615  -1.02020
 Alpha  occ. eigenvalues --   -1.01465  -0.99427  -0.98577  -0.98146  -0.96862
 Alpha  occ. eigenvalues --   -0.86889  -0.84940  -0.83896  -0.83647  -0.83444
 Alpha  occ. eigenvalues --   -0.82875  -0.82258  -0.82125  -0.81468  -0.81411
 Alpha  occ. eigenvalues --   -0.80829  -0.80156  -0.78342  -0.77803  -0.77432
 Alpha  occ. eigenvalues --   -0.76293  -0.75876  -0.75506  -0.75245  -0.74778
 Alpha  occ. eigenvalues --   -0.73887  -0.72745  -0.72459  -0.71329  -0.70571
 Alpha  occ. eigenvalues --   -0.69896  -0.69808  -0.69635  -0.68786  -0.68122
 Alpha  occ. eigenvalues --   -0.67840  -0.67209  -0.66419  -0.64832  -0.63853
 Alpha  occ. eigenvalues --   -0.62879  -0.62480  -0.61431  -0.61115  -0.59938
 Alpha  occ. eigenvalues --   -0.59908  -0.59416  -0.59035  -0.58561  -0.57841
 Alpha  occ. eigenvalues --   -0.57368  -0.56438  -0.56202  -0.55660  -0.54946
 Alpha  occ. eigenvalues --   -0.54505  -0.54419  -0.53963  -0.53223  -0.52229
 Alpha  occ. eigenvalues --   -0.51654  -0.51382  -0.51243  -0.50517  -0.49988
 Alpha  occ. eigenvalues --   -0.49703  -0.49651  -0.49348  -0.49027  -0.48829
 Alpha  occ. eigenvalues --   -0.48218  -0.47689  -0.47629  -0.47511  -0.47402
 Alpha  occ. eigenvalues --   -0.47232  -0.47116  -0.46906  -0.46612  -0.46167
 Alpha  occ. eigenvalues --   -0.46081  -0.46001  -0.45563  -0.45025  -0.44975
 Alpha  occ. eigenvalues --   -0.44927  -0.44618  -0.44377  -0.44110  -0.43907
 Alpha  occ. eigenvalues --   -0.43741  -0.43633  -0.43574  -0.43322  -0.43002
 Alpha  occ. eigenvalues --   -0.42735  -0.42691  -0.42649  -0.42496  -0.42302
 Alpha  occ. eigenvalues --   -0.42161  -0.41997  -0.41671  -0.41332  -0.41107
 Alpha  occ. eigenvalues --   -0.40820  -0.40641  -0.40504  -0.40399  -0.40188
 Alpha  occ. eigenvalues --   -0.40157  -0.39905  -0.39429  -0.39359  -0.39208
 Alpha  occ. eigenvalues --   -0.39143  -0.38913  -0.38897  -0.38717  -0.38295
 Alpha  occ. eigenvalues --   -0.38223  -0.38168  -0.37985  -0.37878  -0.37578
 Alpha  occ. eigenvalues --   -0.37390  -0.37162  -0.37015  -0.36871  -0.36817
 Alpha  occ. eigenvalues --   -0.36540  -0.36383  -0.36344  -0.36144  -0.36062
 Alpha  occ. eigenvalues --   -0.35949  -0.35706  -0.35427  -0.35392  -0.35083
 Alpha  occ. eigenvalues --   -0.34620  -0.34403  -0.34292  -0.33989  -0.33751
 Alpha  occ. eigenvalues --   -0.33130  -0.33124  -0.32374  -0.32370  -0.32090
 Alpha  occ. eigenvalues --   -0.31794  -0.31573  -0.31212  -0.31050  -0.30992
 Alpha  occ. eigenvalues --   -0.30560  -0.30430  -0.30145  -0.29567  -0.29268
 Alpha  occ. eigenvalues --   -0.29082  -0.28763  -0.28691  -0.26991  -0.25813
 Alpha  occ. eigenvalues --   -0.25625  -0.25294  -0.25003  -0.24795  -0.21151
 Alpha  occ. eigenvalues --   -0.18828
 Alpha virt. eigenvalues --   -0.11407  -0.05114  -0.03655  -0.02016  -0.00948
 Alpha virt. eigenvalues --   -0.00399   0.00337   0.00722   0.01351   0.03375
 Alpha virt. eigenvalues --    0.04416   0.04504   0.04936   0.05633   0.05846

 Mulliken charges:
               1
     1  Mg   0.966806
     2  C   -0.055953
     3  C   -0.101207
     4  C   -0.008183
     5  C   -0.082196
     6  N   -0.436125
     7  C    0.055774
     8  C   -0.118064
     9  C   -0.120738
    10  C    0.049288
    11  C    0.029958
    12  C    0.029600
    13  C   -0.039347
    14  C    0.263092
    15  O   -0.273841
    16  O   -0.391829
    17  N   -0.493987
    18  C    0.233965
    19  C   -0.185398
    20  C   -0.079764
    21  C    0.196188
    22  C    0.058740
    23  C    0.059694
    24  O   -0.253109
    25  C   -0.017240
    26  N   -0.349217
    27  C   -0.047991
    28  C   -0.082610
    29  C   -0.128634
    30  C    0.125290
    31  C    0.011267
    32  C   -0.035580
    33  C   -0.073815
    34  N   -0.474848
    35  C    0.125704
    36  C   -0.204169
    37  C    0.048024
    38  C    0.210148
    39  C    0.083945
    40  C    0.034810
    41  O   -0.252740
    42  C   -0.068445
    43  C    0.305960
    44  O   -0.267731
    45  O   -0.394073
    46  C    0.114046
    47  C    0.257136
    48  C   -0.108269
    49  C   -0.199315
    50  C    0.027195
    51  C   -0.048152
    52  C    0.005665
    53  C   -0.073986
    54  C   -0.231252
    55  C   -0.018193
    56  C    0.009701
    57  C   -0.039692
    58  C    0.024665
    59  C   -0.212419
    60  C   -0.009621
    61  C   -0.027445
    62  C   -0.037153
    63  C    0.001627
    64  C   -0.257422
    65  C   -0.019135
    66  C   -0.023268
    67  H    0.005540
    68  H    0.024262
    69  H    0.009667
    70  H    0.034230
    71  H    0.027440
    72  H    0.040965
    73  H    0.059880
    74  H    0.048204
    75  H    0.033767
    76  H    0.084473
    77  H    0.059165
    78  H    0.074048
    79  H    0.045657
    80  H    0.072953
    81  H    0.049756
    82  H    0.056770
    83  H    0.078376
    84  H    0.033379
    85  H    0.056030
    86  H    0.040043
    87  H    0.045747
    88  H    0.038492
    89  H    0.047519
    90  H    0.038364
    91  H    0.033508
    92  H    0.051462
    93  H    0.059578
    94  H    0.046847
    95  H    0.062035
    96  H    0.072118
    97  H    0.023887
    98  H    0.070705
    99  H    0.071137
   100  H    0.072871
   101  H    0.077630
   102  H    0.074528
   103  H    0.024438
   104  H    0.024913
   105  H    0.051134
   106  H    0.014054
   107  H    0.056813
   108  H    0.028340
   109  H    0.033330
   110  H    0.043720
   111  H    0.021722
   112  H    0.040197
   113  H    0.043987
   114  H    0.038569
   115  H    0.029750
   116  H    0.047644
   117  H    0.040321
   118  H    0.016390
   119  H    0.033152
   120  H    0.015023
   121  H    0.025527
   122  H    0.016361
   123  H    0.019007
   124  H    0.028112
   125  H    0.027345
   126  H    0.037699
   127  H    0.022861
   128  H    0.034115
   129  H    0.031981
   130  H    0.028427
   131  H    0.026256
   132  H    0.018521
   133  H    0.029466
   134  H    0.027988
   135  H    0.035794
   136  H    0.036288
   137  H    0.033228
   138  H    0.028886
   139  H    0.037691
   140  H    0.043781
 Sum of Mulliken charges =  -0.00000

 Dipole moment (field-independent basis, Debye):
    X=              2.1056    Y=              3.0715    Z=              2.1343  Tot=              4.2922
 Quadrupole moment (field-independent basis, Debye-Ang):
   XX=           -366.0714   YY=           -403.3575   ZZ=           -404.1621
   XY=             -1.2186   XZ=              4.2199   YZ=              6.9514

 Normal termination of Gaussian 16 at Wed May  4 23:23:49 2022.
