 Gaussian 16, Revision A.03,
 Gaussian 16:  ES64L-G16RevA.03 25-Dec-2016

 --------------------------------
 #p wB97XD/Def2SVP td=(nstates=5)
 --------------------------------

 ---------------------------------------------------
 step_501_chromophore_1 TDDFT with wB97XD functional
 ---------------------------------------------------
 Symbolic Z-matrix:
 Charge =  0 Multiplicity = 1

                         Standard orientation:
 ---------------------------------------------------------------------
 Center     Atomic      Atomic             Coordinates (Angstroms)
 Number     Number       Type             X           Y           Z
 ---------------------------------------------------------------------
      1         12           0       -5.873255    0.390762   -0.086672
      2          6           0       -3.524532   -2.052857    0.681170
      3          6           0       -3.856387    2.728849    1.260585
      4          6           0       -8.444251    2.588011   -0.121457
      5          6           0       -8.231547   -2.181050   -0.701485
      6          7           0       -3.919674    0.262623    0.747902
      7          6           0       -3.019157   -0.774688    0.855515
      8          6           0       -1.697858   -0.282688    1.507891
      9          6           0       -2.152206    1.075367    2.126299
     10          6           0       -3.338399    1.443668    1.247295
     11          6           0       -2.585131    0.999079    3.632736
     12          6           0       -0.590592   -0.353593    0.440402
     13          6           0        0.701207   -0.881822    0.936971
     14          6           0        1.601157   -1.384609   -0.099085
     15          8           0        1.628662   -1.107666   -1.313082
     16          8           0        2.573868   -2.134482    0.584445
     17          7           0       -6.017969    2.413572    0.284139
     18          6           0       -5.034780    3.206920    0.782566
     19          6           0       -5.415521    4.582806    0.583949
     20          6           0       -6.793922    4.539650    0.164088
     21          6           0       -7.169283    3.122728    0.174478
     22          6           0       -4.539018    5.737208    0.914882
     23          6           0       -7.829825    5.682451   -0.091726
     24          8           0       -8.986037    5.466741   -0.460682
     25          6           0       -7.423838    7.128798   -0.038576
     26          7           0       -8.098139    0.143804   -0.037978
     27          6           0       -8.926673    1.288684   -0.192156
     28          6           0      -10.347126    0.955757   -0.508816
     29          6           0      -10.148417   -0.546329   -0.893771
     30          6           0       -8.691810   -0.881256   -0.583848
     31          6           0      -11.346403    1.214910    0.669118
     32          6           0      -10.456399   -0.850428   -2.405464
     33          6           0       -9.737040    0.059070   -3.433916
     34          7           0       -5.891182   -1.684876   -0.138537
     35          6           0       -6.909361   -2.597662   -0.454524
     36          6           0       -6.338147   -3.888516   -0.356374
     37          6           0       -5.023777   -3.702721    0.053681
     38          6           0       -4.818444   -2.368268    0.178578
     39          6           0       -7.029551   -5.171450   -0.692074
     40          6           0       -3.882323   -4.385549    0.448558
     41          8           0       -3.678427   -5.611252    0.518735
     42          6           0       -2.775083   -3.380274    0.887035
     43          6           0       -1.605210   -3.677224   -0.102300
     44          8           0       -1.610481   -3.429881   -1.321352
     45          8           0       -0.571864   -4.265889    0.618569
     46          6           0        0.565374   -4.877408   -0.139909
     47          6           0        3.587599   -2.747048   -0.318237
     48          6           0        4.777936   -1.902853   -0.098432
     49          6           0        5.990336   -2.131388    0.378989
     50          6           0        6.579481   -3.407314    0.840012
     51          6           0        6.991007   -0.876724    0.314009
     52          6           0        7.978165   -0.565811   -0.874042
     53          6           0        9.182946    0.303018   -0.382565
     54          6           0        9.436387    1.618141   -1.237342
     55          6           0        8.097726    2.474490   -1.151680
     56          6           0        9.950674    1.342416   -2.718630
     57          6           0       11.127854    2.233251   -3.111509
     58          6           0       12.481757    1.401726   -3.127219
     59          6           0       13.469243    1.667034   -2.017662
     60          6           0       14.894889    1.982370   -2.492537
     61          6           0       13.633954    0.487057   -1.025539
     62          6           0       14.230150    0.915143    0.355900
     63          6           0       13.696266    0.101093    1.553602
     64          6           0       13.103633    0.982761    2.717510
     65          6           0       13.724258    0.667412    4.092512
     66          6           0       11.575040    1.077787    2.755854
     67          1           0       -3.161612    3.371620    1.805325
     68          1           0       -9.357895    3.155968   -0.312664
     69          1           0       -8.848957   -2.997869   -1.081194
     70          1           0       -1.361510   -0.992787    2.262609
     71          1           0       -1.373378    1.819575    1.962578
     72          1           0       -2.454214    0.033681    4.122415
     73          1           0       -3.659147    1.152387    3.729973
     74          1           0       -1.975300    1.696791    4.206307
     75          1           0       -0.378763    0.680524    0.172301
     76          1           0       -0.975427   -0.938028   -0.395763
     77          1           0        0.446279   -1.737824    1.561987
     78          1           0        1.156844   -0.130102    1.581196
     79          1           0       -3.493814    5.436840    0.986054
     80          1           0       -4.986341    6.273745    1.752296
     81          1           0       -4.549927    6.444145    0.085218
     82          1           0       -8.348378    7.659854    0.189070
     83          1           0       -7.073727    7.469729   -1.013162
     84          1           0       -6.707667    7.324379    0.760118
     85          1           0      -10.740295    1.479923   -1.381018
     86          1           0      -10.796138   -1.156544   -0.263504
     87          1           0      -10.788476    1.243219    1.605465
     88          1           0      -12.140302    0.481244    0.809867
     89          1           0      -11.901924    2.152190    0.626290
     90          1           0      -11.542758   -0.834245   -2.494650
     91          1           0      -10.182293   -1.900203   -2.509508
     92          1           0       -9.102760   -0.502708   -4.119915
     93          1           0       -9.151842    0.777175   -2.858812
     94          1           0      -10.432410    0.620833   -4.056883
     95          1           0       -6.957213   -5.787933    0.203882
     96          1           0       -6.530479   -5.598613   -1.561865
     97          1           0       -8.097660   -5.089504   -0.893773
     98          1           0       -2.458978   -3.643177    1.896171
     99          1           0        0.127146   -5.657528   -0.761967
    100          1           0        1.373908   -5.328774    0.435022
    101          1           0        0.856547   -3.978505   -0.683390
    102          1           0        3.293793   -2.798977   -1.366863
    103          1           0        3.759355   -3.767034    0.024138
    104          1           0        4.624065   -0.883526   -0.451233
    105          1           0        7.497339   -3.702022    0.331661
    106          1           0        5.881586   -4.201152    0.574968
    107          1           0        6.716122   -3.523301    1.915853
    108          1           0        7.555642   -0.982279    1.240589
    109          1           0        6.386396    0.018107    0.462550
    110          1           0        7.538453   -0.132050   -1.771651
    111          1           0        8.407967   -1.535146   -1.124882
    112          1           0       10.092136   -0.289590   -0.285981
    113          1           0        8.869096    0.635505    0.607437
    114          1           0       10.263258    2.169967   -0.789434
    115          1           0        8.458108    3.486145   -0.964828
    116          1           0        7.482986    2.181427   -0.299645
    117          1           0        7.621184    2.544018   -2.128685
    118          1           0        9.071584    1.595794   -3.311541
    119          1           0       10.182189    0.293462   -2.907405
    120          1           0       11.218320    3.049098   -2.395581
    121          1           0       10.898281    2.855885   -3.975932
    122          1           0       12.899537    1.673620   -4.096739
    123          1           0       12.389842    0.331342   -3.308280
    124          1           0       13.184348    2.587880   -1.508906
    125          1           0       15.006526    3.024909   -2.195589
    126          1           0       15.180329    1.749725   -3.518985
    127          1           0       15.674054    1.474130   -1.923917
    128          1           0       14.268989   -0.265766   -1.492692
    129          1           0       12.652406    0.033883   -0.885661
    130          1           0       14.172918    1.982638    0.570183
    131          1           0       15.303790    0.730952    0.343811
    132          1           0       14.543342   -0.456936    1.952092
    133          1           0       12.885918   -0.565850    1.259981
    134          1           0       13.528731    1.979949    2.601141
    135          1           0       13.791434    1.599885    4.653192
    136          1           0       14.733010    0.278962    3.947284
    137          1           0       12.988570   -0.017529    4.511349
    138          1           0       11.279405    2.032844    3.190110
    139          1           0       11.103410    0.274004    3.320896
    140          1           0       11.116327    1.133214    1.769562
 ---------------------------------------------------------------------

 SCF Done:  E(RwB97XD) =  -3007.85071458     A.U. after   19 cycles

 Excitation energies and oscillator strengths:

 Excited State   1:      Singlet-A      1.6041 eV  772.92 nm  f=0.3708  <S**2>=0.000
     245 -> 248        0.16855
     246 -> 247        0.68662
     245 <- 248        0.11371
 This state for optimization and/or second-order correction.
 Total Energy, E(TD-HF/TD-DFT) =  -3007.79176518
 Copying the excited state density for this state as the 1-particle RhoCI density.

 Excited State   2:      Singlet-A      2.1618 eV  573.53 nm  f=0.1333  <S**2>=0.000
     245 -> 247        0.64144
     246 -> 248       -0.27582

 Excited State   3:      Singlet-A      3.2521 eV  381.24 nm  f=0.0002  <S**2>=0.000
     242 -> 247        0.16589
     242 -> 250       -0.11108
     243 -> 247        0.55291
     244 -> 247       -0.33821

 Excited State   4:      Singlet-A      3.2862 eV  377.29 nm  f=0.0002  <S**2>=0.000
     242 -> 247        0.51772
     242 -> 249        0.22346
     242 -> 250       -0.21173
     244 -> 247        0.33691

 Excited State   5:      Singlet-A      3.3564 eV  369.40 nm  f=0.0029  <S**2>=0.000
     242 -> 247       -0.24312
     243 -> 247        0.36622
     244 -> 247        0.46860
     246 -> 248        0.22348

 The electronic state is 1-A.
 Alpha  occ. eigenvalues --  -46.94648 -19.30137 -19.30115 -19.25604 -19.24993
 Alpha  occ. eigenvalues --  -19.23713 -19.22750 -14.46556 -14.46052 -14.43897
 Alpha  occ. eigenvalues --  -14.43091 -10.43947 -10.43543 -10.39211 -10.37673
 Alpha  occ. eigenvalues --  -10.35796 -10.35696 -10.35021 -10.34568 -10.34320
 Alpha  occ. eigenvalues --  -10.34215 -10.34192 -10.33345 -10.33148 -10.32436
 Alpha  occ. eigenvalues --  -10.32423 -10.32321 -10.32195 -10.32101 -10.31809
 Alpha  occ. eigenvalues --  -10.31583 -10.31565 -10.31227 -10.31185 -10.31028
 Alpha  occ. eigenvalues --  -10.30880 -10.30794 -10.30768 -10.30523 -10.30308
 Alpha  occ. eigenvalues --  -10.30292 -10.30087 -10.29945 -10.29891 -10.29842
 Alpha  occ. eigenvalues --  -10.29808 -10.29751 -10.29668 -10.29609 -10.29496
 Alpha  occ. eigenvalues --  -10.29348 -10.29136 -10.29097 -10.29092 -10.28997
 Alpha  occ. eigenvalues --  -10.28988 -10.28712 -10.28680 -10.28673 -10.28572
 Alpha  occ. eigenvalues --  -10.28531 -10.28433 -10.28333 -10.28031 -10.27801
 Alpha  occ. eigenvalues --  -10.27644  -3.20675  -1.94244  -1.93805  -1.93648
 Alpha  occ. eigenvalues --   -1.17232  -1.16677  -1.11635  -1.10191  -1.09379
 Alpha  occ. eigenvalues --   -1.08901  -1.06842  -1.05903  -1.05506  -1.04244
 Alpha  occ. eigenvalues --   -0.94550  -0.92585  -0.91572  -0.91318  -0.90999
 Alpha  occ. eigenvalues --   -0.90436  -0.89927  -0.89718  -0.89125  -0.89063
 Alpha  occ. eigenvalues --   -0.88455  -0.87764  -0.86011  -0.85455  -0.85052
 Alpha  occ. eigenvalues --   -0.83935  -0.83560  -0.83203  -0.82926  -0.82413
 Alpha  occ. eigenvalues --   -0.81560  -0.80400  -0.80048  -0.78955  -0.78205
 Alpha  occ. eigenvalues --   -0.77560  -0.77407  -0.77328  -0.76459  -0.75795
 Alpha  occ. eigenvalues --   -0.75414  -0.74818  -0.73969  -0.72427  -0.71425
 Alpha  occ. eigenvalues --   -0.70457  -0.70098  -0.68994  -0.68739  -0.67577
 Alpha  occ. eigenvalues --   -0.67390  -0.66883  -0.66453  -0.66043  -0.65518
 Alpha  occ. eigenvalues --   -0.64864  -0.64076  -0.63653  -0.63278  -0.62490
 Alpha  occ. eigenvalues --   -0.62013  -0.61832  -0.61337  -0.60585  -0.59627
 Alpha  occ. eigenvalues --   -0.59068  -0.58998  -0.58802  -0.57899  -0.57393
 Alpha  occ. eigenvalues --   -0.57116  -0.57059  -0.56780  -0.56488  -0.56262
 Alpha  occ. eigenvalues --   -0.55690  -0.55108  -0.54922  -0.54871  -0.54810
 Alpha  occ. eigenvalues --   -0.54663  -0.54435  -0.54307  -0.54011  -0.53608
 Alpha  occ. eigenvalues --   -0.53469  -0.53373  -0.52928  -0.52383  -0.52299
 Alpha  occ. eigenvalues --   -0.52254  -0.51977  -0.51666  -0.51536  -0.51216
 Alpha  occ. eigenvalues --   -0.51094  -0.50879  -0.50834  -0.50651  -0.50303
 Alpha  occ. eigenvalues --   -0.50027  -0.50005  -0.49976  -0.49782  -0.49585
 Alpha  occ. eigenvalues --   -0.49430  -0.49270  -0.48973  -0.48562  -0.48285
 Alpha  occ. eigenvalues --   -0.48037  -0.47815  -0.47664  -0.47517  -0.47392
 Alpha  occ. eigenvalues --   -0.47294  -0.47147  -0.46650  -0.46528  -0.46400
 Alpha  occ. eigenvalues --   -0.46377  -0.46072  -0.46040  -0.45894  -0.45428
 Alpha  occ. eigenvalues --   -0.45356  -0.45313  -0.45175  -0.45024  -0.44592
 Alpha  occ. eigenvalues --   -0.44559  -0.44293  -0.44176  -0.43994  -0.43929
 Alpha  occ. eigenvalues --   -0.43744  -0.43524  -0.43451  -0.43228  -0.43146
 Alpha  occ. eigenvalues --   -0.43037  -0.42711  -0.42536  -0.42469  -0.42119
 Alpha  occ. eigenvalues --   -0.41625  -0.41449  -0.41314  -0.41086  -0.40845
 Alpha  occ. eigenvalues --   -0.40158  -0.40044  -0.39428  -0.39270  -0.39114
 Alpha  occ. eigenvalues --   -0.38724  -0.38569  -0.38229  -0.38153  -0.37997
 Alpha  occ. eigenvalues --   -0.37524  -0.37359  -0.37090  -0.36667  -0.36147
 Alpha  occ. eigenvalues --   -0.36090  -0.35669  -0.35451  -0.33538  -0.32708
 Alpha  occ. eigenvalues --   -0.32542  -0.32045  -0.31892  -0.31513  -0.26145
 Alpha  occ. eigenvalues --   -0.22984
 Alpha virt. eigenvalues --   -0.07336   0.00446   0.02618   0.04469   0.05502
 Alpha virt. eigenvalues --    0.05845   0.07080   0.07419   0.08064   0.10065
 Alpha virt. eigenvalues --    0.10858   0.11341   0.11513   0.12317   0.12564

 Mulliken charges:
               1
     1  Mg   0.958119
     2  C   -0.067613
     3  C   -0.118396
     4  C   -0.020743
     5  C   -0.102439
     6  N   -0.407251
     7  C    0.025882
     8  C   -0.091528
     9  C   -0.088072
    10  C    0.035104
    11  C    0.035262
    12  C    0.037795
    13  C   -0.015559
    14  C    0.246396
    15  O   -0.269125
    16  O   -0.390890
    17  N   -0.464042
    18  C    0.229673
    19  C   -0.175061
    20  C   -0.078189
    21  C    0.188267
    22  C    0.068853
    23  C    0.055889
    24  O   -0.248522
    25  C   -0.006220
    26  N   -0.316686
    27  C   -0.057122
    28  C   -0.058135
    29  C   -0.099813
    30  C    0.111810
    31  C    0.018227
    32  C   -0.021906
    33  C   -0.053920
    34  N   -0.434982
    35  C    0.117112
    36  C   -0.197767
    37  C    0.054094
    38  C    0.194838
    39  C    0.092908
    40  C    0.017018
    41  O   -0.242782
    42  C   -0.028038
    43  C    0.278666
    44  O   -0.260352
    45  O   -0.392078
    46  C    0.134324
    47  C    0.274903
    48  C   -0.114816
    49  C   -0.191406
    50  C    0.040340
    51  C   -0.023031
    52  C    0.019075
    53  C   -0.048816
    54  C   -0.198098
    55  C   -0.003261
    56  C    0.019816
    57  C   -0.019846
    58  C    0.034492
    59  C   -0.183329
    60  C   -0.000583
    61  C    0.004218
    62  C   -0.024241
    63  C    0.017524
    64  C   -0.229074
    65  C   -0.004719
    66  C   -0.000550
    67  H   -0.001016
    68  H    0.018692
    69  H    0.002698
    70  H    0.019182
    71  H    0.018192
    72  H    0.035577
    73  H    0.053576
    74  H    0.043484
    75  H    0.026176
    76  H    0.073154
    77  H    0.048140
    78  H    0.069529
    79  H    0.041440
    80  H    0.067580
    81  H    0.043548
    82  H    0.054639
    83  H    0.075311
    84  H    0.027153
    85  H    0.045924
    86  H    0.030851
    87  H    0.039507
    88  H    0.032765
    89  H    0.042661
    90  H    0.031178
    91  H    0.022941
    92  H    0.046857
    93  H    0.045790
    94  H    0.042284
    95  H    0.057976
    96  H    0.068342
    97  H    0.019624
    98  H    0.066513
    99  H    0.068468
   100  H    0.070944
   101  H    0.065586
   102  H    0.070641
   103  H    0.018620
   104  H    0.020901
   105  H    0.046179
   106  H    0.006133
   107  H    0.052537
   108  H    0.018684
   109  H    0.022011
   110  H    0.035575
   111  H    0.012042
   112  H    0.029432
   113  H    0.029323
   114  H    0.020924
   115  H    0.023997
   116  H    0.039617
   117  H    0.034149
   118  H    0.006640
   119  H    0.023718
   120  H    0.003927
   121  H    0.020294
   122  H    0.008423
   123  H    0.010922
   124  H    0.013867
   125  H    0.022298
   126  H    0.033115
   127  H    0.014800
   128  H    0.024875
   129  H    0.011775
   130  H    0.018428
   131  H    0.018134
   132  H    0.010635
   133  H    0.019286
   134  H    0.014550
   135  H    0.030342
   136  H    0.030109
   137  H    0.025347
   138  H    0.023269
   139  H    0.031400
   140  H    0.026211
 Sum of Mulliken charges =  -0.00000

 Dipole moment (field-independent basis, Debye):
    X=              2.1691    Y=              2.9353    Z=              2.1170  Tot=              4.2193
 Quadrupole moment (field-independent basis, Debye-Ang):
   XX=           -366.7147   YY=           -401.5348   ZZ=           -403.8899
   XY=             -1.0563   XZ=              4.4129   YZ=              6.8731

 Normal termination of Gaussian 16 at Wed May  4 23:54:36 2022.
