 Gaussian 16, Revision A.03,
 Gaussian 16:  ES64L-G16RevA.03 25-Dec-2016

 --------------------
 #p ZINDO=(nstates=5)
 --------------------

 ----------------------------
 step_501_chromophore_1 ZINDO
 ----------------------------
 Symbolic Z-matrix:
 Charge =  0 Multiplicity = 1

                         Standard orientation:
 ---------------------------------------------------------------------
 Center     Atomic      Atomic             Coordinates (Angstroms)
 Number     Number       Type             X           Y           Z
 ---------------------------------------------------------------------
      1         12           0       -5.873255    0.390762   -0.086672
      2          6           0       -3.524532   -2.052857    0.681170
      3          6           0       -3.856387    2.728849    1.260585
      4          6           0       -8.444251    2.588011   -0.121457
      5          6           0       -8.231547   -2.181050   -0.701485
      6          7           0       -3.919674    0.262623    0.747902
      7          6           0       -3.019157   -0.774688    0.855515
      8          6           0       -1.697858   -0.282688    1.507891
      9          6           0       -2.152206    1.075367    2.126299
     10          6           0       -3.338399    1.443668    1.247295
     11          6           0       -2.585131    0.999079    3.632736
     12          6           0       -0.590592   -0.353593    0.440402
     13          6           0        0.701207   -0.881822    0.936971
     14          6           0        1.601157   -1.384609   -0.099085
     15          8           0        1.628662   -1.107666   -1.313082
     16          8           0        2.573868   -2.134482    0.584445
     17          7           0       -6.017969    2.413572    0.284139
     18          6           0       -5.034780    3.206920    0.782566
     19          6           0       -5.415521    4.582806    0.583949
     20          6           0       -6.793922    4.539650    0.164088
     21          6           0       -7.169283    3.122728    0.174478
     22          6           0       -4.539018    5.737208    0.914882
     23          6           0       -7.829825    5.682451   -0.091726
     24          8           0       -8.986037    5.466741   -0.460682
     25          6           0       -7.423838    7.128798   -0.038576
     26          7           0       -8.098139    0.143804   -0.037978
     27          6           0       -8.926673    1.288684   -0.192156
     28          6           0      -10.347126    0.955757   -0.508816
     29          6           0      -10.148417   -0.546329   -0.893771
     30          6           0       -8.691810   -0.881256   -0.583848
     31          6           0      -11.346403    1.214910    0.669118
     32          6           0      -10.456399   -0.850428   -2.405464
     33          6           0       -9.737040    0.059070   -3.433916
     34          7           0       -5.891182   -1.684876   -0.138537
     35          6           0       -6.909361   -2.597662   -0.454524
     36          6           0       -6.338147   -3.888516   -0.356374
     37          6           0       -5.023777   -3.702721    0.053681
     38          6           0       -4.818444   -2.368268    0.178578
     39          6           0       -7.029551   -5.171450   -0.692074
     40          6           0       -3.882323   -4.385549    0.448558
     41          8           0       -3.678427   -5.611252    0.518735
     42          6           0       -2.775083   -3.380274    0.887035
     43          6           0       -1.605210   -3.677224   -0.102300
     44          8           0       -1.610481   -3.429881   -1.321352
     45          8           0       -0.571864   -4.265889    0.618569
     46          6           0        0.565374   -4.877408   -0.139909
     47          6           0        3.587599   -2.747048   -0.318237
     48          6           0        4.777936   -1.902853   -0.098432
     49          6           0        5.990336   -2.131388    0.378989
     50          6           0        6.579481   -3.407314    0.840012
     51          6           0        6.991007   -0.876724    0.314009
     52          6           0        7.978165   -0.565811   -0.874042
     53          6           0        9.182946    0.303018   -0.382565
     54          6           0        9.436387    1.618141   -1.237342
     55          6           0        8.097726    2.474490   -1.151680
     56          6           0        9.950674    1.342416   -2.718630
     57          6           0       11.127854    2.233251   -3.111509
     58          6           0       12.481757    1.401726   -3.127219
     59          6           0       13.469243    1.667034   -2.017662
     60          6           0       14.894889    1.982370   -2.492537
     61          6           0       13.633954    0.487057   -1.025539
     62          6           0       14.230150    0.915143    0.355900
     63          6           0       13.696266    0.101093    1.553602
     64          6           0       13.103633    0.982761    2.717510
     65          6           0       13.724258    0.667412    4.092512
     66          6           0       11.575040    1.077787    2.755854
     67          1           0       -3.161612    3.371620    1.805325
     68          1           0       -9.357895    3.155968   -0.312664
     69          1           0       -8.848957   -2.997869   -1.081194
     70          1           0       -1.361510   -0.992787    2.262609
     71          1           0       -1.373378    1.819575    1.962578
     72          1           0       -2.454214    0.033681    4.122415
     73          1           0       -3.659147    1.152387    3.729973
     74          1           0       -1.975300    1.696791    4.206307
     75          1           0       -0.378763    0.680524    0.172301
     76          1           0       -0.975427   -0.938028   -0.395763
     77          1           0        0.446279   -1.737824    1.561987
     78          1           0        1.156844   -0.130102    1.581196
     79          1           0       -3.493814    5.436840    0.986054
     80          1           0       -4.986341    6.273745    1.752296
     81          1           0       -4.549927    6.444145    0.085218
     82          1           0       -8.348378    7.659854    0.189070
     83          1           0       -7.073727    7.469729   -1.013162
     84          1           0       -6.707667    7.324379    0.760118
     85          1           0      -10.740295    1.479923   -1.381018
     86          1           0      -10.796138   -1.156544   -0.263504
     87          1           0      -10.788476    1.243219    1.605465
     88          1           0      -12.140302    0.481244    0.809867
     89          1           0      -11.901924    2.152190    0.626290
     90          1           0      -11.542758   -0.834245   -2.494650
     91          1           0      -10.182293   -1.900203   -2.509508
     92          1           0       -9.102760   -0.502708   -4.119915
     93          1           0       -9.151842    0.777175   -2.858812
     94          1           0      -10.432410    0.620833   -4.056883
     95          1           0       -6.957213   -5.787933    0.203882
     96          1           0       -6.530479   -5.598613   -1.561865
     97          1           0       -8.097660   -5.089504   -0.893773
     98          1           0       -2.458978   -3.643177    1.896171
     99          1           0        0.127146   -5.657528   -0.761967
    100          1           0        1.373908   -5.328774    0.435022
    101          1           0        0.856547   -3.978505   -0.683390
    102          1           0        3.293793   -2.798977   -1.366863
    103          1           0        3.759355   -3.767034    0.024138
    104          1           0        4.624065   -0.883526   -0.451233
    105          1           0        7.497339   -3.702022    0.331661
    106          1           0        5.881586   -4.201152    0.574968
    107          1           0        6.716122   -3.523301    1.915853
    108          1           0        7.555642   -0.982279    1.240589
    109          1           0        6.386396    0.018107    0.462550
    110          1           0        7.538453   -0.132050   -1.771651
    111          1           0        8.407967   -1.535146   -1.124882
    112          1           0       10.092136   -0.289590   -0.285981
    113          1           0        8.869096    0.635505    0.607437
    114          1           0       10.263258    2.169967   -0.789434
    115          1           0        8.458108    3.486145   -0.964828
    116          1           0        7.482986    2.181427   -0.299645
    117          1           0        7.621184    2.544018   -2.128685
    118          1           0        9.071584    1.595794   -3.311541
    119          1           0       10.182189    0.293462   -2.907405
    120          1           0       11.218320    3.049098   -2.395581
    121          1           0       10.898281    2.855885   -3.975932
    122          1           0       12.899537    1.673620   -4.096739
    123          1           0       12.389842    0.331342   -3.308280
    124          1           0       13.184348    2.587880   -1.508906
    125          1           0       15.006526    3.024909   -2.195589
    126          1           0       15.180329    1.749725   -3.518985
    127          1           0       15.674054    1.474130   -1.923917
    128          1           0       14.268989   -0.265766   -1.492692
    129          1           0       12.652406    0.033883   -0.885661
    130          1           0       14.172918    1.982638    0.570183
    131          1           0       15.303790    0.730952    0.343811
    132          1           0       14.543342   -0.456936    1.952092
    133          1           0       12.885918   -0.565850    1.259981
    134          1           0       13.528731    1.979949    2.601141
    135          1           0       13.791434    1.599885    4.653192
    136          1           0       14.733010    0.278962    3.947284
    137          1           0       12.988570   -0.017529    4.511349
    138          1           0       11.279405    2.032844    3.190110
    139          1           0       11.103410    0.274004    3.320896
    140          1           0       11.116327    1.133214    1.769562
 ---------------------------------------------------------------------

 SCF Done:  E(RZINDO/S) =  -474.352139828     A.U. after   19 cycles

 Excitation energies and oscillator strengths:

 Excited State   1:      Singlet-A      1.1921 eV 1040.06 nm  f=0.6105  <S**2>=0.000
     175 ->178         0.18207
     176 ->177         0.66467
 This state for optimization and/or second-order correction.
 Total Energy, E(CIS/TDA) =  -474.308331373
 Copying the excited state density for this state as the 1-particle RhoCI density.

 Excited State   2:      Singlet-A      1.9113 eV  648.70 nm  f=0.0614  <S**2>=0.000
     175 ->177         0.56274
     176 ->178        -0.40061

 Excited State   3:      Singlet-A      2.8299 eV  438.11 nm  f=0.0001  <S**2>=0.000
     169 ->177         0.12597
     169 ->179        -0.13727
     170 ->177         0.37139
     170 ->178         0.11828
     170 ->179        -0.34960
     170 ->180         0.21345
     170 ->181        -0.13390
     170 ->184         0.10979
     170 ->185        -0.15105
     170 ->187        -0.12468
     170 ->202         0.11163

 Excited State   4:      Singlet-A      2.9416 eV  421.48 nm  f=0.3034  <S**2>=0.000
     168 ->177         0.16189
     168 ->179         0.23235
     168 ->180         0.19320
     168 ->181        -0.10870
     168 ->185         0.16770
     174 ->177         0.19126
     175 ->177         0.21007
     176 ->178         0.33051
     176 ->179         0.20481

 Excited State   5:      Singlet-A      2.9976 eV  413.61 nm  f=0.5260  <S**2>=0.000
     168 ->177        -0.17725
     168 ->179        -0.25762
     168 ->180        -0.21202
     168 ->181         0.11929
     168 ->185        -0.17617
     171 ->177        -0.12001
     175 ->177         0.25361
     176 ->178         0.37733

 The electronic state is 1-A.
 Alpha  occ. eigenvalues --   -1.87724  -1.82517  -1.81512  -1.73864  -1.71985
 Alpha  occ. eigenvalues --   -1.69014  -1.64313  -1.58780  -1.58622  -1.58320
 Alpha  occ. eigenvalues --   -1.54950  -1.52836  -1.48019  -1.47463  -1.45241
 Alpha  occ. eigenvalues --   -1.43550  -1.43118  -1.40954  -1.39206  -1.38855
 Alpha  occ. eigenvalues --   -1.36261  -1.33894  -1.33189  -1.31930  -1.28224
 Alpha  occ. eigenvalues --   -1.26289  -1.25518  -1.22302  -1.20962  -1.18406
 Alpha  occ. eigenvalues --   -1.17080  -1.16069  -1.15333  -1.13425  -1.12495
 Alpha  occ. eigenvalues --   -1.11987  -1.10662  -1.10382  -1.06569  -1.03854
 Alpha  occ. eigenvalues --   -1.03528  -1.02293  -0.99371  -0.98659  -0.98062
 Alpha  occ. eigenvalues --   -0.96275  -0.94008  -0.93166  -0.92803  -0.92145
 Alpha  occ. eigenvalues --   -0.90948  -0.90876  -0.87556  -0.86780  -0.84476
 Alpha  occ. eigenvalues --   -0.83899  -0.83658  -0.82659  -0.81263  -0.80424
 Alpha  occ. eigenvalues --   -0.80216  -0.78599  -0.77231  -0.76569  -0.76459
 Alpha  occ. eigenvalues --   -0.76196  -0.75385  -0.74894  -0.74579  -0.73966
 Alpha  occ. eigenvalues --   -0.73827  -0.73224  -0.72726  -0.71782  -0.70358
 Alpha  occ. eigenvalues --   -0.70155  -0.69337  -0.68869  -0.68338  -0.67869
 Alpha  occ. eigenvalues --   -0.67570  -0.66841  -0.66358  -0.66108  -0.65691
 Alpha  occ. eigenvalues --   -0.64950  -0.64467  -0.64157  -0.63850  -0.63158
 Alpha  occ. eigenvalues --   -0.62893  -0.62484  -0.62443  -0.62186  -0.61909
 Alpha  occ. eigenvalues --   -0.61598  -0.60986  -0.60676  -0.60242  -0.59596
 Alpha  occ. eigenvalues --   -0.59429  -0.58592  -0.58581  -0.58467  -0.58086
 Alpha  occ. eigenvalues --   -0.57248  -0.57162  -0.56682  -0.56516  -0.56240
 Alpha  occ. eigenvalues --   -0.55877  -0.55641  -0.55124  -0.54651  -0.54258
 Alpha  occ. eigenvalues --   -0.53861  -0.53676  -0.53534  -0.53000  -0.52858
 Alpha  occ. eigenvalues --   -0.52464  -0.52132  -0.52011  -0.51846  -0.51437
 Alpha  occ. eigenvalues --   -0.51380  -0.51052  -0.50822  -0.50031  -0.49836
 Alpha  occ. eigenvalues --   -0.49690  -0.49539  -0.49081  -0.48896  -0.48647
 Alpha  occ. eigenvalues --   -0.48361  -0.48149  -0.48054  -0.47657  -0.47586
 Alpha  occ. eigenvalues --   -0.47514  -0.47215  -0.46902  -0.46821  -0.46065
 Alpha  occ. eigenvalues --   -0.45670  -0.45640  -0.45218  -0.45117  -0.44907
 Alpha  occ. eigenvalues --   -0.44571  -0.44389  -0.44134  -0.43929  -0.43604
 Alpha  occ. eigenvalues --   -0.43474  -0.43362  -0.43027  -0.42567  -0.41827
 Alpha  occ. eigenvalues --   -0.41558  -0.41150  -0.40988  -0.39253  -0.39057
 Alpha  occ. eigenvalues --   -0.38435  -0.37014  -0.35075  -0.34888  -0.34390
 Alpha  occ. eigenvalues --   -0.32917  -0.32667  -0.32585  -0.32006  -0.26795
 Alpha  occ. eigenvalues --   -0.21707
 Alpha virt. eigenvalues --   -0.08840  -0.01793  -0.00394   0.01070   0.01221
 Alpha virt. eigenvalues --    0.01698   0.02652   0.03004   0.05039   0.05375
 Alpha virt. eigenvalues --    0.06216   0.07319   0.07486   0.08419   0.08665

 Mulliken charges:
               1
     1  Mg   0.428161
     2  C   -0.054038
     3  C   -0.068226
     4  C   -0.058077
     5  C   -0.063334
     6  N   -0.306114
     7  C    0.130573
     8  C   -0.001926
     9  C    0.010547
    10  C    0.111988
    11  C   -0.048051
    12  C   -0.021742
    13  C    0.014843
    14  C    0.473485
    15  O   -0.509383
    16  O   -0.278200
    17  N   -0.316836
    18  C    0.115251
    19  C    0.001252
    20  C   -0.063256
    21  C    0.139996
    22  C   -0.040275
    23  C    0.322884
    24  O   -0.527267
    25  C   -0.030611
    26  N   -0.272830
    27  C    0.119217
    28  C    0.010713
    29  C   -0.003912
    30  C    0.161824
    31  C   -0.051910
    32  C   -0.031262
    33  C   -0.052926
    34  N   -0.332223
    35  C    0.088233
    36  C    0.051632
    37  C   -0.038422
    38  C    0.151910
    39  C   -0.039426
    40  C    0.331664
    41  O   -0.550273
    42  C    0.046319
    43  C    0.485076
    44  O   -0.516880
    45  O   -0.284007
    46  C    0.068224
    47  C    0.107257
    48  C   -0.055005
    49  C   -0.020558
    50  C   -0.037323
    51  C   -0.037439
    52  C   -0.027870
    53  C   -0.040359
    54  C   -0.024997
    55  C   -0.062404
    56  C   -0.035686
    57  C   -0.036922
    58  C   -0.032233
    59  C   -0.004601
    60  C   -0.063746
    61  C   -0.028030
    62  C   -0.037927
    63  C   -0.036199
    64  C   -0.021357
    65  C   -0.062615
    66  C   -0.052344
    67  H    0.018863
    68  H    0.047201
    69  H    0.032513
    70  H    0.020228
    71  H    0.023145
    72  H    0.018342
    73  H    0.030474
    74  H    0.021691
    75  H    0.022678
    76  H    0.049528
    77  H    0.035915
    78  H    0.049901
    79  H    0.029828
    80  H    0.037642
    81  H    0.021557
    82  H    0.036642
    83  H    0.048860
    84  H    0.025767
    85  H    0.036064
    86  H    0.026914
    87  H    0.019587
    88  H    0.018648
    89  H    0.023413
    90  H    0.015637
    91  H    0.016599
    92  H    0.023962
    93  H    0.026973
    94  H    0.021228
    95  H    0.035950
    96  H    0.043208
    97  H    0.018464
    98  H    0.060627
    99  H    0.048889
   100  H    0.044131
   101  H    0.051877
   102  H    0.063134
   103  H    0.030504
   104  H    0.027223
   105  H    0.028137
   106  H    0.008518
   107  H    0.031308
   108  H    0.013576
   109  H    0.015212
   110  H    0.034796
   111  H    0.012275
   112  H    0.019395
   113  H    0.015178
   114  H    0.019549
   115  H    0.007599
   116  H    0.031721
   117  H    0.029840
   118  H    0.013333
   119  H    0.024696
   120  H    0.014524
   121  H    0.023463
   122  H    0.004489
   123  H    0.023584
   124  H    0.022445
   125  H    0.014161
   126  H    0.025564
   127  H    0.010849
   128  H    0.022626
   129  H    0.011314
   130  H    0.025479
   131  H    0.011985
   132  H    0.019137
   133  H    0.021564
   134  H    0.011585
   135  H    0.017555
   136  H    0.023642
   137  H    0.024428
   138  H    0.012050
   139  H    0.022763
   140  H    0.015822
 Sum of Mulliken charges =  -0.00000

 Dipole moment (field-independent basis, Debye):
    X=              1.8482    Y=              3.6316    Z=              4.6370  Tot=              6.1730
 N-N= 4.299051847066D+03 E-N= 0.000000000000D+00  KE=-9.272970762605D+03
 Leave Link  601 at Thu May  5 00:15:56 2022, MaxMem=  6710886400 cpu:               2.1 elap:               0.1
 (Enter /sw/apps/gaussian-16.0/g16/l9999.exe)
 1\1\GINC-BP1-COMPUTE215\SP\RZINDO CIS\STO-3G\C55H74Mg1N4O6\OF15641\05-
 May-2022\0\\#p ZINDO=(nstates=5)\\step_501_chromophore_1 ZINDO\\0,1\Mg
 ,0,-2.172,16.979,26.952\C,0,-2.724,15.15,29.855\C,0,-3.037,19.797,28.5
 83\C,0,-2.393,18.593,23.988\C,0,-2.097,13.934,25.142\N,0,-2.701,17.332
 ,28.983\C,0,-2.735,16.515,30.092\C,0,-3.142,17.326,31.353\C,0,-3.734,1
 8.616,30.706\C,0,-3.027,18.649,29.359\C,0,-5.291,18.598,30.511\C,0,-1.
 923,17.38,32.292\C,0,-2.247,17.176,33.723\C,0,-1.119,16.77,34.559\O,0,

 Normal termination of Gaussian 16 at Thu May  5 00:15:56 2022.
