 Gaussian 16, Revision A.03,
 Gaussian 16:  ES64L-G16RevA.03 25-Dec-2016

 ------------------------------
 #p blyp/Def2SVP td=(nstates=5)
 ------------------------------

 --------------------------------------------------
 step_151_chromophore_19 TDDFT with blyp functional
 --------------------------------------------------
 Symbolic Z-matrix:
 Charge =  0 Multiplicity = 1

                         Standard orientation:
 ---------------------------------------------------------------------
 Center     Atomic      Atomic             Coordinates (Angstroms)
 Number     Number       Type             X           Y           Z
 ---------------------------------------------------------------------
      1         12           0       -5.909027    0.538610   -0.221860
      2          6           0       -3.623335   -2.237364   -0.047754
      3          6           0       -3.136301    2.520207    0.490824
      4          6           0       -7.978368    2.860347    0.286175
      5          6           0       -8.483452   -1.906907   -0.370650
      6          7           0       -3.618405    0.101722    0.197444
      7          6           0       -2.914889   -1.043814    0.065672
      8          6           0       -1.395550   -0.878916    0.006015
      9          6           0       -1.315324    0.622179    0.588493
     10          6           0       -2.768529    1.186936    0.399475
     11          6           0       -0.704160    0.849918    2.040081
     12          6           0       -0.943918   -0.966403   -1.457506
     13          6           0        0.546366   -1.438885   -1.681527
     14          6           0        1.677912   -1.119085   -0.708218
     15          8           0        1.521504   -0.461385    0.321508
     16          8           0        2.841961   -1.747450   -1.045240
     17          7           0       -5.627651    2.463119    0.083836
     18          6           0       -4.430802    3.128234    0.410337
     19          6           0       -4.700383    4.527437    0.548860
     20          6           0       -6.077386    4.649599    0.528077
     21          6           0       -6.604175    3.315020    0.277081
     22          6           0       -3.604994    5.583390    0.633417
     23          6           0       -6.906756    5.886896    0.737255
     24          8           0       -8.117757    5.685786    0.919555
     25          6           0       -6.312840    7.192561    0.806373
     26          7           0       -7.988124    0.471232   -0.043934
     27          6           0       -8.568145    1.644770    0.035514
     28          6           0      -10.125256    1.440796   -0.024847
     29          6           0      -10.203989   -0.061820   -0.466554
     30          6           0       -8.831151   -0.527641   -0.235137
     31          6           0      -10.937136    1.738317    1.269068
     32          6           0      -10.662677   -0.347970   -1.986114
     33          6           0      -11.973264   -1.096458   -2.186318
     34          7           0       -6.081759   -1.561664   -0.233140
     35          6           0       -7.197760   -2.389484   -0.241331
     36          6           0       -6.808360   -3.763674   -0.372124
     37          6           0       -5.448048   -3.742104   -0.358881
     38          6           0       -5.064512   -2.364181   -0.222349
     39          6           0       -7.683146   -4.977862   -0.361783
     40          6           0       -4.286241   -4.591143   -0.378405
     41          8           0       -4.110041   -5.805286   -0.354096
     42          6           0       -3.065558   -3.624428   -0.178788
     43          6           0       -2.196600   -3.947219    0.928867
     44          8           0       -2.596262   -3.925178    2.090088
     45          8           0       -1.012031   -4.350062    0.508678
     46          6           0       -0.151710   -5.054614    1.515296
     47          6           0        3.895498   -1.786208    0.003310
     48          6           0        5.218572   -1.570400   -0.691908
     49          6           0        6.257257   -0.848334   -0.280988
     50          6           0        6.327460   -0.079012    0.986966
     51          6           0        7.569688   -0.772073   -1.110904
     52          6           0        7.910402    0.501438   -1.837511
     53          6           0        9.115584    1.096575   -1.133546
     54          6           0        9.909774    2.196802   -1.971083
     55          6           0        9.081706    3.287584   -2.623191
     56          6           0       10.855328    1.464279   -2.958257
     57          6           0       12.341207    1.824416   -2.729117
     58          6           0       13.254680    0.689701   -2.280897
     59          6           0       13.804825    0.767218   -0.855974
     60          6           0       15.324716    0.526651   -0.800116
     61          6           0       13.103897   -0.282821    0.119086
     62          6           0       12.879971    0.305759    1.481513
     63          6           0       12.220188   -0.623696    2.471420
     64          6           0       11.258202    0.005053    3.405632
     65          6           0       11.478935   -0.383873    4.872615
     66          6           0        9.842340   -0.226204    2.911677
     67          1           0       -2.275327    3.187245    0.568717
     68          1           0       -8.756420    3.622463    0.201977
     69          1           0       -9.260556   -2.627365   -0.637144
     70          1           0       -0.826384   -1.453213    0.738115
     71          1           0       -0.727654    1.283153   -0.048245
     72          1           0       -0.316638    1.868466    2.021979
     73          1           0        0.130543    0.185248    2.262395
     74          1           0       -1.457866    0.849898    2.826934
     75          1           0       -1.181092   -0.122564   -2.106047
     76          1           0       -1.647291   -1.673229   -1.897263
     77          1           0        0.701623   -0.969018   -2.652975
     78          1           0        0.504414   -2.525218   -1.754396
     79          1           0       -2.625208    5.192469    0.360274
     80          1           0       -3.594487    6.024435    1.630374
     81          1           0       -3.865332    6.426187   -0.006386
     82          1           0       -5.794124    7.448579   -0.116969
     83          1           0       -5.519753    7.280919    1.549158
     84          1           0       -7.131616    7.895375    0.960558
     85          1           0      -10.417999    2.229867   -0.717597
     86          1           0      -10.883044   -0.590048    0.202168
     87          1           0      -10.302744    2.106008    2.074921
     88          1           0      -11.423552    0.795356    1.516867
     89          1           0      -11.637738    2.455439    0.840971
     90          1           0       -9.837374   -0.896561   -2.440511
     91          1           0      -10.605323    0.596557   -2.527490
     92          1           0      -12.336567   -1.538047   -1.258902
     93          1           0      -11.802097   -1.971909   -2.812271
     94          1           0      -12.744547   -0.438310   -2.585428
     95          1           0       -8.453036   -4.836027   -1.120000
     96          1           0       -8.128990   -5.074252    0.627632
     97          1           0       -7.016751   -5.785214   -0.668491
     98          1           0       -2.471987   -3.743219   -1.085146
     99          1           0       -0.434142   -5.014147    2.567183
    100          1           0        0.855618   -4.641093    1.454820
    101          1           0       -0.083061   -6.084347    1.165225
    102          1           0        4.013546   -2.714559    0.563438
    103          1           0        3.735016   -0.984460    0.723877
    104          1           0        5.137877   -1.870591   -1.736139
    105          1           0        5.419680   -0.284555    1.554407
    106          1           0        6.364282    1.007524    0.912582
    107          1           0        7.145018   -0.394019    1.635511
    108          1           0        7.522261   -1.586791   -1.832787
    109          1           0        8.326438   -1.123088   -0.409494
    110          1           0        7.123851    1.245916   -1.713898
    111          1           0        8.082271    0.337651   -2.901139
    112          1           0        9.752896    0.281593   -0.792089
    113          1           0        8.656320    1.536890   -0.248124
    114          1           0       10.536816    2.596675   -1.173670
    115          1           0        8.126398    3.438970   -2.120989
    116          1           0        8.973615    3.077718   -3.686933
    117          1           0        9.622188    4.234186   -2.631197
    118          1           0       10.688160    1.533993   -4.032316
    119          1           0       10.661866    0.400698   -2.819152
    120          1           0       12.513595    2.698347   -2.100360
    121          1           0       12.693882    2.064305   -3.731081
    122          1           0       14.096450    0.607467   -2.967926
    123          1           0       12.796263   -0.286367   -2.441444
    124          1           0       13.707632    1.795154   -0.506025
    125          1           0       15.708437    0.069382    0.112503
    126          1           0       15.851797    1.479103   -0.865500
    127          1           0       15.594126   -0.036598   -1.692505
    128          1           0       13.828859   -1.097867    0.133708
    129          1           0       12.171667   -0.536662   -0.384220
    130          1           0       12.362101    1.261252    1.395524
    131          1           0       13.857588    0.631593    1.837337
    132          1           0       13.124245   -1.033840    2.922488
    133          1           0       11.732923   -1.399650    1.881265
    134          1           0       11.483675    1.070647    3.444677
    135          1           0       12.492242   -0.159373    5.207281
    136          1           0       11.382501   -1.464370    4.772058
    137          1           0       10.794820   -0.070443    5.660912
    138          1           0        9.358411    0.724769    3.132581
    139          1           0        9.458301   -1.100724    3.436872
    140          1           0        9.750640   -0.326293    1.829973
 ---------------------------------------------------------------------

 SCF Done:  E(RB-LYP) =  -3007.35980359     A.U. after   21 cycles

 Excitation energies and oscillator strengths:

 Excited State   1:      Singlet-A      1.8012 eV  688.33 nm  f=0.2578  <S**2>=0.000
     245 -> 248        0.16825
     246 -> 247        0.67955
     246 <- 247       -0.14346
 This state for optimization and/or second-order correction.
 Total Energy, E(TD-HF/TD-DFT) =  -3007.29360941
 Copying the excited state density for this state as the 1-particle RhoCI density.

 Excited State   2:      Singlet-A      2.0097 eV  616.92 nm  f=0.0910  <S**2>=0.000
     243 -> 247        0.24441
     244 -> 247        0.26871
     245 -> 247        0.55554
     246 -> 247       -0.11080
     246 -> 248       -0.18286

 Excited State   3:      Singlet-A      2.0477 eV  605.49 nm  f=0.0120  <S**2>=0.000
     243 -> 247       -0.16885
     244 -> 247        0.64431
     245 -> 247       -0.21434

 Excited State   4:      Singlet-A      2.1436 eV  578.39 nm  f=0.0204  <S**2>=0.000
     243 -> 247        0.63629
     245 -> 247       -0.25474
     246 -> 248        0.13266

 Excited State   5:      Singlet-A      2.6067 eV  475.63 nm  f=0.0023  <S**2>=0.000
     241 -> 247        0.25160
     242 -> 247        0.64523
     246 -> 248       -0.12374

 The electronic state is 1-A.
 Alpha  occ. eigenvalues --  -46.26720 -18.83347 -18.82697 -18.77719 -18.75434
 Alpha  occ. eigenvalues --  -18.74714 -18.74659 -14.02083 -14.01993 -14.00863
 Alpha  occ. eigenvalues --  -14.00339 -10.05490 -10.02380  -9.99131  -9.99048
 Alpha  occ. eigenvalues --   -9.98500  -9.97964  -9.95515  -9.95466  -9.95310
 Alpha  occ. eigenvalues --   -9.95191  -9.95097  -9.94915  -9.94472  -9.94371
 Alpha  occ. eigenvalues --   -9.94024  -9.93634  -9.93469  -9.93214  -9.93047
 Alpha  occ. eigenvalues --   -9.93032  -9.92852  -9.92805  -9.92785  -9.92584
 Alpha  occ. eigenvalues --   -9.92462  -9.92414  -9.92343  -9.92207  -9.92157
 Alpha  occ. eigenvalues --   -9.92123  -9.92091  -9.91932  -9.91931  -9.91922
 Alpha  occ. eigenvalues --   -9.91830  -9.91748  -9.91586  -9.91495  -9.91464
 Alpha  occ. eigenvalues --   -9.91451  -9.91371  -9.91338  -9.91251  -9.91217
 Alpha  occ. eigenvalues --   -9.91096  -9.91053  -9.91008  -9.90968  -9.90959
 Alpha  occ. eigenvalues --   -9.90776  -9.90703  -9.90682  -9.90623  -9.90377
 Alpha  occ. eigenvalues --   -9.90191  -2.91502  -1.71912  -1.71414  -1.71197
 Alpha  occ. eigenvalues --   -0.98561  -0.98330  -0.90747  -0.90510  -0.90337
 Alpha  occ. eigenvalues --   -0.88545  -0.87656  -0.86567  -0.86060  -0.84091
 Alpha  occ. eigenvalues --   -0.74572  -0.74227  -0.73842  -0.72764  -0.72110
 Alpha  occ. eigenvalues --   -0.71990  -0.71485  -0.71246  -0.70848  -0.70320
 Alpha  occ. eigenvalues --   -0.69604  -0.69277  -0.67944  -0.67474  -0.67193
 Alpha  occ. eigenvalues --   -0.66804  -0.66504  -0.65670  -0.65103  -0.64758
 Alpha  occ. eigenvalues --   -0.64401  -0.62553  -0.62043  -0.61871  -0.60935
 Alpha  occ. eigenvalues --   -0.60752  -0.60478  -0.59721  -0.59544  -0.59423
 Alpha  occ. eigenvalues --   -0.58227  -0.57541  -0.55909  -0.55798  -0.54237
 Alpha  occ. eigenvalues --   -0.54074  -0.53438  -0.52877  -0.52226  -0.51844
 Alpha  occ. eigenvalues --   -0.51077  -0.50634  -0.50446  -0.50184  -0.50088
 Alpha  occ. eigenvalues --   -0.49675  -0.49091  -0.48434  -0.48315  -0.46818
 Alpha  occ. eigenvalues --   -0.46686  -0.45763  -0.45286  -0.44537  -0.44293
 Alpha  occ. eigenvalues --   -0.43980  -0.43529  -0.43154  -0.42899  -0.42264
 Alpha  occ. eigenvalues --   -0.41950  -0.41928  -0.41650  -0.41521  -0.41396
 Alpha  occ. eigenvalues --   -0.41350  -0.40767  -0.40365  -0.40287  -0.39912
 Alpha  occ. eigenvalues --   -0.39754  -0.39665  -0.39618  -0.39340  -0.39231
 Alpha  occ. eigenvalues --   -0.39212  -0.38787  -0.38396  -0.38139  -0.38035
 Alpha  occ. eigenvalues --   -0.37910  -0.37713  -0.37511  -0.37461  -0.37151
 Alpha  occ. eigenvalues --   -0.37077  -0.36977  -0.36627  -0.36391  -0.36291
 Alpha  occ. eigenvalues --   -0.36148  -0.35973  -0.35937  -0.35744  -0.35556
 Alpha  occ. eigenvalues --   -0.35227  -0.35139  -0.34798  -0.34499  -0.34479
 Alpha  occ. eigenvalues --   -0.34390  -0.34114  -0.33903  -0.33850  -0.33754
 Alpha  occ. eigenvalues --   -0.33589  -0.33430  -0.33411  -0.33327  -0.33103
 Alpha  occ. eigenvalues --   -0.33000  -0.32737  -0.32617  -0.32405  -0.32278
 Alpha  occ. eigenvalues --   -0.32146  -0.31913  -0.31851  -0.31559  -0.31512
 Alpha  occ. eigenvalues --   -0.31129  -0.31038  -0.30995  -0.30523  -0.30423
 Alpha  occ. eigenvalues --   -0.30308  -0.30021  -0.29898  -0.29723  -0.29696
 Alpha  occ. eigenvalues --   -0.29510  -0.29428  -0.29337  -0.29126  -0.29117
 Alpha  occ. eigenvalues --   -0.28876  -0.28509  -0.28350  -0.27859  -0.27319
 Alpha  occ. eigenvalues --   -0.27127  -0.27047  -0.26483  -0.26289  -0.26038
 Alpha  occ. eigenvalues --   -0.25990  -0.25971  -0.25574  -0.25464  -0.25270
 Alpha  occ. eigenvalues --   -0.24538  -0.24452  -0.24330  -0.23417  -0.23091
 Alpha  occ. eigenvalues --   -0.22814  -0.22390  -0.21526  -0.20973  -0.20884
 Alpha  occ. eigenvalues --   -0.20505  -0.20190  -0.18359  -0.18110  -0.16474
 Alpha  occ. eigenvalues --   -0.15032
 Alpha virt. eigenvalues --   -0.10720  -0.06211  -0.05161  -0.04058  -0.03846
 Alpha virt. eigenvalues --   -0.02363  -0.02028  -0.01372  -0.00498   0.00646
 Alpha virt. eigenvalues --    0.01664   0.02005   0.02304   0.02452   0.02972

 Mulliken charges:
               1
     1  Mg   0.718232
     2  C    0.022941
     3  C   -0.073416
     4  C    0.001743
     5  C   -0.116751
     6  N   -0.183441
     7  C   -0.135116
     8  C    0.044942
     9  C    0.013213
    10  C   -0.003487
    11  C    0.129677
    12  C    0.125676
    13  C    0.116609
    14  C    0.109696
    15  O   -0.194312
    16  O   -0.271750
    17  N   -0.321463
    18  C    0.138920
    19  C   -0.149769
    20  C    0.072045
    21  C    0.069756
    22  C    0.182367
    23  C   -0.092211
    24  O   -0.185965
    25  C    0.155543
    26  N   -0.186617
    27  C   -0.018868
    28  C   -0.042396
    29  C    0.044624
    30  C   -0.005400
    31  C    0.155481
    32  C    0.091227
    33  C    0.082300
    34  N   -0.199965
    35  C    0.144608
    36  C   -0.227916
    37  C    0.083822
    38  C    0.060831
    39  C    0.187069
    40  C   -0.027721
    41  O   -0.135398
    42  C    0.095946
    43  C    0.063260
    44  O   -0.194556
    45  O   -0.245943
    46  C    0.201227
    47  C    0.300460
    48  C   -0.122700
    49  C   -0.135938
    50  C    0.145583
    51  C    0.139317
    52  C    0.116583
    53  C   -0.028547
    54  C   -0.011731
    55  C    0.139918
    56  C    0.098220
    57  C    0.101866
    58  C    0.120780
    59  C   -0.102790
    60  C    0.101052
    61  C    0.109378
    62  C    0.027542
    63  C    0.154655
    64  C   -0.049636
    65  C    0.073769
    66  C    0.094336
    67  H   -0.070481
    68  H   -0.037344
    69  H   -0.062835
    70  H   -0.008840
    71  H   -0.042739
    72  H   -0.025495
    73  H    0.012005
    74  H   -0.010092
    75  H   -0.028771
    76  H   -0.035799
    77  H    0.009146
    78  H    0.022292
    79  H   -0.002299
    80  H    0.001349
    81  H   -0.014645
    82  H    0.005729
    83  H    0.006002
    84  H   -0.004837
    85  H   -0.024500
    86  H   -0.030483
    87  H    0.010748
    88  H   -0.016643
    89  H   -0.001609
    90  H   -0.026949
    91  H   -0.028837
    92  H   -0.014478
    93  H   -0.007919
    94  H    0.003421
    95  H   -0.009790
    96  H    0.016104
    97  H    0.010652
    98  H   -0.021881
    99  H    0.038233
   100  H    0.008633
   101  H    0.025362
   102  H    0.013480
   103  H    0.012087
   104  H   -0.027855
   105  H   -0.041091
   106  H    0.009351
   107  H   -0.001902
   108  H   -0.052280
   109  H   -0.027444
   110  H   -0.024905
   111  H   -0.026727
   112  H   -0.004898
   113  H   -0.032759
   114  H   -0.037535
   115  H   -0.014434
   116  H   -0.019409
   117  H   -0.021650
   118  H   -0.039776
   119  H   -0.046069
   120  H   -0.024898
   121  H   -0.046407
   122  H   -0.055831
   123  H   -0.048949
   124  H   -0.044317
   125  H   -0.016113
   126  H   -0.025913
   127  H   -0.018804
   128  H   -0.032874
   129  H   -0.027692
   130  H   -0.039378
   131  H   -0.044220
   132  H   -0.046005
   133  H   -0.039689
   134  H   -0.041859
   135  H   -0.013733
   136  H   -0.023955
   137  H   -0.013058
   138  H   -0.014693
   139  H   -0.005635
   140  H   -0.005980
 Sum of Mulliken charges =  -0.00000

 Dipole moment (field-independent basis, Debye):
    X=              4.4357    Y=              2.9366    Z=             -3.4263  Tot=              6.3276
 Quadrupole moment (field-independent basis, Debye-Ang):
   XX=           -380.5766   YY=           -419.0646   ZZ=           -404.4936
   XY=              2.7901   XZ=             22.5653   YZ=             -1.2278

 Normal termination of Gaussian 16 at Thu Apr 28 10:19:10 2022.
