 Gaussian 16, Revision A.03,
 Gaussian 16:  ES64L-G16RevA.03 25-Dec-2016

 -----------------------------------
 #p cam-b3lyp/Def2SVP td=(nstates=5)
 -----------------------------------

 -------------------------------------------------------
 step_151_chromophore_19 TDDFT with cam-b3lyp functional
 -------------------------------------------------------
 Symbolic Z-matrix:
 Charge =  0 Multiplicity = 1

                         Standard orientation:
 ---------------------------------------------------------------------
 Center     Atomic      Atomic             Coordinates (Angstroms)
 Number     Number       Type             X           Y           Z
 ---------------------------------------------------------------------
      1         12           0       -5.909027    0.538610   -0.221860
      2          6           0       -3.623335   -2.237364   -0.047754
      3          6           0       -3.136301    2.520207    0.490824
      4          6           0       -7.978368    2.860347    0.286175
      5          6           0       -8.483452   -1.906907   -0.370650
      6          7           0       -3.618405    0.101722    0.197444
      7          6           0       -2.914889   -1.043814    0.065672
      8          6           0       -1.395550   -0.878916    0.006015
      9          6           0       -1.315324    0.622179    0.588493
     10          6           0       -2.768529    1.186936    0.399475
     11          6           0       -0.704160    0.849918    2.040081
     12          6           0       -0.943918   -0.966403   -1.457506
     13          6           0        0.546366   -1.438885   -1.681527
     14          6           0        1.677912   -1.119085   -0.708218
     15          8           0        1.521504   -0.461385    0.321508
     16          8           0        2.841961   -1.747450   -1.045240
     17          7           0       -5.627651    2.463119    0.083836
     18          6           0       -4.430802    3.128234    0.410337
     19          6           0       -4.700383    4.527437    0.548860
     20          6           0       -6.077386    4.649599    0.528077
     21          6           0       -6.604175    3.315020    0.277081
     22          6           0       -3.604994    5.583390    0.633417
     23          6           0       -6.906756    5.886896    0.737255
     24          8           0       -8.117757    5.685786    0.919555
     25          6           0       -6.312840    7.192561    0.806373
     26          7           0       -7.988124    0.471232   -0.043934
     27          6           0       -8.568145    1.644770    0.035514
     28          6           0      -10.125256    1.440796   -0.024847
     29          6           0      -10.203989   -0.061820   -0.466554
     30          6           0       -8.831151   -0.527641   -0.235137
     31          6           0      -10.937136    1.738317    1.269068
     32          6           0      -10.662677   -0.347970   -1.986114
     33          6           0      -11.973264   -1.096458   -2.186318
     34          7           0       -6.081759   -1.561664   -0.233140
     35          6           0       -7.197760   -2.389484   -0.241331
     36          6           0       -6.808360   -3.763674   -0.372124
     37          6           0       -5.448048   -3.742104   -0.358881
     38          6           0       -5.064512   -2.364181   -0.222349
     39          6           0       -7.683146   -4.977862   -0.361783
     40          6           0       -4.286241   -4.591143   -0.378405
     41          8           0       -4.110041   -5.805286   -0.354096
     42          6           0       -3.065558   -3.624428   -0.178788
     43          6           0       -2.196600   -3.947219    0.928867
     44          8           0       -2.596262   -3.925178    2.090088
     45          8           0       -1.012031   -4.350062    0.508678
     46          6           0       -0.151710   -5.054614    1.515296
     47          6           0        3.895498   -1.786208    0.003310
     48          6           0        5.218572   -1.570400   -0.691908
     49          6           0        6.257257   -0.848334   -0.280988
     50          6           0        6.327460   -0.079012    0.986966
     51          6           0        7.569688   -0.772073   -1.110904
     52          6           0        7.910402    0.501438   -1.837511
     53          6           0        9.115584    1.096575   -1.133546
     54          6           0        9.909774    2.196802   -1.971083
     55          6           0        9.081706    3.287584   -2.623191
     56          6           0       10.855328    1.464279   -2.958257
     57          6           0       12.341207    1.824416   -2.729117
     58          6           0       13.254680    0.689701   -2.280897
     59          6           0       13.804825    0.767218   -0.855974
     60          6           0       15.324716    0.526651   -0.800116
     61          6           0       13.103897   -0.282821    0.119086
     62          6           0       12.879971    0.305759    1.481513
     63          6           0       12.220188   -0.623696    2.471420
     64          6           0       11.258202    0.005053    3.405632
     65          6           0       11.478935   -0.383873    4.872615
     66          6           0        9.842340   -0.226204    2.911677
     67          1           0       -2.275327    3.187245    0.568717
     68          1           0       -8.756420    3.622463    0.201977
     69          1           0       -9.260556   -2.627365   -0.637144
     70          1           0       -0.826384   -1.453213    0.738115
     71          1           0       -0.727654    1.283153   -0.048245
     72          1           0       -0.316638    1.868466    2.021979
     73          1           0        0.130543    0.185248    2.262395
     74          1           0       -1.457866    0.849898    2.826934
     75          1           0       -1.181092   -0.122564   -2.106047
     76          1           0       -1.647291   -1.673229   -1.897263
     77          1           0        0.701623   -0.969018   -2.652975
     78          1           0        0.504414   -2.525218   -1.754396
     79          1           0       -2.625208    5.192469    0.360274
     80          1           0       -3.594487    6.024435    1.630374
     81          1           0       -3.865332    6.426187   -0.006386
     82          1           0       -5.794124    7.448579   -0.116969
     83          1           0       -5.519753    7.280919    1.549158
     84          1           0       -7.131616    7.895375    0.960558
     85          1           0      -10.417999    2.229867   -0.717597
     86          1           0      -10.883044   -0.590048    0.202168
     87          1           0      -10.302744    2.106008    2.074921
     88          1           0      -11.423552    0.795356    1.516867
     89          1           0      -11.637738    2.455439    0.840971
     90          1           0       -9.837374   -0.896561   -2.440511
     91          1           0      -10.605323    0.596557   -2.527490
     92          1           0      -12.336567   -1.538047   -1.258902
     93          1           0      -11.802097   -1.971909   -2.812271
     94          1           0      -12.744547   -0.438310   -2.585428
     95          1           0       -8.453036   -4.836027   -1.120000
     96          1           0       -8.128990   -5.074252    0.627632
     97          1           0       -7.016751   -5.785214   -0.668491
     98          1           0       -2.471987   -3.743219   -1.085146
     99          1           0       -0.434142   -5.014147    2.567183
    100          1           0        0.855618   -4.641093    1.454820
    101          1           0       -0.083061   -6.084347    1.165225
    102          1           0        4.013546   -2.714559    0.563438
    103          1           0        3.735016   -0.984460    0.723877
    104          1           0        5.137877   -1.870591   -1.736139
    105          1           0        5.419680   -0.284555    1.554407
    106          1           0        6.364282    1.007524    0.912582
    107          1           0        7.145018   -0.394019    1.635511
    108          1           0        7.522261   -1.586791   -1.832787
    109          1           0        8.326438   -1.123088   -0.409494
    110          1           0        7.123851    1.245916   -1.713898
    111          1           0        8.082271    0.337651   -2.901139
    112          1           0        9.752896    0.281593   -0.792089
    113          1           0        8.656320    1.536890   -0.248124
    114          1           0       10.536816    2.596675   -1.173670
    115          1           0        8.126398    3.438970   -2.120989
    116          1           0        8.973615    3.077718   -3.686933
    117          1           0        9.622188    4.234186   -2.631197
    118          1           0       10.688160    1.533993   -4.032316
    119          1           0       10.661866    0.400698   -2.819152
    120          1           0       12.513595    2.698347   -2.100360
    121          1           0       12.693882    2.064305   -3.731081
    122          1           0       14.096450    0.607467   -2.967926
    123          1           0       12.796263   -0.286367   -2.441444
    124          1           0       13.707632    1.795154   -0.506025
    125          1           0       15.708437    0.069382    0.112503
    126          1           0       15.851797    1.479103   -0.865500
    127          1           0       15.594126   -0.036598   -1.692505
    128          1           0       13.828859   -1.097867    0.133708
    129          1           0       12.171667   -0.536662   -0.384220
    130          1           0       12.362101    1.261252    1.395524
    131          1           0       13.857588    0.631593    1.837337
    132          1           0       13.124245   -1.033840    2.922488
    133          1           0       11.732923   -1.399650    1.881265
    134          1           0       11.483675    1.070647    3.444677
    135          1           0       12.492242   -0.159373    5.207281
    136          1           0       11.382501   -1.464370    4.772058
    137          1           0       10.794820   -0.070443    5.660912
    138          1           0        9.358411    0.724769    3.132581
    139          1           0        9.458301   -1.100724    3.436872
    140          1           0        9.750640   -0.326293    1.829973
 ---------------------------------------------------------------------

 SCF Done:  E(RCAM-B3LYP) =  -3007.17269623     A.U. after   19 cycles

 Excitation energies and oscillator strengths:

 Excited State   1:      Singlet-A      1.7249 eV  718.80 nm  f=0.3656  <S**2>=0.000
     245 -> 248        0.17523
     246 -> 247        0.68514
     245 <- 248        0.10410
 This state for optimization and/or second-order correction.
 Total Energy, E(TD-HF/TD-DFT) =  -3007.10930852
 Copying the excited state density for this state as the 1-particle RhoCI density.

 Excited State   2:      Singlet-A      2.2502 eV  550.99 nm  f=0.1286  <S**2>=0.000
     245 -> 247        0.64032
     246 -> 248       -0.28805

 Excited State   3:      Singlet-A      3.4616 eV  358.17 nm  f=0.1929  <S**2>=0.000
     239 -> 247       -0.11307
     239 -> 249       -0.11281
     240 -> 247        0.21099
     240 -> 249        0.14490
     243 -> 247        0.33821
     243 -> 249        0.13195
     244 -> 247       -0.26230
     245 -> 247        0.14871
     246 -> 248        0.37263

 Excited State   4:      Singlet-A      3.5407 eV  350.16 nm  f=0.4415  <S**2>=0.000
     239 -> 247        0.16200
     239 -> 249        0.12091
     240 -> 247       -0.22117
     240 -> 249       -0.10528
     243 -> 247       -0.11675
     243 -> 249       -0.10685
     244 -> 247        0.20248
     245 -> 247        0.22847
     246 -> 248        0.49497
     246 -> 250        0.10334

 Excited State   5:      Singlet-A      3.6742 eV  337.45 nm  f=0.0094  <S**2>=0.000
     239 -> 247       -0.27542
     240 -> 249        0.11111
     242 -> 247        0.13114
     242 -> 251       -0.16192
     243 -> 247        0.14123
     244 -> 247        0.52771

 The electronic state is 1-A.
 Alpha  occ. eigenvalues --  -46.88246 -19.26242 -19.25794 -19.20687 -19.18931
 Alpha  occ. eigenvalues --  -19.17837 -19.17663 -14.40835 -14.40813 -14.39183
 Alpha  occ. eigenvalues --  -14.38888 -10.40794 -10.37786 -10.34758 -10.33994
 Alpha  occ. eigenvalues --  -10.32610 -10.32153 -10.30098 -10.30039 -10.29491
 Alpha  occ. eigenvalues --  -10.29231 -10.29092 -10.29009 -10.28924 -10.28630
 Alpha  occ. eigenvalues --  -10.28412 -10.27552 -10.27522 -10.27163 -10.27144
 Alpha  occ. eigenvalues --  -10.26998 -10.26974 -10.26924 -10.26725 -10.26685
 Alpha  occ. eigenvalues --  -10.26669 -10.26372 -10.26357 -10.26345 -10.26317
 Alpha  occ. eigenvalues --  -10.26008 -10.25919 -10.25867 -10.25855 -10.25781
 Alpha  occ. eigenvalues --  -10.25553 -10.25473 -10.25306 -10.25211 -10.25205
 Alpha  occ. eigenvalues --  -10.25073 -10.25057 -10.25055 -10.24922 -10.24810
 Alpha  occ. eigenvalues --  -10.24808 -10.24714 -10.24712 -10.24688 -10.24585
 Alpha  occ. eigenvalues --  -10.24547 -10.24333 -10.24317 -10.24316 -10.24225
 Alpha  occ. eigenvalues --  -10.23954  -3.16936  -1.91819  -1.91408  -1.91237
 Alpha  occ. eigenvalues --   -1.16994  -1.16984  -1.09421  -1.08510  -1.08335
 Alpha  occ. eigenvalues --   -1.06618  -1.05503  -1.04413  -1.03432  -1.01622
 Alpha  occ. eigenvalues --   -0.91846  -0.91140  -0.90684  -0.89505  -0.88852
 Alpha  occ. eigenvalues --   -0.88667  -0.88116  -0.87803  -0.87692  -0.86919
 Alpha  occ. eigenvalues --   -0.86034  -0.85578  -0.84162  -0.83695  -0.83356
 Alpha  occ. eigenvalues --   -0.82913  -0.82572  -0.81579  -0.80995  -0.80585
 Alpha  occ. eigenvalues --   -0.80248  -0.78175  -0.77678  -0.77425  -0.76363
 Alpha  occ. eigenvalues --   -0.76135  -0.75945  -0.75012  -0.74820  -0.74703
 Alpha  occ. eigenvalues --   -0.73265  -0.72672  -0.70716  -0.70597  -0.68838
 Alpha  occ. eigenvalues --   -0.68645  -0.68130  -0.67304  -0.66589  -0.65985
 Alpha  occ. eigenvalues --   -0.65293  -0.64659  -0.64412  -0.64176  -0.64150
 Alpha  occ. eigenvalues --   -0.63668  -0.62985  -0.62270  -0.62152  -0.60270
 Alpha  occ. eigenvalues --   -0.60157  -0.59508  -0.58960  -0.57972  -0.57809
 Alpha  occ. eigenvalues --   -0.57480  -0.56924  -0.56374  -0.56138  -0.55430
 Alpha  occ. eigenvalues --   -0.55162  -0.55064  -0.54737  -0.54609  -0.54488
 Alpha  occ. eigenvalues --   -0.54035  -0.53437  -0.53287  -0.52941  -0.52736
 Alpha  occ. eigenvalues --   -0.52519  -0.52281  -0.52130  -0.52092  -0.51702
 Alpha  occ. eigenvalues --   -0.51638  -0.51318  -0.50992  -0.50732  -0.50321
 Alpha  occ. eigenvalues --   -0.50220  -0.50004  -0.49800  -0.49713  -0.49541
 Alpha  occ. eigenvalues --   -0.49318  -0.49219  -0.49142  -0.48839  -0.48808
 Alpha  occ. eigenvalues --   -0.48496  -0.48383  -0.48242  -0.47949  -0.47669
 Alpha  occ. eigenvalues --   -0.47290  -0.47240  -0.47061  -0.46460  -0.46418
 Alpha  occ. eigenvalues --   -0.46163  -0.45898  -0.45736  -0.45561  -0.45527
 Alpha  occ. eigenvalues --   -0.45313  -0.45193  -0.45060  -0.45048  -0.44838
 Alpha  occ. eigenvalues --   -0.44728  -0.44652  -0.44302  -0.44247  -0.43890
 Alpha  occ. eigenvalues --   -0.43812  -0.43641  -0.43435  -0.43219  -0.43071
 Alpha  occ. eigenvalues --   -0.42951  -0.42648  -0.42378  -0.42284  -0.41999
 Alpha  occ. eigenvalues --   -0.41645  -0.41546  -0.41344  -0.41114  -0.40968
 Alpha  occ. eigenvalues --   -0.40748  -0.40563  -0.40494  -0.40312  -0.40082
 Alpha  occ. eigenvalues --   -0.39831  -0.39534  -0.39512  -0.38985  -0.38321
 Alpha  occ. eigenvalues --   -0.38108  -0.37873  -0.37528  -0.37319  -0.36911
 Alpha  occ. eigenvalues --   -0.36906  -0.36677  -0.36336  -0.36258  -0.35885
 Alpha  occ. eigenvalues --   -0.35844  -0.35491  -0.34935  -0.34438  -0.33762
 Alpha  occ. eigenvalues --   -0.33513  -0.32962  -0.32397  -0.30995  -0.30843
 Alpha  occ. eigenvalues --   -0.30676  -0.30462  -0.30176  -0.29387  -0.23169
 Alpha  occ. eigenvalues --   -0.20320
 Alpha virt. eigenvalues --   -0.07773  -0.00868   0.01251   0.02575   0.03052
 Alpha virt. eigenvalues --    0.04172   0.05430   0.06262   0.06604   0.07272
 Alpha virt. eigenvalues --    0.07747   0.08170   0.08879   0.09073   0.09242

 Mulliken charges:
               1
     1  Mg   0.852284
     2  C   -0.005715
     3  C   -0.083981
     4  C   -0.013047
     5  C   -0.120290
     6  N   -0.249711
     7  C   -0.088534
     8  C   -0.014186
     9  C   -0.032919
    10  C    0.010013
    11  C    0.076726
    12  C    0.082386
    13  C    0.045444
    14  C    0.190447
    15  O   -0.239165
    16  O   -0.337261
    17  N   -0.410979
    18  C    0.139180
    19  C   -0.155071
    20  C   -0.003452
    21  C    0.095271
    22  C    0.126648
    23  C   -0.007890
    24  O   -0.229753
    25  C    0.064764
    26  N   -0.262269
    27  C    0.000405
    28  C   -0.088669
    29  C   -0.017088
    30  C    0.017172
    31  C    0.097330
    32  C    0.034460
    33  C    0.018566
    34  N   -0.291318
    35  C    0.146944
    36  C   -0.211628
    37  C   -0.007430
    38  C    0.103713
    39  C    0.135199
    40  C    0.078759
    41  O   -0.172136
    42  C    0.010878
    43  C    0.155482
    44  O   -0.232604
    45  O   -0.310011
    46  C    0.165740
    47  C    0.268386
    48  C   -0.141320
    49  C   -0.155542
    50  C    0.085200
    51  C    0.076946
    52  C    0.059692
    53  C   -0.064953
    54  C   -0.067979
    55  C    0.077096
    56  C    0.044985
    57  C    0.040521
    58  C    0.065128
    59  C   -0.156797
    60  C    0.043854
    61  C    0.059140
    62  C   -0.018603
    63  C    0.091115
    64  C   -0.113745
    65  C    0.019673
    66  C    0.041320
    67  H   -0.036999
    68  H   -0.001288
    69  H   -0.026008
    70  H    0.026411
    71  H   -0.008093
    72  H   -0.002604
    73  H    0.034703
    74  H    0.014911
    75  H    0.003516
    76  H   -0.004458
    77  H    0.041416
    78  H    0.051496
    79  H    0.023934
    80  H    0.026611
    81  H    0.009726
    82  H    0.034291
    83  H    0.034436
    84  H    0.031305
    85  H    0.008788
    86  H    0.004510
    87  H    0.036511
    88  H    0.006046
    89  H    0.021433
    90  H    0.004060
    91  H    0.001569
    92  H    0.008189
    93  H    0.015419
    94  H    0.027007
    95  H    0.015163
    96  H    0.043797
    97  H    0.039031
    98  H    0.021239
    99  H    0.065688
   100  H    0.029351
   101  H    0.047926
   102  H    0.038587
   103  H    0.043483
   104  H    0.007546
   105  H   -0.015206
   106  H    0.033008
   107  H    0.019865
   108  H   -0.017898
   109  H    0.000749
   110  H    0.002544
   111  H    0.001925
   112  H    0.013924
   113  H   -0.008036
   114  H   -0.005862
   115  H    0.009746
   116  H    0.004016
   117  H    0.004212
   118  H   -0.009789
   119  H   -0.017436
   120  H    0.002298
   121  H   -0.013990
   122  H   -0.023011
   123  H   -0.018739
   124  H   -0.012952
   125  H    0.007677
   126  H   -0.000642
   127  H    0.004562
   128  H   -0.004207
   129  H   -0.005296
   130  H   -0.012549
   131  H   -0.017127
   132  H   -0.013979
   133  H   -0.009363
   134  H   -0.009368
   135  H    0.010279
   136  H   -0.002420
   137  H    0.012721
   138  H    0.008908
   139  H    0.016997
   140  H    0.008971
 Sum of Mulliken charges =  -0.00000

 Dipole moment (field-independent basis, Debye):
    X=              4.5238    Y=              2.6321    Z=             -3.6357  Tot=              6.3727
 Quadrupole moment (field-independent basis, Debye-Ang):
   XX=           -377.9661   YY=           -414.6538   ZZ=           -404.3107
   XY=              4.6717   XZ=             24.4399   YZ=             -0.9795

 Normal termination of Gaussian 16 at Thu Apr 28 09:14:32 2022.
