 Gaussian 16, Revision A.03,
 Gaussian 16:  ES64L-G16RevA.03 25-Dec-2016

 ---------------------------------
 #p PBE1PBE/Def2SVP td=(nstates=5)
 ---------------------------------

 -----------------------------------------------------
 step_151_chromophore_19 TDDFT with PBE1PBE functional
 -----------------------------------------------------
 Symbolic Z-matrix:
 Charge =  0 Multiplicity = 1

                         Standard orientation:
 ---------------------------------------------------------------------
 Center     Atomic      Atomic             Coordinates (Angstroms)
 Number     Number       Type             X           Y           Z
 ---------------------------------------------------------------------
      1         12           0       -5.909027    0.538610   -0.221860
      2          6           0       -3.623335   -2.237364   -0.047754
      3          6           0       -3.136301    2.520207    0.490824
      4          6           0       -7.978368    2.860347    0.286175
      5          6           0       -8.483452   -1.906907   -0.370650
      6          7           0       -3.618405    0.101722    0.197444
      7          6           0       -2.914889   -1.043814    0.065672
      8          6           0       -1.395550   -0.878916    0.006015
      9          6           0       -1.315324    0.622179    0.588493
     10          6           0       -2.768529    1.186936    0.399475
     11          6           0       -0.704160    0.849918    2.040081
     12          6           0       -0.943918   -0.966403   -1.457506
     13          6           0        0.546366   -1.438885   -1.681527
     14          6           0        1.677912   -1.119085   -0.708218
     15          8           0        1.521504   -0.461385    0.321508
     16          8           0        2.841961   -1.747450   -1.045240
     17          7           0       -5.627651    2.463119    0.083836
     18          6           0       -4.430802    3.128234    0.410337
     19          6           0       -4.700383    4.527437    0.548860
     20          6           0       -6.077386    4.649599    0.528077
     21          6           0       -6.604175    3.315020    0.277081
     22          6           0       -3.604994    5.583390    0.633417
     23          6           0       -6.906756    5.886896    0.737255
     24          8           0       -8.117757    5.685786    0.919555
     25          6           0       -6.312840    7.192561    0.806373
     26          7           0       -7.988124    0.471232   -0.043934
     27          6           0       -8.568145    1.644770    0.035514
     28          6           0      -10.125256    1.440796   -0.024847
     29          6           0      -10.203989   -0.061820   -0.466554
     30          6           0       -8.831151   -0.527641   -0.235137
     31          6           0      -10.937136    1.738317    1.269068
     32          6           0      -10.662677   -0.347970   -1.986114
     33          6           0      -11.973264   -1.096458   -2.186318
     34          7           0       -6.081759   -1.561664   -0.233140
     35          6           0       -7.197760   -2.389484   -0.241331
     36          6           0       -6.808360   -3.763674   -0.372124
     37          6           0       -5.448048   -3.742104   -0.358881
     38          6           0       -5.064512   -2.364181   -0.222349
     39          6           0       -7.683146   -4.977862   -0.361783
     40          6           0       -4.286241   -4.591143   -0.378405
     41          8           0       -4.110041   -5.805286   -0.354096
     42          6           0       -3.065558   -3.624428   -0.178788
     43          6           0       -2.196600   -3.947219    0.928867
     44          8           0       -2.596262   -3.925178    2.090088
     45          8           0       -1.012031   -4.350062    0.508678
     46          6           0       -0.151710   -5.054614    1.515296
     47          6           0        3.895498   -1.786208    0.003310
     48          6           0        5.218572   -1.570400   -0.691908
     49          6           0        6.257257   -0.848334   -0.280988
     50          6           0        6.327460   -0.079012    0.986966
     51          6           0        7.569688   -0.772073   -1.110904
     52          6           0        7.910402    0.501438   -1.837511
     53          6           0        9.115584    1.096575   -1.133546
     54          6           0        9.909774    2.196802   -1.971083
     55          6           0        9.081706    3.287584   -2.623191
     56          6           0       10.855328    1.464279   -2.958257
     57          6           0       12.341207    1.824416   -2.729117
     58          6           0       13.254680    0.689701   -2.280897
     59          6           0       13.804825    0.767218   -0.855974
     60          6           0       15.324716    0.526651   -0.800116
     61          6           0       13.103897   -0.282821    0.119086
     62          6           0       12.879971    0.305759    1.481513
     63          6           0       12.220188   -0.623696    2.471420
     64          6           0       11.258202    0.005053    3.405632
     65          6           0       11.478935   -0.383873    4.872615
     66          6           0        9.842340   -0.226204    2.911677
     67          1           0       -2.275327    3.187245    0.568717
     68          1           0       -8.756420    3.622463    0.201977
     69          1           0       -9.260556   -2.627365   -0.637144
     70          1           0       -0.826384   -1.453213    0.738115
     71          1           0       -0.727654    1.283153   -0.048245
     72          1           0       -0.316638    1.868466    2.021979
     73          1           0        0.130543    0.185248    2.262395
     74          1           0       -1.457866    0.849898    2.826934
     75          1           0       -1.181092   -0.122564   -2.106047
     76          1           0       -1.647291   -1.673229   -1.897263
     77          1           0        0.701623   -0.969018   -2.652975
     78          1           0        0.504414   -2.525218   -1.754396
     79          1           0       -2.625208    5.192469    0.360274
     80          1           0       -3.594487    6.024435    1.630374
     81          1           0       -3.865332    6.426187   -0.006386
     82          1           0       -5.794124    7.448579   -0.116969
     83          1           0       -5.519753    7.280919    1.549158
     84          1           0       -7.131616    7.895375    0.960558
     85          1           0      -10.417999    2.229867   -0.717597
     86          1           0      -10.883044   -0.590048    0.202168
     87          1           0      -10.302744    2.106008    2.074921
     88          1           0      -11.423552    0.795356    1.516867
     89          1           0      -11.637738    2.455439    0.840971
     90          1           0       -9.837374   -0.896561   -2.440511
     91          1           0      -10.605323    0.596557   -2.527490
     92          1           0      -12.336567   -1.538047   -1.258902
     93          1           0      -11.802097   -1.971909   -2.812271
     94          1           0      -12.744547   -0.438310   -2.585428
     95          1           0       -8.453036   -4.836027   -1.120000
     96          1           0       -8.128990   -5.074252    0.627632
     97          1           0       -7.016751   -5.785214   -0.668491
     98          1           0       -2.471987   -3.743219   -1.085146
     99          1           0       -0.434142   -5.014147    2.567183
    100          1           0        0.855618   -4.641093    1.454820
    101          1           0       -0.083061   -6.084347    1.165225
    102          1           0        4.013546   -2.714559    0.563438
    103          1           0        3.735016   -0.984460    0.723877
    104          1           0        5.137877   -1.870591   -1.736139
    105          1           0        5.419680   -0.284555    1.554407
    106          1           0        6.364282    1.007524    0.912582
    107          1           0        7.145018   -0.394019    1.635511
    108          1           0        7.522261   -1.586791   -1.832787
    109          1           0        8.326438   -1.123088   -0.409494
    110          1           0        7.123851    1.245916   -1.713898
    111          1           0        8.082271    0.337651   -2.901139
    112          1           0        9.752896    0.281593   -0.792089
    113          1           0        8.656320    1.536890   -0.248124
    114          1           0       10.536816    2.596675   -1.173670
    115          1           0        8.126398    3.438970   -2.120989
    116          1           0        8.973615    3.077718   -3.686933
    117          1           0        9.622188    4.234186   -2.631197
    118          1           0       10.688160    1.533993   -4.032316
    119          1           0       10.661866    0.400698   -2.819152
    120          1           0       12.513595    2.698347   -2.100360
    121          1           0       12.693882    2.064305   -3.731081
    122          1           0       14.096450    0.607467   -2.967926
    123          1           0       12.796263   -0.286367   -2.441444
    124          1           0       13.707632    1.795154   -0.506025
    125          1           0       15.708437    0.069382    0.112503
    126          1           0       15.851797    1.479103   -0.865500
    127          1           0       15.594126   -0.036598   -1.692505
    128          1           0       13.828859   -1.097867    0.133708
    129          1           0       12.171667   -0.536662   -0.384220
    130          1           0       12.362101    1.261252    1.395524
    131          1           0       13.857588    0.631593    1.837337
    132          1           0       13.124245   -1.033840    2.922488
    133          1           0       11.732923   -1.399650    1.881265
    134          1           0       11.483675    1.070647    3.444677
    135          1           0       12.492242   -0.159373    5.207281
    136          1           0       11.382501   -1.464370    4.772058
    137          1           0       10.794820   -0.070443    5.660912
    138          1           0        9.358411    0.724769    3.132581
    139          1           0        9.458301   -1.100724    3.436872
    140          1           0        9.750640   -0.326293    1.829973
 ---------------------------------------------------------------------

 SCF Done:  E(RPBE1PBE) =  -3005.36099880     A.U. after   15 cycles

 Excitation energies and oscillator strengths:

 Excited State   1:      Singlet-A      1.8706 eV  662.80 nm  f=0.3481  <S**2>=0.000
     245 -> 248        0.16630
     246 -> 247        0.69201
     246 <- 247       -0.10537
 This state for optimization and/or second-order correction.
 Total Energy, E(TD-HF/TD-DFT) =  -3005.29225545
 Copying the excited state density for this state as the 1-particle RhoCI density.

 Excited State   2:      Singlet-A      2.2540 eV  550.05 nm  f=0.1300  <S**2>=0.000
     245 -> 247        0.65157
     246 -> 248       -0.25793

 Excited State   3:      Singlet-A      3.0685 eV  404.05 nm  f=0.0023  <S**2>=0.000
     240 -> 247        0.12311
     242 -> 247        0.19645
     243 -> 247       -0.39637
     243 -> 249       -0.12008
     244 -> 247        0.48299
     246 -> 248       -0.10661

 Excited State   4:      Singlet-A      3.1955 eV  388.00 nm  f=0.0012  <S**2>=0.000
     242 -> 247        0.15591
     243 -> 247        0.51254
     243 -> 250       -0.10203
     244 -> 247        0.38910

 Excited State   5:      Singlet-A      3.3081 eV  374.79 nm  f=0.2722  <S**2>=0.000
     240 -> 247        0.18874
     242 -> 247        0.28374
     244 -> 247       -0.13518
     245 -> 247        0.18860
     246 -> 248        0.52553
     246 -> 249       -0.13024
     246 -> 250       -0.11110

 The electronic state is 1-A.
 Alpha  occ. eigenvalues --  -46.91651 -19.26929 -19.26338 -19.20958 -19.18966
 Alpha  occ. eigenvalues --  -19.18053 -19.18000 -14.40409 -14.40235 -14.38917
 Alpha  occ. eigenvalues --  -14.38423 -10.37803 -10.34681 -10.31725 -10.31248
 Alpha  occ. eigenvalues --  -10.30031 -10.29310 -10.27672 -10.27640 -10.27406
 Alpha  occ. eigenvalues --  -10.27117 -10.27008 -10.26897 -10.26392 -10.26124
 Alpha  occ. eigenvalues --  -10.25914 -10.25333 -10.25168 -10.24905 -10.24817
 Alpha  occ. eigenvalues --  -10.24781 -10.24636 -10.24534 -10.24529 -10.24529
 Alpha  occ. eigenvalues --  -10.24511 -10.24110 -10.23978 -10.23867 -10.23838
 Alpha  occ. eigenvalues --  -10.23556 -10.23392 -10.23318 -10.23250 -10.23239
 Alpha  occ. eigenvalues --  -10.23168 -10.23043 -10.22941 -10.22921 -10.22844
 Alpha  occ. eigenvalues --  -10.22647 -10.22636 -10.22586 -10.22579 -10.22290
 Alpha  occ. eigenvalues --  -10.22266 -10.22236 -10.22186 -10.22178 -10.22083
 Alpha  occ. eigenvalues --  -10.21930 -10.21883 -10.21879 -10.21810 -10.21634
 Alpha  occ. eigenvalues --  -10.21471  -3.13917  -1.86741  -1.86307  -1.86142
 Alpha  occ. eigenvalues --   -1.11788  -1.11691  -1.03980  -1.03366  -1.03176
 Alpha  occ. eigenvalues --   -1.01332  -1.00098  -0.98996  -0.98303  -0.96254
 Alpha  occ. eigenvalues --   -0.86094  -0.85258  -0.84789  -0.83623  -0.83162
 Alpha  occ. eigenvalues --   -0.82855  -0.82258  -0.82153  -0.81907  -0.81229
 Alpha  occ. eigenvalues --   -0.80443  -0.79760  -0.78390  -0.77914  -0.77603
 Alpha  occ. eigenvalues --   -0.77146  -0.76848  -0.75832  -0.75253  -0.74836
 Alpha  occ. eigenvalues --   -0.74531  -0.72545  -0.71934  -0.71750  -0.70533
 Alpha  occ. eigenvalues --   -0.70273  -0.70155  -0.69236  -0.69117  -0.68860
 Alpha  occ. eigenvalues --   -0.67617  -0.67044  -0.65129  -0.64955  -0.63136
 Alpha  occ. eigenvalues --   -0.62899  -0.62563  -0.61486  -0.61131  -0.60377
 Alpha  occ. eigenvalues --   -0.59498  -0.59168  -0.58962  -0.58691  -0.58249
 Alpha  occ. eigenvalues --   -0.58188  -0.57170  -0.56657  -0.56506  -0.54959
 Alpha  occ. eigenvalues --   -0.54570  -0.53998  -0.53456  -0.52516  -0.52328
 Alpha  occ. eigenvalues --   -0.51882  -0.51427  -0.50872  -0.50675  -0.49910
 Alpha  occ. eigenvalues --   -0.49652  -0.49422  -0.49242  -0.49006  -0.48981
 Alpha  occ. eigenvalues --   -0.48443  -0.47932  -0.47838  -0.47359  -0.47267
 Alpha  occ. eigenvalues --   -0.47099  -0.46774  -0.46654  -0.46596  -0.46233
 Alpha  occ. eigenvalues --   -0.46144  -0.45927  -0.45506  -0.45344  -0.44887
 Alpha  occ. eigenvalues --   -0.44779  -0.44552  -0.44414  -0.44321  -0.44153
 Alpha  occ. eigenvalues --   -0.43942  -0.43773  -0.43624  -0.43446  -0.43422
 Alpha  occ. eigenvalues --   -0.43122  -0.42986  -0.42868  -0.42555  -0.42345
 Alpha  occ. eigenvalues --   -0.41970  -0.41948  -0.41681  -0.41177  -0.41071
 Alpha  occ. eigenvalues --   -0.40752  -0.40608  -0.40500  -0.40256  -0.40190
 Alpha  occ. eigenvalues --   -0.39987  -0.39957  -0.39772  -0.39692  -0.39625
 Alpha  occ. eigenvalues --   -0.39447  -0.39338  -0.38960  -0.38884  -0.38563
 Alpha  occ. eigenvalues --   -0.38495  -0.38393  -0.38225  -0.38025  -0.37951
 Alpha  occ. eigenvalues --   -0.37692  -0.37495  -0.37090  -0.36979  -0.36848
 Alpha  occ. eigenvalues --   -0.36408  -0.36373  -0.36246  -0.35952  -0.35710
 Alpha  occ. eigenvalues --   -0.35686  -0.35438  -0.35325  -0.35320  -0.34910
 Alpha  occ. eigenvalues --   -0.34616  -0.34479  -0.34293  -0.33912  -0.33220
 Alpha  occ. eigenvalues --   -0.33051  -0.32610  -0.32507  -0.32263  -0.31889
 Alpha  occ. eigenvalues --   -0.31734  -0.31461  -0.31278  -0.31047  -0.30865
 Alpha  occ. eigenvalues --   -0.30746  -0.30460  -0.29878  -0.29361  -0.28720
 Alpha  occ. eigenvalues --   -0.28703  -0.28056  -0.27532  -0.26451  -0.26125
 Alpha  occ. eigenvalues --   -0.25944  -0.25584  -0.25237  -0.24895  -0.20117
 Alpha  occ. eigenvalues --   -0.17955
 Alpha virt. eigenvalues --   -0.10266  -0.04431  -0.02912  -0.01415  -0.00466
 Alpha virt. eigenvalues --   -0.00139   0.00991   0.01682   0.02378   0.03484
 Alpha virt. eigenvalues --    0.04494   0.04894   0.05188   0.05271   0.05888

 Mulliken charges:
               1
     1  Mg   1.000217
     2  C   -0.009279
     3  C   -0.080201
     4  C   -0.009090
     5  C   -0.105384
     6  N   -0.346436
     7  C   -0.011953
     8  C   -0.092239
     9  C   -0.099917
    10  C    0.050167
    11  C    0.017829
    12  C    0.043355
    13  C   -0.031934
    14  C    0.253925
    15  O   -0.271742
    16  O   -0.367935
    17  N   -0.532940
    18  C    0.158562
    19  C   -0.174230
    20  C   -0.064360
    21  C    0.137023
    22  C    0.064427
    23  C    0.045298
    24  O   -0.264923
    25  C   -0.006102
    26  N   -0.374252
    27  C    0.039146
    28  C   -0.159201
    29  C   -0.095891
    30  C    0.055428
    31  C    0.038787
    32  C   -0.022059
    33  C   -0.054433
    34  N   -0.422759
    35  C    0.156603
    36  C   -0.217358
    37  C   -0.061803
    38  C    0.153217
    39  C    0.077778
    40  C    0.174413
    41  O   -0.220619
    42  C   -0.103881
    43  C    0.255388
    44  O   -0.268333
    45  O   -0.346061
    46  C    0.110736
    47  C    0.227725
    48  C   -0.151470
    49  C   -0.201884
    50  C    0.020423
    51  C    0.010857
    52  C    0.002125
    53  C   -0.135983
    54  C   -0.154186
    55  C    0.015561
    56  C   -0.000767
    57  C   -0.028571
    58  C    0.016129
    59  C   -0.237711
    60  C   -0.015913
    61  C   -0.006169
    62  C   -0.076311
    63  C    0.032645
    64  C   -0.209125
    65  C   -0.040870
    66  C   -0.026287
    67  H   -0.003791
    68  H    0.029358
    69  H    0.005298
    70  H    0.063433
    71  H    0.029623
    72  H    0.025276
    73  H    0.062350
    74  H    0.043398
    75  H    0.033661
    76  H    0.031882
    77  H    0.072885
    78  H    0.082572
    79  H    0.051335
    80  H    0.055964
    81  H    0.039546
    82  H    0.061521
    83  H    0.061589
    84  H    0.058892
    85  H    0.044315
    86  H    0.041376
    87  H    0.063415
    88  H    0.034570
    89  H    0.048406
    90  H    0.038152
    91  H    0.033843
    92  H    0.035007
    93  H    0.042954
    94  H    0.054101
    95  H    0.041758
    96  H    0.070691
    97  H    0.066516
    98  H    0.060122
    99  H    0.085316
   100  H    0.050087
   101  H    0.069454
   102  H    0.065637
   103  H    0.068733
   104  H    0.037451
   105  H    0.014121
   106  H    0.058810
   107  H    0.053067
   108  H    0.015219
   109  H    0.034047
   110  H    0.036418
   111  H    0.033709
   112  H    0.052993
   113  H    0.027685
   114  H    0.033845
   115  H    0.036881
   116  H    0.031033
   117  H    0.032791
   118  H    0.020860
   119  H    0.014633
   120  H    0.032567
   121  H    0.020710
   122  H    0.009640
   123  H    0.012902
   124  H    0.023900
   125  H    0.034430
   126  H    0.027993
   127  H    0.032087
   128  H    0.029570
   129  H    0.031094
   130  H    0.019975
   131  H    0.016777
   132  H    0.019034
   133  H    0.023476
   134  H    0.029361
   135  H    0.038455
   136  H    0.026324
   137  H    0.040073
   138  H    0.036653
   139  H    0.043267
   140  H    0.041701
 Sum of Mulliken charges =  -0.00000

 Dipole moment (field-independent basis, Debye):
    X=              4.5594    Y=              3.0977    Z=             -3.6316  Tot=              6.6009
 Quadrupole moment (field-independent basis, Debye-Ang):
   XX=           -372.5217   YY=           -411.7984   ZZ=           -401.6531
   XY=              2.9392   XZ=             24.5006   YZ=             -0.7050

 Normal termination of Gaussian 16 at Thu Apr 28 09:36:47 2022.
