 Gaussian 16, Revision A.03,
 Gaussian 16:  ES64L-G16RevA.03 25-Dec-2016

 --------------------------------
 #p wB97XD/Def2SVP td=(nstates=5)
 --------------------------------

 ----------------------------------------------------
 step_151_chromophore_19 TDDFT with wB97XD functional
 ----------------------------------------------------
 Symbolic Z-matrix:
 Charge =  0 Multiplicity = 1

                         Standard orientation:
 ---------------------------------------------------------------------
 Center     Atomic      Atomic             Coordinates (Angstroms)
 Number     Number       Type             X           Y           Z
 ---------------------------------------------------------------------
      1         12           0       -5.909027    0.538610   -0.221860
      2          6           0       -3.623335   -2.237364   -0.047754
      3          6           0       -3.136301    2.520207    0.490824
      4          6           0       -7.978368    2.860347    0.286175
      5          6           0       -8.483452   -1.906907   -0.370650
      6          7           0       -3.618405    0.101722    0.197444
      7          6           0       -2.914889   -1.043814    0.065672
      8          6           0       -1.395550   -0.878916    0.006015
      9          6           0       -1.315324    0.622179    0.588493
     10          6           0       -2.768529    1.186936    0.399475
     11          6           0       -0.704160    0.849918    2.040081
     12          6           0       -0.943918   -0.966403   -1.457506
     13          6           0        0.546366   -1.438885   -1.681527
     14          6           0        1.677912   -1.119085   -0.708218
     15          8           0        1.521504   -0.461385    0.321508
     16          8           0        2.841961   -1.747450   -1.045240
     17          7           0       -5.627651    2.463119    0.083836
     18          6           0       -4.430802    3.128234    0.410337
     19          6           0       -4.700383    4.527437    0.548860
     20          6           0       -6.077386    4.649599    0.528077
     21          6           0       -6.604175    3.315020    0.277081
     22          6           0       -3.604994    5.583390    0.633417
     23          6           0       -6.906756    5.886896    0.737255
     24          8           0       -8.117757    5.685786    0.919555
     25          6           0       -6.312840    7.192561    0.806373
     26          7           0       -7.988124    0.471232   -0.043934
     27          6           0       -8.568145    1.644770    0.035514
     28          6           0      -10.125256    1.440796   -0.024847
     29          6           0      -10.203989   -0.061820   -0.466554
     30          6           0       -8.831151   -0.527641   -0.235137
     31          6           0      -10.937136    1.738317    1.269068
     32          6           0      -10.662677   -0.347970   -1.986114
     33          6           0      -11.973264   -1.096458   -2.186318
     34          7           0       -6.081759   -1.561664   -0.233140
     35          6           0       -7.197760   -2.389484   -0.241331
     36          6           0       -6.808360   -3.763674   -0.372124
     37          6           0       -5.448048   -3.742104   -0.358881
     38          6           0       -5.064512   -2.364181   -0.222349
     39          6           0       -7.683146   -4.977862   -0.361783
     40          6           0       -4.286241   -4.591143   -0.378405
     41          8           0       -4.110041   -5.805286   -0.354096
     42          6           0       -3.065558   -3.624428   -0.178788
     43          6           0       -2.196600   -3.947219    0.928867
     44          8           0       -2.596262   -3.925178    2.090088
     45          8           0       -1.012031   -4.350062    0.508678
     46          6           0       -0.151710   -5.054614    1.515296
     47          6           0        3.895498   -1.786208    0.003310
     48          6           0        5.218572   -1.570400   -0.691908
     49          6           0        6.257257   -0.848334   -0.280988
     50          6           0        6.327460   -0.079012    0.986966
     51          6           0        7.569688   -0.772073   -1.110904
     52          6           0        7.910402    0.501438   -1.837511
     53          6           0        9.115584    1.096575   -1.133546
     54          6           0        9.909774    2.196802   -1.971083
     55          6           0        9.081706    3.287584   -2.623191
     56          6           0       10.855328    1.464279   -2.958257
     57          6           0       12.341207    1.824416   -2.729117
     58          6           0       13.254680    0.689701   -2.280897
     59          6           0       13.804825    0.767218   -0.855974
     60          6           0       15.324716    0.526651   -0.800116
     61          6           0       13.103897   -0.282821    0.119086
     62          6           0       12.879971    0.305759    1.481513
     63          6           0       12.220188   -0.623696    2.471420
     64          6           0       11.258202    0.005053    3.405632
     65          6           0       11.478935   -0.383873    4.872615
     66          6           0        9.842340   -0.226204    2.911677
     67          1           0       -2.275327    3.187245    0.568717
     68          1           0       -8.756420    3.622463    0.201977
     69          1           0       -9.260556   -2.627365   -0.637144
     70          1           0       -0.826384   -1.453213    0.738115
     71          1           0       -0.727654    1.283153   -0.048245
     72          1           0       -0.316638    1.868466    2.021979
     73          1           0        0.130543    0.185248    2.262395
     74          1           0       -1.457866    0.849898    2.826934
     75          1           0       -1.181092   -0.122564   -2.106047
     76          1           0       -1.647291   -1.673229   -1.897263
     77          1           0        0.701623   -0.969018   -2.652975
     78          1           0        0.504414   -2.525218   -1.754396
     79          1           0       -2.625208    5.192469    0.360274
     80          1           0       -3.594487    6.024435    1.630374
     81          1           0       -3.865332    6.426187   -0.006386
     82          1           0       -5.794124    7.448579   -0.116969
     83          1           0       -5.519753    7.280919    1.549158
     84          1           0       -7.131616    7.895375    0.960558
     85          1           0      -10.417999    2.229867   -0.717597
     86          1           0      -10.883044   -0.590048    0.202168
     87          1           0      -10.302744    2.106008    2.074921
     88          1           0      -11.423552    0.795356    1.516867
     89          1           0      -11.637738    2.455439    0.840971
     90          1           0       -9.837374   -0.896561   -2.440511
     91          1           0      -10.605323    0.596557   -2.527490
     92          1           0      -12.336567   -1.538047   -1.258902
     93          1           0      -11.802097   -1.971909   -2.812271
     94          1           0      -12.744547   -0.438310   -2.585428
     95          1           0       -8.453036   -4.836027   -1.120000
     96          1           0       -8.128990   -5.074252    0.627632
     97          1           0       -7.016751   -5.785214   -0.668491
     98          1           0       -2.471987   -3.743219   -1.085146
     99          1           0       -0.434142   -5.014147    2.567183
    100          1           0        0.855618   -4.641093    1.454820
    101          1           0       -0.083061   -6.084347    1.165225
    102          1           0        4.013546   -2.714559    0.563438
    103          1           0        3.735016   -0.984460    0.723877
    104          1           0        5.137877   -1.870591   -1.736139
    105          1           0        5.419680   -0.284555    1.554407
    106          1           0        6.364282    1.007524    0.912582
    107          1           0        7.145018   -0.394019    1.635511
    108          1           0        7.522261   -1.586791   -1.832787
    109          1           0        8.326438   -1.123088   -0.409494
    110          1           0        7.123851    1.245916   -1.713898
    111          1           0        8.082271    0.337651   -2.901139
    112          1           0        9.752896    0.281593   -0.792089
    113          1           0        8.656320    1.536890   -0.248124
    114          1           0       10.536816    2.596675   -1.173670
    115          1           0        8.126398    3.438970   -2.120989
    116          1           0        8.973615    3.077718   -3.686933
    117          1           0        9.622188    4.234186   -2.631197
    118          1           0       10.688160    1.533993   -4.032316
    119          1           0       10.661866    0.400698   -2.819152
    120          1           0       12.513595    2.698347   -2.100360
    121          1           0       12.693882    2.064305   -3.731081
    122          1           0       14.096450    0.607467   -2.967926
    123          1           0       12.796263   -0.286367   -2.441444
    124          1           0       13.707632    1.795154   -0.506025
    125          1           0       15.708437    0.069382    0.112503
    126          1           0       15.851797    1.479103   -0.865500
    127          1           0       15.594126   -0.036598   -1.692505
    128          1           0       13.828859   -1.097867    0.133708
    129          1           0       12.171667   -0.536662   -0.384220
    130          1           0       12.362101    1.261252    1.395524
    131          1           0       13.857588    0.631593    1.837337
    132          1           0       13.124245   -1.033840    2.922488
    133          1           0       11.732923   -1.399650    1.881265
    134          1           0       11.483675    1.070647    3.444677
    135          1           0       12.492242   -0.159373    5.207281
    136          1           0       11.382501   -1.464370    4.772058
    137          1           0       10.794820   -0.070443    5.660912
    138          1           0        9.358411    0.724769    3.132581
    139          1           0        9.458301   -1.100724    3.436872
    140          1           0        9.750640   -0.326293    1.829973
 ---------------------------------------------------------------------

 SCF Done:  E(RwB97XD) =  -3007.87087585     A.U. after   19 cycles

 Excitation energies and oscillator strengths:

 Excited State   1:      Singlet-A      1.6719 eV  741.57 nm  f=0.3638  <S**2>=0.000
     245 -> 248        0.18110
     246 -> 247        0.68294
     245 <- 248        0.11372
 This state for optimization and/or second-order correction.
 Total Energy, E(TD-HF/TD-DFT) =  -3007.80943446
 Copying the excited state density for this state as the 1-particle RhoCI density.

 Excited State   2:      Singlet-A      2.1964 eV  564.48 nm  f=0.1261  <S**2>=0.000
     245 -> 247        0.63878
     246 -> 248       -0.29144

 Excited State   3:      Singlet-A      3.4721 eV  357.09 nm  f=0.1679  <S**2>=0.000
     240 -> 247        0.20323
     240 -> 249        0.17665
     243 -> 247        0.38053
     243 -> 249        0.16303
     244 -> 247       -0.26332
     245 -> 247        0.13554
     246 -> 248        0.34330

 Excited State   4:      Singlet-A      3.5689 eV  347.40 nm  f=0.5129  <S**2>=0.000
     240 -> 247       -0.24506
     240 -> 249       -0.13737
     243 -> 247       -0.10991
     243 -> 249       -0.13253
     244 -> 247        0.18170
     245 -> 247        0.24054
     246 -> 248        0.51021

 Excited State   5:      Singlet-A      3.6996 eV  335.13 nm  f=0.0017  <S**2>=0.000
     239 -> 247       -0.23428
     240 -> 247        0.18900
     240 -> 249        0.12760
     242 -> 250       -0.15077
     243 -> 247        0.14437
     243 -> 250       -0.11490
     244 -> 247        0.51303
     244 -> 249       -0.10650
     246 -> 249       -0.10033

 The electronic state is 1-A.
 Alpha  occ. eigenvalues --  -46.94579 -19.31495 -19.31005 -19.25613 -19.24052
 Alpha  occ. eigenvalues --  -19.22814 -19.22643 -14.45429 -14.45365 -14.43746
 Alpha  occ. eigenvalues --  -14.43493 -10.44589 -10.41627 -10.38839 -10.37886
 Alpha  occ. eigenvalues --  -10.36519 -10.35907 -10.34116 -10.34093 -10.33489
 Alpha  occ. eigenvalues --  -10.33193 -10.33067 -10.33008 -10.32993 -10.32686
 Alpha  occ. eigenvalues --  -10.32323 -10.31611 -10.31544 -10.31314 -10.31168
 Alpha  occ. eigenvalues --  -10.31052 -10.31029 -10.30837 -10.30824 -10.30782
 Alpha  occ. eigenvalues --  -10.30701 -10.30401 -10.30378 -10.30358 -10.30323
 Alpha  occ. eigenvalues --  -10.29846 -10.29844 -10.29822 -10.29715 -10.29712
 Alpha  occ. eigenvalues --  -10.29419 -10.29370 -10.29313 -10.29184 -10.29137
 Alpha  occ. eigenvalues --  -10.29004 -10.28983 -10.28972 -10.28897 -10.28687
 Alpha  occ. eigenvalues --  -10.28645 -10.28633 -10.28626 -10.28625 -10.28609
 Alpha  occ. eigenvalues --  -10.28365 -10.28232 -10.28203 -10.28185 -10.28058
 Alpha  occ. eigenvalues --  -10.27847  -3.20700  -1.94274  -1.93842  -1.93670
 Alpha  occ. eigenvalues --   -1.19187  -1.19169  -1.11715  -1.10658  -1.10517
 Alpha  occ. eigenvalues --   -1.08817  -1.07514  -1.06492  -1.05435  -1.03620
 Alpha  occ. eigenvalues --   -0.93853  -0.92937  -0.92440  -0.91285  -0.90759
 Alpha  occ. eigenvalues --   -0.90508  -0.89910  -0.89681  -0.89663  -0.88832
 Alpha  occ. eigenvalues --   -0.87953  -0.87410  -0.86028  -0.85594  -0.85210
 Alpha  occ. eigenvalues --   -0.84776  -0.84456  -0.83473  -0.82909  -0.82455
 Alpha  occ. eigenvalues --   -0.82167  -0.80110  -0.79589  -0.79351  -0.78221
 Alpha  occ. eigenvalues --   -0.77961  -0.77833  -0.76864  -0.76730  -0.76524
 Alpha  occ. eigenvalues --   -0.75200  -0.74663  -0.72643  -0.72551  -0.70746
 Alpha  occ. eigenvalues --   -0.70521  -0.70141  -0.69144  -0.68560  -0.67892
 Alpha  occ. eigenvalues --   -0.67133  -0.66653  -0.66403  -0.66150  -0.65942
 Alpha  occ. eigenvalues --   -0.65629  -0.64806  -0.64145  -0.64118  -0.62224
 Alpha  occ. eigenvalues --   -0.62079  -0.61495  -0.60952  -0.59958  -0.59762
 Alpha  occ. eigenvalues --   -0.59437  -0.58861  -0.58268  -0.58091  -0.57372
 Alpha  occ. eigenvalues --   -0.57083  -0.56920  -0.56667  -0.56520  -0.56421
 Alpha  occ. eigenvalues --   -0.55879  -0.55330  -0.55238  -0.54795  -0.54701
 Alpha  occ. eigenvalues --   -0.54424  -0.54172  -0.54028  -0.54001  -0.53596
 Alpha  occ. eigenvalues --   -0.53512  -0.53247  -0.52962  -0.52651  -0.52261
 Alpha  occ. eigenvalues --   -0.52096  -0.51889  -0.51697  -0.51622  -0.51477
 Alpha  occ. eigenvalues --   -0.51242  -0.51101  -0.51082  -0.50783  -0.50709
 Alpha  occ. eigenvalues --   -0.50410  -0.50284  -0.50135  -0.49826  -0.49587
 Alpha  occ. eigenvalues --   -0.49216  -0.49154  -0.48982  -0.48427  -0.48315
 Alpha  occ. eigenvalues --   -0.48000  -0.47796  -0.47638  -0.47471  -0.47397
 Alpha  occ. eigenvalues --   -0.47180  -0.47093  -0.47018  -0.46906  -0.46758
 Alpha  occ. eigenvalues --   -0.46651  -0.46515  -0.46265  -0.46129  -0.45749
 Alpha  occ. eigenvalues --   -0.45676  -0.45579  -0.45361  -0.45118  -0.44966
 Alpha  occ. eigenvalues --   -0.44899  -0.44593  -0.44335  -0.44128  -0.43938
 Alpha  occ. eigenvalues --   -0.43511  -0.43480  -0.43261  -0.42997  -0.42840
 Alpha  occ. eigenvalues --   -0.42722  -0.42418  -0.42402  -0.42264  -0.41938
 Alpha  occ. eigenvalues --   -0.41666  -0.41432  -0.41356  -0.40902  -0.40250
 Alpha  occ. eigenvalues --   -0.40016  -0.39693  -0.39442  -0.39252  -0.38804
 Alpha  occ. eigenvalues --   -0.38763  -0.38496  -0.38396  -0.38091  -0.37938
 Alpha  occ. eigenvalues --   -0.37711  -0.37403  -0.36787  -0.36361  -0.35600
 Alpha  occ. eigenvalues --   -0.35509  -0.34936  -0.34588  -0.33181  -0.32960
 Alpha  occ. eigenvalues --   -0.32706  -0.32367  -0.32274  -0.31545  -0.25087
 Alpha  occ. eigenvalues --   -0.22138
 Alpha virt. eigenvalues --   -0.06123   0.01067   0.03286   0.05147   0.05725
 Alpha virt. eigenvalues --    0.06436   0.07673   0.08361   0.09127   0.09945
 Alpha virt. eigenvalues --    0.11061   0.11372   0.11922   0.12076   0.12493

 Mulliken charges:
               1
     1  Mg   0.990736
     2  C   -0.015782
     3  C   -0.093127
     4  C   -0.021857
     5  C   -0.127760
     6  N   -0.313197
     7  C   -0.041272
     8  C   -0.065920
     9  C   -0.076916
    10  C    0.031927
    11  C    0.029705
    12  C    0.050209
    13  C   -0.015934
    14  C    0.243476
    15  O   -0.268763
    16  O   -0.367613
    17  N   -0.500087
    18  C    0.150329
    19  C   -0.168319
    20  C   -0.053999
    21  C    0.121704
    22  C    0.078699
    23  C    0.040172
    24  O   -0.260823
    25  C    0.002061
    26  N   -0.336931
    27  C    0.021811
    28  C   -0.135264
    29  C   -0.067658
    30  C    0.045534
    31  C    0.049346
    32  C   -0.009386
    33  C   -0.038036
    34  N   -0.383697
    35  C    0.156265
    36  C   -0.214744
    37  C   -0.057166
    38  C    0.138261
    39  C    0.089114
    40  C    0.155691
    41  O   -0.207823
    42  C   -0.060716
    43  C    0.227183
    44  O   -0.262494
    45  O   -0.342663
    46  C    0.126835
    47  C    0.243637
    48  C   -0.161673
    49  C   -0.185672
    50  C    0.035424
    51  C    0.033614
    52  C    0.011029
    53  C   -0.096226
    54  C   -0.125380
    55  C    0.026909
    56  C    0.009830
    57  C   -0.009435
    58  C    0.029302
    59  C   -0.211131
    60  C   -0.003724
    61  C    0.019932
    62  C   -0.058538
    63  C    0.047581
    64  C   -0.176661
    65  C   -0.028015
    66  C   -0.004907
    67  H   -0.012419
    68  H    0.024198
    69  H    0.000295
    70  H    0.051493
    71  H    0.018186
    72  H    0.018948
    73  H    0.056252
    74  H    0.037519
    75  H    0.028373
    76  H    0.019096
    77  H    0.068119
    78  H    0.077613
    79  H    0.046923
    80  H    0.049410
    81  H    0.031265
    82  H    0.055971
    83  H    0.055652
    84  H    0.057481
    85  H    0.034008
    86  H    0.027226
    87  H    0.058667
    88  H    0.027455
    89  H    0.043292
    90  H    0.027637
    91  H    0.027247
    92  H    0.028339
    93  H    0.037216
    94  H    0.049255
    95  H    0.037017
    96  H    0.067518
    97  H    0.063322
    98  H    0.050946
    99  H    0.082668
   100  H    0.046382
   101  H    0.065782
   102  H    0.061306
   103  H    0.061076
   104  H    0.034580
   105  H    0.007956
   106  H    0.054471
   107  H    0.042337
   108  H    0.009042
   109  H    0.022904
   110  H    0.025690
   111  H    0.027010
   112  H    0.029300
   113  H    0.014318
   114  H    0.020150
   115  H    0.031309
   116  H    0.024251
   117  H    0.027579
   118  H    0.014380
   119  H    0.001780
   120  H    0.023414
   121  H    0.013668
   122  H    0.001436
   123  H    0.003497
   124  H    0.009892
   125  H    0.028211
   126  H    0.022461
   127  H    0.024886
   128  H    0.019814
   129  H    0.013764
   130  H    0.008399
   131  H    0.006732
   132  H    0.011298
   133  H    0.013366
   134  H    0.017131
   135  H    0.032793
   136  H    0.016561
   137  H    0.035990
   138  H    0.030606
   139  H    0.037411
   140  H    0.023867
 Sum of Mulliken charges =  -0.00000

 Dipole moment (field-independent basis, Debye):
    X=              4.5398    Y=              2.5801    Z=             -3.7047  Tot=              6.4025
 Quadrupole moment (field-independent basis, Debye-Ang):
   XX=           -372.5204   YY=           -410.3542   ZZ=           -401.2458
   XY=              5.5945   XZ=             25.1166   YZ=             -0.7992

 Normal termination of Gaussian 16 at Thu Apr 28 10:05:45 2022.
