 Gaussian 16, Revision A.03,
 Gaussian 16:  ES64L-G16RevA.03 25-Dec-2016

 --------------------
 #p ZINDO=(nstates=5)
 --------------------

 -----------------------------
 step_151_chromophore_19 ZINDO
 -----------------------------
 Symbolic Z-matrix:
 Charge =  0 Multiplicity = 1

                         Standard orientation:
 ---------------------------------------------------------------------
 Center     Atomic      Atomic             Coordinates (Angstroms)
 Number     Number       Type             X           Y           Z
 ---------------------------------------------------------------------
      1         12           0       -5.909027    0.538610   -0.221860
      2          6           0       -3.623335   -2.237364   -0.047754
      3          6           0       -3.136301    2.520207    0.490824
      4          6           0       -7.978368    2.860347    0.286175
      5          6           0       -8.483452   -1.906907   -0.370650
      6          7           0       -3.618405    0.101722    0.197444
      7          6           0       -2.914889   -1.043814    0.065672
      8          6           0       -1.395550   -0.878916    0.006015
      9          6           0       -1.315324    0.622179    0.588493
     10          6           0       -2.768529    1.186936    0.399475
     11          6           0       -0.704160    0.849918    2.040081
     12          6           0       -0.943918   -0.966403   -1.457506
     13          6           0        0.546366   -1.438885   -1.681527
     14          6           0        1.677912   -1.119085   -0.708218
     15          8           0        1.521504   -0.461385    0.321508
     16          8           0        2.841961   -1.747450   -1.045240
     17          7           0       -5.627651    2.463119    0.083836
     18          6           0       -4.430802    3.128234    0.410337
     19          6           0       -4.700383    4.527437    0.548860
     20          6           0       -6.077386    4.649599    0.528077
     21          6           0       -6.604175    3.315020    0.277081
     22          6           0       -3.604994    5.583390    0.633417
     23          6           0       -6.906756    5.886896    0.737255
     24          8           0       -8.117757    5.685786    0.919555
     25          6           0       -6.312840    7.192561    0.806373
     26          7           0       -7.988124    0.471232   -0.043934
     27          6           0       -8.568145    1.644770    0.035514
     28          6           0      -10.125256    1.440796   -0.024847
     29          6           0      -10.203989   -0.061820   -0.466554
     30          6           0       -8.831151   -0.527641   -0.235137
     31          6           0      -10.937136    1.738317    1.269068
     32          6           0      -10.662677   -0.347970   -1.986114
     33          6           0      -11.973264   -1.096458   -2.186318
     34          7           0       -6.081759   -1.561664   -0.233140
     35          6           0       -7.197760   -2.389484   -0.241331
     36          6           0       -6.808360   -3.763674   -0.372124
     37          6           0       -5.448048   -3.742104   -0.358881
     38          6           0       -5.064512   -2.364181   -0.222349
     39          6           0       -7.683146   -4.977862   -0.361783
     40          6           0       -4.286241   -4.591143   -0.378405
     41          8           0       -4.110041   -5.805286   -0.354096
     42          6           0       -3.065558   -3.624428   -0.178788
     43          6           0       -2.196600   -3.947219    0.928867
     44          8           0       -2.596262   -3.925178    2.090088
     45          8           0       -1.012031   -4.350062    0.508678
     46          6           0       -0.151710   -5.054614    1.515296
     47          6           0        3.895498   -1.786208    0.003310
     48          6           0        5.218572   -1.570400   -0.691908
     49          6           0        6.257257   -0.848334   -0.280988
     50          6           0        6.327460   -0.079012    0.986966
     51          6           0        7.569688   -0.772073   -1.110904
     52          6           0        7.910402    0.501438   -1.837511
     53          6           0        9.115584    1.096575   -1.133546
     54          6           0        9.909774    2.196802   -1.971083
     55          6           0        9.081706    3.287584   -2.623191
     56          6           0       10.855328    1.464279   -2.958257
     57          6           0       12.341207    1.824416   -2.729117
     58          6           0       13.254680    0.689701   -2.280897
     59          6           0       13.804825    0.767218   -0.855974
     60          6           0       15.324716    0.526651   -0.800116
     61          6           0       13.103897   -0.282821    0.119086
     62          6           0       12.879971    0.305759    1.481513
     63          6           0       12.220188   -0.623696    2.471420
     64          6           0       11.258202    0.005053    3.405632
     65          6           0       11.478935   -0.383873    4.872615
     66          6           0        9.842340   -0.226204    2.911677
     67          1           0       -2.275327    3.187245    0.568717
     68          1           0       -8.756420    3.622463    0.201977
     69          1           0       -9.260556   -2.627365   -0.637144
     70          1           0       -0.826384   -1.453213    0.738115
     71          1           0       -0.727654    1.283153   -0.048245
     72          1           0       -0.316638    1.868466    2.021979
     73          1           0        0.130543    0.185248    2.262395
     74          1           0       -1.457866    0.849898    2.826934
     75          1           0       -1.181092   -0.122564   -2.106047
     76          1           0       -1.647291   -1.673229   -1.897263
     77          1           0        0.701623   -0.969018   -2.652975
     78          1           0        0.504414   -2.525218   -1.754396
     79          1           0       -2.625208    5.192469    0.360274
     80          1           0       -3.594487    6.024435    1.630374
     81          1           0       -3.865332    6.426187   -0.006386
     82          1           0       -5.794124    7.448579   -0.116969
     83          1           0       -5.519753    7.280919    1.549158
     84          1           0       -7.131616    7.895375    0.960558
     85          1           0      -10.417999    2.229867   -0.717597
     86          1           0      -10.883044   -0.590048    0.202168
     87          1           0      -10.302744    2.106008    2.074921
     88          1           0      -11.423552    0.795356    1.516867
     89          1           0      -11.637738    2.455439    0.840971
     90          1           0       -9.837374   -0.896561   -2.440511
     91          1           0      -10.605323    0.596557   -2.527490
     92          1           0      -12.336567   -1.538047   -1.258902
     93          1           0      -11.802097   -1.971909   -2.812271
     94          1           0      -12.744547   -0.438310   -2.585428
     95          1           0       -8.453036   -4.836027   -1.120000
     96          1           0       -8.128990   -5.074252    0.627632
     97          1           0       -7.016751   -5.785214   -0.668491
     98          1           0       -2.471987   -3.743219   -1.085146
     99          1           0       -0.434142   -5.014147    2.567183
    100          1           0        0.855618   -4.641093    1.454820
    101          1           0       -0.083061   -6.084347    1.165225
    102          1           0        4.013546   -2.714559    0.563438
    103          1           0        3.735016   -0.984460    0.723877
    104          1           0        5.137877   -1.870591   -1.736139
    105          1           0        5.419680   -0.284555    1.554407
    106          1           0        6.364282    1.007524    0.912582
    107          1           0        7.145018   -0.394019    1.635511
    108          1           0        7.522261   -1.586791   -1.832787
    109          1           0        8.326438   -1.123088   -0.409494
    110          1           0        7.123851    1.245916   -1.713898
    111          1           0        8.082271    0.337651   -2.901139
    112          1           0        9.752896    0.281593   -0.792089
    113          1           0        8.656320    1.536890   -0.248124
    114          1           0       10.536816    2.596675   -1.173670
    115          1           0        8.126398    3.438970   -2.120989
    116          1           0        8.973615    3.077718   -3.686933
    117          1           0        9.622188    4.234186   -2.631197
    118          1           0       10.688160    1.533993   -4.032316
    119          1           0       10.661866    0.400698   -2.819152
    120          1           0       12.513595    2.698347   -2.100360
    121          1           0       12.693882    2.064305   -3.731081
    122          1           0       14.096450    0.607467   -2.967926
    123          1           0       12.796263   -0.286367   -2.441444
    124          1           0       13.707632    1.795154   -0.506025
    125          1           0       15.708437    0.069382    0.112503
    126          1           0       15.851797    1.479103   -0.865500
    127          1           0       15.594126   -0.036598   -1.692505
    128          1           0       13.828859   -1.097867    0.133708
    129          1           0       12.171667   -0.536662   -0.384220
    130          1           0       12.362101    1.261252    1.395524
    131          1           0       13.857588    0.631593    1.837337
    132          1           0       13.124245   -1.033840    2.922488
    133          1           0       11.732923   -1.399650    1.881265
    134          1           0       11.483675    1.070647    3.444677
    135          1           0       12.492242   -0.159373    5.207281
    136          1           0       11.382501   -1.464370    4.772058
    137          1           0       10.794820   -0.070443    5.660912
    138          1           0        9.358411    0.724769    3.132581
    139          1           0        9.458301   -1.100724    3.436872
    140          1           0        9.750640   -0.326293    1.829973
 ---------------------------------------------------------------------

 SCF Done:  E(RZINDO/S) =  -474.794215451     A.U. after   20 cycles

 Excitation energies and oscillator strengths:

 Excited State   1:      Singlet-A      1.2790 eV  969.35 nm  f=0.5783  <S**2>=0.000
     175 ->178         0.18099
     176 ->177         0.66616
 This state for optimization and/or second-order correction.
 Total Energy, E(CIS/TDA) =  -474.747211574
 Copying the excited state density for this state as the 1-particle RhoCI density.

 Excited State   2:      Singlet-A      1.9399 eV  639.14 nm  f=0.0543  <S**2>=0.000
     175 ->177         0.55704
     176 ->178        -0.40768

 Excited State   3:      Singlet-A      2.9008 eV  427.41 nm  f=0.0438  <S**2>=0.000
     168 ->177         0.34745
     168 ->179        -0.44850
     168 ->181         0.15207
     168 ->186         0.16598
     170 ->177         0.11821
     170 ->179        -0.11144
     176 ->178         0.11710

 Excited State   4:      Singlet-A      2.9469 eV  420.72 nm  f=0.2421  <S**2>=0.000
     169 ->181         0.10811
     171 ->177         0.19637
     171 ->178        -0.12412
     171 ->179         0.15044
     171 ->181         0.36230
     171 ->182        -0.10551
     171 ->186        -0.14169
     171 ->187        -0.12955
     175 ->177         0.19389
     176 ->178         0.28673
     176 ->179        -0.12517
     176 ->181        -0.15819

 Excited State   5:      Singlet-A      2.9917 eV  414.43 nm  f=0.7696  <S**2>=0.000
     168 ->179         0.10180
     171 ->177        -0.12674
     171 ->181        -0.24527
     174 ->177        -0.11109
     175 ->177         0.31591
     176 ->178         0.43453

 The electronic state is 1-A.
 Alpha  occ. eigenvalues --   -1.87131  -1.83901  -1.80104  -1.74314  -1.73008
 Alpha  occ. eigenvalues --   -1.70531  -1.67126  -1.62940  -1.59199  -1.58392
 Alpha  occ. eigenvalues --   -1.58014  -1.52213  -1.48910  -1.48291  -1.46520
 Alpha  occ. eigenvalues --   -1.43595  -1.41341  -1.40836  -1.40361  -1.38786
 Alpha  occ. eigenvalues --   -1.36368  -1.34840  -1.33981  -1.30627  -1.29721
 Alpha  occ. eigenvalues --   -1.28735  -1.25578  -1.22361  -1.20982  -1.19012
 Alpha  occ. eigenvalues --   -1.17225  -1.16822  -1.15357  -1.14567  -1.13181
 Alpha  occ. eigenvalues --   -1.12274  -1.11953  -1.09841  -1.05501  -1.04260
 Alpha  occ. eigenvalues --   -1.03617  -1.01465  -0.99680  -0.97974  -0.97299
 Alpha  occ. eigenvalues --   -0.96251  -0.94360  -0.93449  -0.93270  -0.92956
 Alpha  occ. eigenvalues --   -0.90848  -0.90632  -0.88106  -0.87892  -0.85996
 Alpha  occ. eigenvalues --   -0.85189  -0.84970  -0.82759  -0.81185  -0.80541
 Alpha  occ. eigenvalues --   -0.79914  -0.78877  -0.77555  -0.77065  -0.76507
 Alpha  occ. eigenvalues --   -0.76050  -0.75144  -0.74441  -0.74147  -0.73426
 Alpha  occ. eigenvalues --   -0.73357  -0.72588  -0.71784  -0.71379  -0.70661
 Alpha  occ. eigenvalues --   -0.70176  -0.69022  -0.68537  -0.67931  -0.67750
 Alpha  occ. eigenvalues --   -0.67089  -0.66912  -0.66652  -0.65864  -0.65643
 Alpha  occ. eigenvalues --   -0.65113  -0.64882  -0.64845  -0.64566  -0.63876
 Alpha  occ. eigenvalues --   -0.62714  -0.62432  -0.62333  -0.61385  -0.61105
 Alpha  occ. eigenvalues --   -0.60466  -0.59997  -0.59858  -0.59571  -0.59410
 Alpha  occ. eigenvalues --   -0.59002  -0.58603  -0.58592  -0.57842  -0.57467
 Alpha  occ. eigenvalues --   -0.57317  -0.57161  -0.56871  -0.56529  -0.56191
 Alpha  occ. eigenvalues --   -0.55981  -0.55297  -0.55161  -0.55025  -0.54698
 Alpha  occ. eigenvalues --   -0.54521  -0.54358  -0.54050  -0.53655  -0.53225
 Alpha  occ. eigenvalues --   -0.52484  -0.52212  -0.51951  -0.51884  -0.51359
 Alpha  occ. eigenvalues --   -0.51179  -0.50719  -0.50412  -0.50172  -0.50142
 Alpha  occ. eigenvalues --   -0.50125  -0.49979  -0.49569  -0.49125  -0.49035
 Alpha  occ. eigenvalues --   -0.48757  -0.48630  -0.48452  -0.47991  -0.47182
 Alpha  occ. eigenvalues --   -0.47118  -0.46705  -0.46548  -0.46170  -0.45892
 Alpha  occ. eigenvalues --   -0.45510  -0.45336  -0.45231  -0.45111  -0.44319
 Alpha  occ. eigenvalues --   -0.44137  -0.43811  -0.43554  -0.43413  -0.43108
 Alpha  occ. eigenvalues --   -0.42939  -0.42870  -0.42611  -0.41925  -0.41688
 Alpha  occ. eigenvalues --   -0.41255  -0.41142  -0.40699  -0.38922  -0.37957
 Alpha  occ. eigenvalues --   -0.37253  -0.36466  -0.35428  -0.34231  -0.33983
 Alpha  occ. eigenvalues --   -0.33703  -0.32870  -0.31856  -0.31691  -0.25983
 Alpha  occ. eigenvalues --   -0.21083
 Alpha virt. eigenvalues --   -0.07754  -0.01115   0.00002   0.01270   0.02204
 Alpha virt. eigenvalues --    0.02474   0.03017   0.03870   0.04650   0.05254
 Alpha virt. eigenvalues --    0.07286   0.07714   0.08194   0.08478   0.08689

 Mulliken charges:
               1
     1  Mg   0.435331
     2  C   -0.081656
     3  C   -0.074105
     4  C   -0.063634
     5  C   -0.072293
     6  N   -0.313528
     7  C    0.168066
     8  C    0.012309
     9  C   -0.005648
    10  C    0.092506
    11  C   -0.048747
    12  C   -0.020326
    13  C    0.001409
    14  C    0.474667
    15  O   -0.523077
    16  O   -0.264690
    17  N   -0.295193
    18  C    0.062946
    19  C   -0.011986
    20  C   -0.057498
    21  C    0.133378
    22  C   -0.045460
    23  C    0.330091
    24  O   -0.551253
    25  C   -0.023974
    26  N   -0.242904
    27  C    0.104658
    28  C   -0.014023
    29  C    0.003410
    30  C    0.159344
    31  C   -0.057629
    32  C   -0.030209
    33  C   -0.051315
    34  N   -0.316562
    35  C    0.106142
    36  C    0.054690
    37  C   -0.046084
    38  C    0.148033
    39  C   -0.038467
    40  C    0.336966
    41  O   -0.515253
    42  C    0.053153
    43  C    0.504296
    44  O   -0.545245
    45  O   -0.259275
    46  C    0.073249
    47  C    0.099517
    48  C   -0.087467
    49  C   -0.001415
    50  C   -0.043041
    51  C   -0.024536
    52  C   -0.022084
    53  C   -0.039899
    54  C   -0.010916
    55  C   -0.049373
    56  C   -0.035187
    57  C   -0.034765
    58  C   -0.031383
    59  C   -0.022748
    60  C   -0.060694
    61  C   -0.035511
    62  C   -0.030717
    63  C   -0.026439
    64  C    0.001620
    65  C   -0.061984
    66  C   -0.055277
    67  H    0.023977
    68  H    0.038257
    69  H    0.032097
    70  H    0.056177
    71  H    0.021136
    72  H    0.013357
    73  H    0.035769
    74  H    0.024985
    75  H    0.032487
    76  H    0.013021
    77  H    0.042794
    78  H    0.043944
    79  H    0.029334
    80  H    0.027110
    81  H    0.021034
    82  H    0.035132
    83  H    0.042914
    84  H    0.034883
    85  H    0.031465
    86  H    0.030845
    87  H    0.039775
    88  H    0.021622
    89  H    0.028583
    90  H    0.017871
    91  H    0.023522
    92  H    0.017872
    93  H    0.019719
    94  H    0.026615
    95  H    0.026411
    96  H    0.045013
    97  H    0.039959
    98  H    0.037917
    99  H    0.062316
   100  H    0.028042
   101  H    0.038742
   102  H    0.051954
   103  H    0.056818
   104  H    0.030832
   105  H    0.012769
   106  H    0.035104
   107  H    0.024889
   108  H    0.007220
   109  H    0.023390
   110  H    0.020714
   111  H    0.024007
   112  H    0.023341
   113  H    0.010526
   114  H    0.015604
   115  H    0.022682
   116  H    0.020151
   117  H    0.014883
   118  H    0.021004
   119  H    0.013316
   120  H    0.027442
   121  H    0.007967
   122  H    0.010309
   123  H    0.014395
   124  H    0.019755
   125  H    0.020216
   126  H    0.007519
   127  H    0.019112
   128  H    0.026296
   129  H    0.020675
   130  H    0.013431
   131  H    0.011661
   132  H    0.014485
   133  H    0.017110
   134  H    0.010188
   135  H    0.016196
   136  H    0.009655
   137  H    0.023835
   138  H    0.015376
   139  H    0.028540
   140  H    0.019629
 Sum of Mulliken charges =  -0.00000

 Dipole moment (field-independent basis, Debye):
    X=              3.9888    Y=              0.7439    Z=             -6.3890  Tot=              7.5686
 N-N= 4.315754957564D+03 E-N= 0.000000000000D+00  KE=-9.307026611566D+03
 Leave Link  601 at Thu Apr 28 10:19:18 2022, MaxMem=  6710886400 cpu:               0.8 elap:               0.0
 (Enter /sw/apps/gaussian-16.0/g16/l9999.exe)
 1\1\GINC-BP1-COMPUTE134\SP\RZINDO CIS\STO-3G\C55H74Mg1N4O6\OF15641\28-
 Apr-2022\0\\#p ZINDO=(nstates=5)\\step_151_chromophore_19 ZINDO\\0,1\M
 g,0,25.731,50.372,26.701\C,0,23.685,51.756,29.32\C,0,27.9,49.434,29.25
 8\C,0,27.811,49.768,24.412\C,0,23.519,52.002,24.447\N,0,25.734,50.632,
 29.056\C,0,24.76,51.072,29.882\C,0,24.938,50.713,31.358\C,0,26.502,50.
 326,31.302\C,0,26.779,50.061,29.779\C,0,27.556,51.289,32.005\C,0,24.04
 6,49.509,31.687\C,0,23.608,49.381,33.199\C,0,24.488,49.829,34.363\O,0,

 Normal termination of Gaussian 16 at Thu Apr 28 10:19:19 2022.
