 Gaussian 16, Revision A.03,
 Gaussian 16:  ES64L-G16RevA.03 25-Dec-2016

 ------------------------------
 #p blyp/Def2SVP td=(nstates=5)
 ------------------------------

 ---------------------------------------------------
 step_1651_chromophore_16 TDDFT with blyp functional
 ---------------------------------------------------
 Symbolic Z-matrix:
 Charge =  0 Multiplicity = 1

                         Standard orientation:
 ---------------------------------------------------------------------
 Center     Atomic      Atomic             Coordinates (Angstroms)
 Number     Number       Type             X           Y           Z
 ---------------------------------------------------------------------
      1         12           0        6.078871    0.417756    0.260951
      2          6           0        3.980562   -2.225128    0.127819
      3          6           0        3.497110    2.447107   -0.853975
      4          6           0        8.201239    3.198350   -0.229829
      5          6           0        8.792211   -1.617648    0.349919
      6          7           0        3.976927    0.148278   -0.275566
      7          6           0        3.281221   -0.994643   -0.198188
      8          6           0        1.816874   -0.853766   -0.434905
      9          6           0        1.697835    0.612874   -0.866029
     10          6           0        3.161342    1.111173   -0.726436
     11          6           0        1.083489    0.897860   -2.241836
     12          6           0        0.883326   -1.289588    0.790466
     13          6           0       -0.170016   -2.278890    0.382949
     14          6           0       -1.645095   -2.185621    0.912672
     15          8           0       -2.053453   -1.698528    1.948821
     16          8           0       -2.425165   -2.953858    0.081279
     17          7           0        5.830524    2.638308   -0.082939
     18          6           0        4.711628    3.194935   -0.571393
     19          6           0        4.945413    4.657649   -0.629065
     20          6           0        6.267854    4.927536   -0.311849
     21          6           0        6.827882    3.538608   -0.272633
     22          6           0        3.952698    5.601361   -1.113819
     23          6           0        7.035064    6.176557   -0.193311
     24          8           0        8.257610    6.181265   -0.136077
     25          6           0        6.368328    7.529102   -0.076310
     26          7           0        8.183399    0.765714   -0.001935
     27          6           0        8.827650    1.921874   -0.063751
     28          6           0       10.331700    1.807836    0.334364
     29          6           0       10.461804    0.285108    0.435819
     30          6           0        9.058141   -0.273364    0.185941
     31          6           0       11.268154    2.455727   -0.770374
     32          6           0       11.129102   -0.145892    1.760440
     33          6           0       10.281942   -0.318904    3.005547
     34          7           0        6.334858   -1.477178    0.218680
     35          6           0        7.496742   -2.218629    0.318261
     36          6           0        7.166528   -3.642644    0.420270
     37          6           0        5.760449   -3.735400    0.406215
     38          6           0        5.350719   -2.375410    0.310297
     39          6           0        8.140672   -4.820612    0.624231
     40          6           0        4.557824   -4.526995    0.533126
     41          8           0        4.450464   -5.762004    0.696179
     42          6           0        3.345651   -3.629321    0.211223
     43          6           0        2.781403   -4.019724   -1.103450
     44          8           0        3.299075   -3.740333   -2.207884
     45          8           0        1.556466   -4.639894   -1.018070
     46          6           0        0.686127   -4.695292   -2.176946
     47          6           0       -3.829821   -3.240291    0.509278
     48          6           0       -4.777392   -2.170875    0.031711
     49          6           0       -6.125606   -2.264921   -0.340247
     50          6           0       -6.934905   -3.478117   -0.184838
     51          6           0       -6.926077   -1.103169   -0.965378
     52          6           0       -7.644871   -0.247321    0.083052
     53          6           0       -9.146420   -0.117771   -0.218331
     54          6           0       -9.386663    1.162577   -1.013585
     55          6           0       -9.718001    2.335464    0.000184
     56          6           0      -10.524676    1.045373   -2.032756
     57          6           0      -11.810894    0.411486   -1.584663
     58          6           0      -13.050971    1.123939   -2.110460
     59          6           0      -14.314299    0.699424   -1.377551
     60          6           0      -15.420176    0.119277   -2.292629
     61          6           0      -14.802348    1.701447   -0.293398
     62          6           0      -14.667815    1.117543    1.192823
     63          6           0      -13.955267    2.149176    2.006733
     64          6           0      -13.148593    1.452537    3.169611
     65          6           0      -11.759820    0.883745    2.700864
     66          6           0      -13.044687    2.504019    4.280898
     67          1           0        2.592114    3.025629   -1.053615
     68          1           0        8.943259    3.999433   -0.198588
     69          1           0        9.637841   -2.297342    0.467021
     70          1           0        1.570716   -1.461881   -1.305197
     71          1           0        1.110392    1.132091   -0.107559
     72          1           0        1.700068    1.489751   -2.918583
     73          1           0        0.338702    1.673023   -2.060185
     74          1           0        0.586067    0.076842   -2.758586
     75          1           0        0.330602   -0.445348    1.203852
     76          1           0        1.549926   -1.636640    1.579458
     77          1           0        0.224632   -3.151134    0.904554
     78          1           0       -0.141730   -2.382300   -0.702011
     79          1           0        3.214300    5.091688   -1.731003
     80          1           0        4.285679    6.421195   -1.749886
     81          1           0        3.417645    6.156444   -0.342627
     82          1           0        7.036238    8.323858    0.253833
     83          1           0        5.556879    7.426041    0.644458
     84          1           0        6.005898    7.867826   -1.046952
     85          1           0       10.423126    2.202043    1.346730
     86          1           0       11.077252   -0.211907   -0.313330
     87          1           0       10.687277    2.805390   -1.623800
     88          1           0       11.913028    1.632429   -1.078348
     89          1           0       11.957545    3.172463   -0.324937
     90          1           0       11.909989    0.568706    2.018890
     91          1           0       11.635137   -1.084345    1.534295
     92          1           0        9.251503   -0.018711    2.816878
     93          1           0       10.684819    0.377274    3.741738
     94          1           0       10.353548   -1.327834    3.411823
     95          1           0        8.673802   -4.669742    1.562892
     96          1           0        8.823999   -4.735750   -0.221433
     97          1           0        7.606738   -5.770278    0.669331
     98          1           0        2.589677   -3.863186    0.961231
     99          1           0        0.623543   -3.840049   -2.850439
    100          1           0       -0.350910   -4.742626   -1.845422
    101          1           0        0.838876   -5.638344   -2.700773
    102          1           0       -3.895541   -3.269395    1.597063
    103          1           0       -4.118823   -4.228961    0.155138
    104          1           0       -4.439152   -1.143263   -0.097972
    105          1           0       -7.735940   -3.203071    0.500499
    106          1           0       -6.380070   -4.323688    0.220670
    107          1           0       -7.326045   -3.703234   -1.177351
    108          1           0       -7.714268   -1.447969   -1.635358
    109          1           0       -6.258802   -0.429277   -1.503317
    110          1           0       -7.144838    0.719317    0.015266
    111          1           0       -7.611148   -0.513750    1.139315
    112          1           0       -9.644030   -0.248427    0.742765
    113          1           0       -9.516486   -0.941681   -0.829523
    114          1           0       -8.531990    1.363972   -1.660495
    115          1           0      -10.601011    2.922448   -0.253484
    116          1           0       -8.810527    2.936999    0.039900
    117          1           0       -9.758731    1.922275    1.007660
    118          1           0      -10.110259    0.443432   -2.841221
    119          1           0      -10.734059    2.067259   -2.349697
    120          1           0      -11.932367    0.316837   -0.505623
    121          1           0      -11.807992   -0.576390   -2.044168
    122          1           0      -13.159088    0.892204   -3.169579
    123          1           0      -12.878407    2.188698   -1.947147
    124          1           0      -14.017386   -0.193196   -0.825114
    125          1           0      -15.222855    0.045476   -3.362248
    126          1           0      -16.281841    0.785338   -2.331436
    127          1           0      -15.702823   -0.900419   -2.029753
    128          1           0      -15.881192    1.793582   -0.421689
    129          1           0      -14.393014    2.704382   -0.415895
    130          1           0      -14.264044    0.104985    1.206693
    131          1           0      -15.647777    0.990538    1.651867
    132          1           0      -14.705485    2.755665    2.513572
    133          1           0      -13.369756    2.766055    1.324756
    134          1           0      -13.669299    0.616974    3.635759
    135          1           0      -11.788680   -0.203138    2.634210
    136          1           0      -10.970734    1.186912    3.388787
    137          1           0      -11.597002    1.181763    1.665283
    138          1           0      -13.983239    2.716727    4.794677
    139          1           0      -12.630561    3.418104    3.858028
    140          1           0      -12.394949    2.090739    5.051712
 ---------------------------------------------------------------------

 SCF Done:  E(RB-LYP) =  -3007.35191604     A.U. after   21 cycles

 Excitation energies and oscillator strengths:

 Excited State   1:      Singlet-A      1.7803 eV  696.43 nm  f=0.3230  <S**2>=0.000
     245 -> 248        0.18492
     246 -> 247        0.68935
     246 <- 247       -0.15202
 This state for optimization and/or second-order correction.
 Total Energy, E(TD-HF/TD-DFT) =  -3007.28649184
 Copying the excited state density for this state as the 1-particle RhoCI density.

 Excited State   2:      Singlet-A      1.9847 eV  624.70 nm  f=0.0001  <S**2>=0.000
     244 -> 247        0.70479

 Excited State   3:      Singlet-A      2.0300 eV  610.76 nm  f=0.0444  <S**2>=0.000
     245 -> 247        0.63621
     246 -> 248       -0.27386
     246 -> 249        0.10863

 Excited State   4:      Singlet-A      2.0656 eV  600.23 nm  f=0.0007  <S**2>=0.000
     243 -> 247        0.70601

 Excited State   5:      Singlet-A      2.2145 eV  559.87 nm  f=0.0000  <S**2>=0.000
     242 -> 247        0.70708

 The electronic state is 1-A.
 Alpha  occ. eigenvalues --  -46.27428 -18.82417 -18.82214 -18.77384 -18.76231
 Alpha  occ. eigenvalues --  -18.75430 -18.75144 -14.03398 -14.03016 -14.01208
 Alpha  occ. eigenvalues --  -14.01151 -10.04692 -10.04223  -9.99750  -9.99642
 Alpha  occ. eigenvalues --   -9.98722  -9.97927  -9.96624  -9.96255  -9.96220
 Alpha  occ. eigenvalues --   -9.96151  -9.95910  -9.95882  -9.95833  -9.94564
 Alpha  occ. eigenvalues --   -9.94406  -9.94172  -9.94145  -9.93942  -9.93892
 Alpha  occ. eigenvalues --   -9.93761  -9.93754  -9.93708  -9.93428  -9.93358
 Alpha  occ. eigenvalues --   -9.92842  -9.92814  -9.92746  -9.92553  -9.92534
 Alpha  occ. eigenvalues --   -9.92472  -9.92360  -9.92348  -9.92243  -9.92239
 Alpha  occ. eigenvalues --   -9.92216  -9.92132  -9.91988  -9.91912  -9.91884
 Alpha  occ. eigenvalues --   -9.91673  -9.91581  -9.91410  -9.91369  -9.91295
 Alpha  occ. eigenvalues --   -9.91172  -9.91018  -9.90977  -9.90930  -9.90889
 Alpha  occ. eigenvalues --   -9.90800  -9.90677  -9.90618  -9.90593  -9.90559
 Alpha  occ. eigenvalues --   -9.90488  -2.92242  -1.72627  -1.72102  -1.72006
 Alpha  occ. eigenvalues --   -0.97658  -0.97306  -0.91486  -0.89996  -0.89898
 Alpha  occ. eigenvalues --   -0.88478  -0.87731  -0.86777  -0.86456  -0.85824
 Alpha  occ. eigenvalues --   -0.75662  -0.74209  -0.73499  -0.73146  -0.72616
 Alpha  occ. eigenvalues --   -0.72187  -0.71516  -0.71276  -0.71041  -0.70736
 Alpha  occ. eigenvalues --   -0.69722  -0.69499  -0.68430  -0.67698  -0.67130
 Alpha  occ. eigenvalues --   -0.66641  -0.66021  -0.65587  -0.65266  -0.64388
 Alpha  occ. eigenvalues --   -0.64188  -0.62709  -0.62626  -0.62062  -0.61108
 Alpha  occ. eigenvalues --   -0.60428  -0.60347  -0.59787  -0.59691  -0.58786
 Alpha  occ. eigenvalues --   -0.58504  -0.57527  -0.56621  -0.55537  -0.55130
 Alpha  occ. eigenvalues --   -0.54409  -0.54250  -0.53461  -0.52380  -0.52048
 Alpha  occ. eigenvalues --   -0.51653  -0.51181  -0.50783  -0.50241  -0.49955
 Alpha  occ. eigenvalues --   -0.49385  -0.48801  -0.48678  -0.47826  -0.46730
 Alpha  occ. eigenvalues --   -0.46496  -0.46080  -0.45933  -0.45121  -0.44563
 Alpha  occ. eigenvalues --   -0.44276  -0.43881  -0.42877  -0.42755  -0.42549
 Alpha  occ. eigenvalues --   -0.42390  -0.42219  -0.41810  -0.41511  -0.41289
 Alpha  occ. eigenvalues --   -0.41165  -0.40949  -0.40674  -0.40291  -0.40153
 Alpha  occ. eigenvalues --   -0.39999  -0.39828  -0.39554  -0.39473  -0.39408
 Alpha  occ. eigenvalues --   -0.39395  -0.39163  -0.38856  -0.38482  -0.38216
 Alpha  occ. eigenvalues --   -0.38140  -0.38031  -0.37850  -0.37539  -0.37343
 Alpha  occ. eigenvalues --   -0.37297  -0.36930  -0.36883  -0.36755  -0.36557
 Alpha  occ. eigenvalues --   -0.36164  -0.36084  -0.35911  -0.35732  -0.35435
 Alpha  occ. eigenvalues --   -0.35394  -0.35082  -0.34837  -0.34709  -0.34685
 Alpha  occ. eigenvalues --   -0.34537  -0.34440  -0.34344  -0.34322  -0.34133
 Alpha  occ. eigenvalues --   -0.33966  -0.33771  -0.33672  -0.33312  -0.33206
 Alpha  occ. eigenvalues --   -0.33011  -0.32897  -0.32813  -0.32493  -0.32422
 Alpha  occ. eigenvalues --   -0.32026  -0.31868  -0.31819  -0.31543  -0.31359
 Alpha  occ. eigenvalues --   -0.31244  -0.31175  -0.30956  -0.30828  -0.30751
 Alpha  occ. eigenvalues --   -0.30705  -0.30505  -0.30370  -0.30289  -0.30043
 Alpha  occ. eigenvalues --   -0.29985  -0.29847  -0.29061  -0.29054  -0.29020
 Alpha  occ. eigenvalues --   -0.28897  -0.28459  -0.28370  -0.28234  -0.27741
 Alpha  occ. eigenvalues --   -0.27709  -0.27425  -0.26912  -0.26783  -0.26778
 Alpha  occ. eigenvalues --   -0.26129  -0.25898  -0.25780  -0.25563  -0.25346
 Alpha  occ. eigenvalues --   -0.24862  -0.24819  -0.24534  -0.23802  -0.23378
 Alpha  occ. eigenvalues --   -0.23313  -0.22401  -0.21877  -0.21350  -0.21111
 Alpha  occ. eigenvalues --   -0.20537  -0.19341  -0.18673  -0.18371  -0.17271
 Alpha  occ. eigenvalues --   -0.15381
 Alpha virt. eigenvalues --   -0.11203  -0.07087  -0.06566  -0.05013  -0.03660
 Alpha virt. eigenvalues --   -0.03328  -0.02791  -0.02336  -0.01481   0.00099
 Alpha virt. eigenvalues --    0.01048   0.01644   0.01785   0.02144   0.02719

 Mulliken charges:
               1
     1  Mg   0.733380
     2  C    0.005372
     3  C   -0.059534
     4  C   -0.032077
     5  C   -0.100808
     6  N   -0.185678
     7  C   -0.101779
     8  C    0.053593
     9  C   -0.006521
    10  C   -0.004413
    11  C    0.135316
    12  C    0.142413
    13  C    0.072770
    14  C    0.084622
    15  O   -0.175953
    16  O   -0.282466
    17  N   -0.218924
    18  C    0.125921
    19  C   -0.103594
    20  C    0.070643
    21  C    0.087374
    22  C    0.146290
    23  C   -0.092389
    24  O   -0.165267
    25  C    0.128430
    26  N   -0.197539
    27  C   -0.051000
    28  C    0.023352
    29  C    0.045520
    30  C    0.044275
    31  C    0.144129
    32  C    0.038938
    33  C    0.089057
    34  N   -0.325100
    35  C    0.145997
    36  C   -0.221562
    37  C    0.120781
    38  C    0.076481
    39  C    0.174820
    40  C   -0.068678
    41  O   -0.162862
    42  C    0.103535
    43  C    0.115865
    44  O   -0.208516
    45  O   -0.265111
    46  C    0.219873
    47  C    0.344432
    48  C   -0.085385
    49  C   -0.192929
    50  C    0.165335
    51  C    0.145822
    52  C    0.069240
    53  C    0.075213
    54  C   -0.081511
    55  C    0.126102
    56  C    0.100177
    57  C    0.027516
    58  C    0.131857
    59  C   -0.064676
    60  C    0.090192
    61  C    0.118174
    62  C    0.060124
    63  C    0.095915
    64  C   -0.094331
    65  C    0.084481
    66  C    0.092284
    67  H   -0.066283
    68  H   -0.042458
    69  H   -0.064333
    70  H   -0.018603
    71  H   -0.014353
    72  H   -0.008814
    73  H   -0.025186
    74  H    0.002847
    75  H   -0.016721
    76  H   -0.018258
    77  H    0.027718
    78  H    0.003965
    79  H   -0.011257
    80  H   -0.016522
    81  H   -0.006218
    82  H   -0.009108
    83  H    0.000156
    84  H    0.008286
    85  H   -0.010162
    86  H   -0.031858
    87  H    0.014532
    88  H   -0.022547
    89  H   -0.002630
    90  H   -0.022719
    91  H   -0.030159
    92  H    0.000042
    93  H   -0.017219
    94  H   -0.003356
    95  H    0.001738
    96  H    0.003987
    97  H    0.013360
    98  H   -0.016343
    99  H    0.014884
   100  H    0.006694
   101  H    0.016838
   102  H    0.007809
   103  H    0.001746
   104  H   -0.042924
   105  H   -0.000992
   106  H   -0.021357
   107  H   -0.003076
   108  H   -0.029857
   109  H   -0.027660
   110  H   -0.029032
   111  H   -0.025426
   112  H   -0.027651
   113  H   -0.040599
   114  H   -0.039726
   115  H   -0.003845
   116  H   -0.025922
   117  H   -0.015837
   118  H   -0.043043
   119  H   -0.036219
   120  H   -0.015251
   121  H   -0.033034
   122  H   -0.041537
   123  H   -0.041627
   124  H   -0.038345
   125  H   -0.033342
   126  H   -0.023838
   127  H   -0.013052
   128  H   -0.045643
   129  H   -0.024608
   130  H   -0.026049
   131  H   -0.037238
   132  H   -0.035491
   133  H   -0.016307
   134  H   -0.039430
   135  H   -0.015333
   136  H   -0.009708
   137  H    0.002316
   138  H   -0.013492
   139  H   -0.012835
   140  H   -0.029490
 Sum of Mulliken charges =  -0.00000

 Dipole moment (field-independent basis, Debye):
    X=             -3.5397    Y=              2.4216    Z=              0.1038  Tot=              4.2901
 Quadrupole moment (field-independent basis, Debye-Ang):
   XX=           -374.4098   YY=           -428.7908   ZZ=           -410.1964
   XY=              8.4406   XZ=             17.6571   YZ=             -1.3091

 Normal termination of Gaussian 16 at Wed May  4 11:40:15 2022.
