 Gaussian 16, Revision A.03,
 Gaussian 16:  ES64L-G16RevA.03 25-Dec-2016

 -----------------------------------
 #p cam-b3lyp/Def2SVP td=(nstates=5)
 -----------------------------------

 --------------------------------------------------------
 step_1651_chromophore_16 TDDFT with cam-b3lyp functional
 --------------------------------------------------------
 Symbolic Z-matrix:
 Charge =  0 Multiplicity = 1

                         Standard orientation:
 ---------------------------------------------------------------------
 Center     Atomic      Atomic             Coordinates (Angstroms)
 Number     Number       Type             X           Y           Z
 ---------------------------------------------------------------------
      1         12           0        6.078871    0.417756    0.260951
      2          6           0        3.980562   -2.225128    0.127819
      3          6           0        3.497110    2.447107   -0.853975
      4          6           0        8.201239    3.198350   -0.229829
      5          6           0        8.792211   -1.617648    0.349919
      6          7           0        3.976927    0.148278   -0.275566
      7          6           0        3.281221   -0.994643   -0.198188
      8          6           0        1.816874   -0.853766   -0.434905
      9          6           0        1.697835    0.612874   -0.866029
     10          6           0        3.161342    1.111173   -0.726436
     11          6           0        1.083489    0.897860   -2.241836
     12          6           0        0.883326   -1.289588    0.790466
     13          6           0       -0.170016   -2.278890    0.382949
     14          6           0       -1.645095   -2.185621    0.912672
     15          8           0       -2.053453   -1.698528    1.948821
     16          8           0       -2.425165   -2.953858    0.081279
     17          7           0        5.830524    2.638308   -0.082939
     18          6           0        4.711628    3.194935   -0.571393
     19          6           0        4.945413    4.657649   -0.629065
     20          6           0        6.267854    4.927536   -0.311849
     21          6           0        6.827882    3.538608   -0.272633
     22          6           0        3.952698    5.601361   -1.113819
     23          6           0        7.035064    6.176557   -0.193311
     24          8           0        8.257610    6.181265   -0.136077
     25          6           0        6.368328    7.529102   -0.076310
     26          7           0        8.183399    0.765714   -0.001935
     27          6           0        8.827650    1.921874   -0.063751
     28          6           0       10.331700    1.807836    0.334364
     29          6           0       10.461804    0.285108    0.435819
     30          6           0        9.058141   -0.273364    0.185941
     31          6           0       11.268154    2.455727   -0.770374
     32          6           0       11.129102   -0.145892    1.760440
     33          6           0       10.281942   -0.318904    3.005547
     34          7           0        6.334858   -1.477178    0.218680
     35          6           0        7.496742   -2.218629    0.318261
     36          6           0        7.166528   -3.642644    0.420270
     37          6           0        5.760449   -3.735400    0.406215
     38          6           0        5.350719   -2.375410    0.310297
     39          6           0        8.140672   -4.820612    0.624231
     40          6           0        4.557824   -4.526995    0.533126
     41          8           0        4.450464   -5.762004    0.696179
     42          6           0        3.345651   -3.629321    0.211223
     43          6           0        2.781403   -4.019724   -1.103450
     44          8           0        3.299075   -3.740333   -2.207884
     45          8           0        1.556466   -4.639894   -1.018070
     46          6           0        0.686127   -4.695292   -2.176946
     47          6           0       -3.829821   -3.240291    0.509278
     48          6           0       -4.777392   -2.170875    0.031711
     49          6           0       -6.125606   -2.264921   -0.340247
     50          6           0       -6.934905   -3.478117   -0.184838
     51          6           0       -6.926077   -1.103169   -0.965378
     52          6           0       -7.644871   -0.247321    0.083052
     53          6           0       -9.146420   -0.117771   -0.218331
     54          6           0       -9.386663    1.162577   -1.013585
     55          6           0       -9.718001    2.335464    0.000184
     56          6           0      -10.524676    1.045373   -2.032756
     57          6           0      -11.810894    0.411486   -1.584663
     58          6           0      -13.050971    1.123939   -2.110460
     59          6           0      -14.314299    0.699424   -1.377551
     60          6           0      -15.420176    0.119277   -2.292629
     61          6           0      -14.802348    1.701447   -0.293398
     62          6           0      -14.667815    1.117543    1.192823
     63          6           0      -13.955267    2.149176    2.006733
     64          6           0      -13.148593    1.452537    3.169611
     65          6           0      -11.759820    0.883745    2.700864
     66          6           0      -13.044687    2.504019    4.280898
     67          1           0        2.592114    3.025629   -1.053615
     68          1           0        8.943259    3.999433   -0.198588
     69          1           0        9.637841   -2.297342    0.467021
     70          1           0        1.570716   -1.461881   -1.305197
     71          1           0        1.110392    1.132091   -0.107559
     72          1           0        1.700068    1.489751   -2.918583
     73          1           0        0.338702    1.673023   -2.060185
     74          1           0        0.586067    0.076842   -2.758586
     75          1           0        0.330602   -0.445348    1.203852
     76          1           0        1.549926   -1.636640    1.579458
     77          1           0        0.224632   -3.151134    0.904554
     78          1           0       -0.141730   -2.382300   -0.702011
     79          1           0        3.214300    5.091688   -1.731003
     80          1           0        4.285679    6.421195   -1.749886
     81          1           0        3.417645    6.156444   -0.342627
     82          1           0        7.036238    8.323858    0.253833
     83          1           0        5.556879    7.426041    0.644458
     84          1           0        6.005898    7.867826   -1.046952
     85          1           0       10.423126    2.202043    1.346730
     86          1           0       11.077252   -0.211907   -0.313330
     87          1           0       10.687277    2.805390   -1.623800
     88          1           0       11.913028    1.632429   -1.078348
     89          1           0       11.957545    3.172463   -0.324937
     90          1           0       11.909989    0.568706    2.018890
     91          1           0       11.635137   -1.084345    1.534295
     92          1           0        9.251503   -0.018711    2.816878
     93          1           0       10.684819    0.377274    3.741738
     94          1           0       10.353548   -1.327834    3.411823
     95          1           0        8.673802   -4.669742    1.562892
     96          1           0        8.823999   -4.735750   -0.221433
     97          1           0        7.606738   -5.770278    0.669331
     98          1           0        2.589677   -3.863186    0.961231
     99          1           0        0.623543   -3.840049   -2.850439
    100          1           0       -0.350910   -4.742626   -1.845422
    101          1           0        0.838876   -5.638344   -2.700773
    102          1           0       -3.895541   -3.269395    1.597063
    103          1           0       -4.118823   -4.228961    0.155138
    104          1           0       -4.439152   -1.143263   -0.097972
    105          1           0       -7.735940   -3.203071    0.500499
    106          1           0       -6.380070   -4.323688    0.220670
    107          1           0       -7.326045   -3.703234   -1.177351
    108          1           0       -7.714268   -1.447969   -1.635358
    109          1           0       -6.258802   -0.429277   -1.503317
    110          1           0       -7.144838    0.719317    0.015266
    111          1           0       -7.611148   -0.513750    1.139315
    112          1           0       -9.644030   -0.248427    0.742765
    113          1           0       -9.516486   -0.941681   -0.829523
    114          1           0       -8.531990    1.363972   -1.660495
    115          1           0      -10.601011    2.922448   -0.253484
    116          1           0       -8.810527    2.936999    0.039900
    117          1           0       -9.758731    1.922275    1.007660
    118          1           0      -10.110259    0.443432   -2.841221
    119          1           0      -10.734059    2.067259   -2.349697
    120          1           0      -11.932367    0.316837   -0.505623
    121          1           0      -11.807992   -0.576390   -2.044168
    122          1           0      -13.159088    0.892204   -3.169579
    123          1           0      -12.878407    2.188698   -1.947147
    124          1           0      -14.017386   -0.193196   -0.825114
    125          1           0      -15.222855    0.045476   -3.362248
    126          1           0      -16.281841    0.785338   -2.331436
    127          1           0      -15.702823   -0.900419   -2.029753
    128          1           0      -15.881192    1.793582   -0.421689
    129          1           0      -14.393014    2.704382   -0.415895
    130          1           0      -14.264044    0.104985    1.206693
    131          1           0      -15.647777    0.990538    1.651867
    132          1           0      -14.705485    2.755665    2.513572
    133          1           0      -13.369756    2.766055    1.324756
    134          1           0      -13.669299    0.616974    3.635759
    135          1           0      -11.788680   -0.203138    2.634210
    136          1           0      -10.970734    1.186912    3.388787
    137          1           0      -11.597002    1.181763    1.665283
    138          1           0      -13.983239    2.716727    4.794677
    139          1           0      -12.630561    3.418104    3.858028
    140          1           0      -12.394949    2.090739    5.051712
 ---------------------------------------------------------------------

 SCF Done:  E(RCAM-B3LYP) =  -3007.15297349     A.U. after   19 cycles

 Excitation energies and oscillator strengths:

 Excited State   1:      Singlet-A      1.7071 eV  726.30 nm  f=0.3971  <S**2>=0.000
     245 -> 248        0.18583
     246 -> 247        0.68369
     245 <- 248        0.10775
 This state for optimization and/or second-order correction.
 Total Energy, E(TD-HF/TD-DFT) =  -3007.09024022
 Copying the excited state density for this state as the 1-particle RhoCI density.

 Excited State   2:      Singlet-A      2.2660 eV  547.16 nm  f=0.0533  <S**2>=0.000
     245 -> 247        0.60716
     246 -> 248       -0.35008

 Excited State   3:      Singlet-A      3.3579 eV  369.23 nm  f=0.5643  <S**2>=0.000
     243 -> 247        0.25148
     245 -> 247        0.30721
     246 -> 248        0.56982
     245 <- 247       -0.10204

 Excited State   4:      Singlet-A      3.5389 eV  350.35 nm  f=0.1140  <S**2>=0.000
     239 -> 247       -0.26238
     239 -> 249        0.17889
     239 -> 251       -0.15975
     240 -> 247       -0.29399
     240 -> 249        0.18899
     240 -> 251       -0.13404
     243 -> 247        0.36631
     245 -> 247       -0.12067
     246 -> 248       -0.16073

 Excited State   5:      Singlet-A      3.5700 eV  347.29 nm  f=0.0012  <S**2>=0.000
     240 -> 247        0.10280
     241 -> 247        0.49662
     241 -> 249        0.36290
     241 -> 251        0.24749

 The electronic state is 1-A.
 Alpha  occ. eigenvalues --  -46.88942 -19.25281 -19.25053 -19.20333 -19.19236
 Alpha  occ. eigenvalues --  -19.18725 -19.18406 -14.42161 -14.41829 -14.39757
 Alpha  occ. eigenvalues --  -14.39433 -10.40000 -10.39633 -10.35137 -10.34923
 Alpha  occ. eigenvalues --  -10.32817 -10.31817 -10.30913 -10.30912 -10.30896
 Alpha  occ. eigenvalues --  -10.30858 -10.30615 -10.30002 -10.29668 -10.28982
 Alpha  occ. eigenvalues --  -10.28647 -10.28541 -10.28191 -10.28121 -10.28009
 Alpha  occ. eigenvalues --  -10.27814 -10.27741 -10.27736 -10.27579 -10.27300
 Alpha  occ. eigenvalues --  -10.27185 -10.26940 -10.26706 -10.26683 -10.26609
 Alpha  occ. eigenvalues --  -10.26293 -10.26216 -10.26126 -10.26116 -10.25948
 Alpha  occ. eigenvalues --  -10.25857 -10.25845 -10.25845 -10.25840 -10.25722
 Alpha  occ. eigenvalues --  -10.25658 -10.25076 -10.25060 -10.25059 -10.25057
 Alpha  occ. eigenvalues --  -10.24873 -10.24657 -10.24654 -10.24590 -10.24532
 Alpha  occ. eigenvalues --  -10.24451 -10.24308 -10.24235 -10.24227 -10.24148
 Alpha  occ. eigenvalues --  -10.24137  -3.17664  -1.92521  -1.92088  -1.92023
 Alpha  occ. eigenvalues --   -1.16091  -1.15690  -1.10239  -1.08044  -1.07799
 Alpha  occ. eigenvalues --   -1.06311  -1.05459  -1.04446  -1.04096  -1.03350
 Alpha  occ. eigenvalues --   -0.92638  -0.91127  -0.90283  -0.89959  -0.89274
 Alpha  occ. eigenvalues --   -0.88909  -0.88541  -0.87999  -0.87640  -0.87263
 Alpha  occ. eigenvalues --   -0.86025  -0.85894  -0.84717  -0.83799  -0.83275
 Alpha  occ. eigenvalues --   -0.82661  -0.82067  -0.81650  -0.81290  -0.80231
 Alpha  occ. eigenvalues --   -0.80029  -0.78614  -0.78162  -0.77514  -0.76479
 Alpha  occ. eigenvalues --   -0.75785  -0.75729  -0.75031  -0.75011  -0.74011
 Alpha  occ. eigenvalues --   -0.73526  -0.72469  -0.71501  -0.70330  -0.69709
 Alpha  occ. eigenvalues --   -0.69106  -0.68892  -0.68101  -0.66751  -0.66241
 Alpha  occ. eigenvalues --   -0.65959  -0.65175  -0.64676  -0.64167  -0.64019
 Alpha  occ. eigenvalues --   -0.63028  -0.62576  -0.62371  -0.61596  -0.60349
 Alpha  occ. eigenvalues --   -0.60295  -0.59554  -0.59440  -0.58432  -0.58069
 Alpha  occ. eigenvalues --   -0.57753  -0.57311  -0.55973  -0.55803  -0.55530
 Alpha  occ. eigenvalues --   -0.55462  -0.55201  -0.54831  -0.54544  -0.54276
 Alpha  occ. eigenvalues --   -0.54066  -0.53873  -0.53484  -0.53260  -0.52920
 Alpha  occ. eigenvalues --   -0.52743  -0.52605  -0.52562  -0.52396  -0.51972
 Alpha  occ. eigenvalues --   -0.51904  -0.51650  -0.51315  -0.50940  -0.50578
 Alpha  occ. eigenvalues --   -0.50478  -0.50251  -0.50195  -0.50032  -0.49955
 Alpha  occ. eigenvalues --   -0.49519  -0.49247  -0.49089  -0.48940  -0.48668
 Alpha  occ. eigenvalues --   -0.48623  -0.48437  -0.48231  -0.47971  -0.47719
 Alpha  occ. eigenvalues --   -0.47359  -0.47039  -0.46923  -0.46604  -0.46540
 Alpha  occ. eigenvalues --   -0.46466  -0.46403  -0.46166  -0.46094  -0.46040
 Alpha  occ. eigenvalues --   -0.45793  -0.45538  -0.45378  -0.45057  -0.44888
 Alpha  occ. eigenvalues --   -0.44853  -0.44496  -0.44473  -0.44315  -0.44232
 Alpha  occ. eigenvalues --   -0.43654  -0.43489  -0.43279  -0.43139  -0.42941
 Alpha  occ. eigenvalues --   -0.42786  -0.42508  -0.42424  -0.42216  -0.42161
 Alpha  occ. eigenvalues --   -0.42055  -0.41919  -0.41826  -0.41759  -0.41576
 Alpha  occ. eigenvalues --   -0.41313  -0.41137  -0.40977  -0.40252  -0.39971
 Alpha  occ. eigenvalues --   -0.39954  -0.39504  -0.39473  -0.39196  -0.38785
 Alpha  occ. eigenvalues --   -0.38634  -0.38365  -0.38049  -0.37694  -0.37548
 Alpha  occ. eigenvalues --   -0.37204  -0.36992  -0.36447  -0.36329  -0.36088
 Alpha  occ. eigenvalues --   -0.36018  -0.35451  -0.35062  -0.34631  -0.34390
 Alpha  occ. eigenvalues --   -0.33710  -0.33614  -0.32851  -0.31323  -0.30932
 Alpha  occ. eigenvalues --   -0.30696  -0.30353  -0.30081  -0.28780  -0.24057
 Alpha  occ. eigenvalues --   -0.20545
 Alpha virt. eigenvalues --   -0.08114  -0.01935  -0.00171   0.01570   0.01801
 Alpha virt. eigenvalues --    0.04316   0.04858   0.05378   0.05672   0.07022
 Alpha virt. eigenvalues --    0.07802   0.07946   0.08006   0.08554   0.08929

 Mulliken charges:
               1
     1  Mg   0.865498
     2  C   -0.024314
     3  C   -0.076612
     4  C   -0.052285
     5  C   -0.101716
     6  N   -0.259908
     7  C   -0.056134
     8  C    0.000079
     9  C   -0.056122
    10  C    0.021832
    11  C    0.072439
    12  C    0.090531
    13  C    0.003342
    14  C    0.170217
    15  O   -0.217830
    16  O   -0.348130
    17  N   -0.298990
    18  C    0.136575
    19  C   -0.107492
    20  C    0.007391
    21  C    0.108799
    22  C    0.083207
    23  C   -0.015071
    24  O   -0.204202
    25  C    0.050710
    26  N   -0.270435
    27  C   -0.018477
    28  C   -0.039839
    29  C   -0.008661
    30  C    0.056633
    31  C    0.084377
    32  C   -0.014743
    33  C    0.027225
    34  N   -0.418062
    35  C    0.141295
    36  C   -0.214141
    37  C    0.044401
    38  C    0.108182
    39  C    0.123666
    40  C    0.028680
    41  O   -0.203072
    42  C    0.023686
    43  C    0.208288
    44  O   -0.243422
    45  O   -0.329358
    46  C    0.179648
    47  C    0.308282
    48  C   -0.105061
    49  C   -0.213298
    50  C    0.101474
    51  C    0.088329
    52  C    0.016835
    53  C    0.016517
    54  C   -0.129129
    55  C    0.065354
    56  C    0.049998
    57  C   -0.024936
    58  C    0.084717
    59  C   -0.127686
    60  C    0.035800
    61  C    0.059759
    62  C    0.010636
    63  C    0.039898
    64  C   -0.149932
    65  C    0.032478
    66  C    0.033156
    67  H   -0.033683
    68  H   -0.001203
    69  H   -0.027845
    70  H    0.012760
    71  H    0.020628
    72  H    0.019154
    73  H   -0.000264
    74  H    0.027931
    75  H    0.015534
    76  H    0.013990
    77  H    0.057118
    78  H    0.031918
    79  H    0.017961
    80  H    0.012444
    81  H    0.023807
    82  H    0.027464
    83  H    0.027526
    84  H    0.036126
    85  H    0.024010
    86  H    0.004379
    87  H    0.039327
    88  H    0.003486
    89  H    0.022361
    90  H    0.005296
    91  H   -0.001884
    92  H    0.021008
    93  H    0.006499
    94  H    0.020760
    95  H    0.024980
    96  H    0.026714
    97  H    0.040399
    98  H    0.026879
    99  H    0.036519
   100  H    0.029258
   101  H    0.041197
   102  H    0.040481
   103  H    0.029871
   104  H   -0.010730
   105  H    0.022124
   106  H    0.003140
   107  H    0.021431
   108  H   -0.000808
   109  H    0.003401
   110  H   -0.000702
   111  H    0.004497
   112  H   -0.000493
   113  H   -0.012249
   114  H   -0.007635
   115  H    0.017141
   116  H    0.000305
   117  H    0.006723
   118  H   -0.013906
   119  H   -0.006947
   120  H    0.005228
   121  H   -0.004711
   122  H   -0.011613
   123  H   -0.015995
   124  H   -0.004873
   125  H   -0.007658
   126  H   -0.000085
   127  H    0.010729
   128  H   -0.013805
   129  H    0.002978
   130  H    0.000278
   131  H   -0.007437
   132  H   -0.005174
   133  H    0.008021
   134  H   -0.007131
   135  H    0.007422
   136  H    0.014540
   137  H    0.013527
   138  H    0.010998
   139  H    0.010025
   140  H   -0.004340
 Sum of Mulliken charges =  -0.00000

 Dipole moment (field-independent basis, Debye):
    X=             -3.7194    Y=              3.6979    Z=             -0.0033  Tot=              5.2448
 Quadrupole moment (field-independent basis, Debye-Ang):
   XX=           -373.6048   YY=           -423.1933   ZZ=           -410.4049
   XY=             15.4214   XZ=             18.5889   YZ=             -2.0165

 Normal termination of Gaussian 16 at Wed May  4 10:39:26 2022.
