 Gaussian 16, Revision A.03,
 Gaussian 16:  ES64L-G16RevA.03 25-Dec-2016

 ---------------------------------
 #p PBE1PBE/Def2SVP td=(nstates=5)
 ---------------------------------

 ------------------------------------------------------
 step_1651_chromophore_16 TDDFT with PBE1PBE functional
 ------------------------------------------------------
 Symbolic Z-matrix:
 Charge =  0 Multiplicity = 1

                         Standard orientation:
 ---------------------------------------------------------------------
 Center     Atomic      Atomic             Coordinates (Angstroms)
 Number     Number       Type             X           Y           Z
 ---------------------------------------------------------------------
      1         12           0        6.078871    0.417756    0.260951
      2          6           0        3.980562   -2.225128    0.127819
      3          6           0        3.497110    2.447107   -0.853975
      4          6           0        8.201239    3.198350   -0.229829
      5          6           0        8.792211   -1.617648    0.349919
      6          7           0        3.976927    0.148278   -0.275566
      7          6           0        3.281221   -0.994643   -0.198188
      8          6           0        1.816874   -0.853766   -0.434905
      9          6           0        1.697835    0.612874   -0.866029
     10          6           0        3.161342    1.111173   -0.726436
     11          6           0        1.083489    0.897860   -2.241836
     12          6           0        0.883326   -1.289588    0.790466
     13          6           0       -0.170016   -2.278890    0.382949
     14          6           0       -1.645095   -2.185621    0.912672
     15          8           0       -2.053453   -1.698528    1.948821
     16          8           0       -2.425165   -2.953858    0.081279
     17          7           0        5.830524    2.638308   -0.082939
     18          6           0        4.711628    3.194935   -0.571393
     19          6           0        4.945413    4.657649   -0.629065
     20          6           0        6.267854    4.927536   -0.311849
     21          6           0        6.827882    3.538608   -0.272633
     22          6           0        3.952698    5.601361   -1.113819
     23          6           0        7.035064    6.176557   -0.193311
     24          8           0        8.257610    6.181265   -0.136077
     25          6           0        6.368328    7.529102   -0.076310
     26          7           0        8.183399    0.765714   -0.001935
     27          6           0        8.827650    1.921874   -0.063751
     28          6           0       10.331700    1.807836    0.334364
     29          6           0       10.461804    0.285108    0.435819
     30          6           0        9.058141   -0.273364    0.185941
     31          6           0       11.268154    2.455727   -0.770374
     32          6           0       11.129102   -0.145892    1.760440
     33          6           0       10.281942   -0.318904    3.005547
     34          7           0        6.334858   -1.477178    0.218680
     35          6           0        7.496742   -2.218629    0.318261
     36          6           0        7.166528   -3.642644    0.420270
     37          6           0        5.760449   -3.735400    0.406215
     38          6           0        5.350719   -2.375410    0.310297
     39          6           0        8.140672   -4.820612    0.624231
     40          6           0        4.557824   -4.526995    0.533126
     41          8           0        4.450464   -5.762004    0.696179
     42          6           0        3.345651   -3.629321    0.211223
     43          6           0        2.781403   -4.019724   -1.103450
     44          8           0        3.299075   -3.740333   -2.207884
     45          8           0        1.556466   -4.639894   -1.018070
     46          6           0        0.686127   -4.695292   -2.176946
     47          6           0       -3.829821   -3.240291    0.509278
     48          6           0       -4.777392   -2.170875    0.031711
     49          6           0       -6.125606   -2.264921   -0.340247
     50          6           0       -6.934905   -3.478117   -0.184838
     51          6           0       -6.926077   -1.103169   -0.965378
     52          6           0       -7.644871   -0.247321    0.083052
     53          6           0       -9.146420   -0.117771   -0.218331
     54          6           0       -9.386663    1.162577   -1.013585
     55          6           0       -9.718001    2.335464    0.000184
     56          6           0      -10.524676    1.045373   -2.032756
     57          6           0      -11.810894    0.411486   -1.584663
     58          6           0      -13.050971    1.123939   -2.110460
     59          6           0      -14.314299    0.699424   -1.377551
     60          6           0      -15.420176    0.119277   -2.292629
     61          6           0      -14.802348    1.701447   -0.293398
     62          6           0      -14.667815    1.117543    1.192823
     63          6           0      -13.955267    2.149176    2.006733
     64          6           0      -13.148593    1.452537    3.169611
     65          6           0      -11.759820    0.883745    2.700864
     66          6           0      -13.044687    2.504019    4.280898
     67          1           0        2.592114    3.025629   -1.053615
     68          1           0        8.943259    3.999433   -0.198588
     69          1           0        9.637841   -2.297342    0.467021
     70          1           0        1.570716   -1.461881   -1.305197
     71          1           0        1.110392    1.132091   -0.107559
     72          1           0        1.700068    1.489751   -2.918583
     73          1           0        0.338702    1.673023   -2.060185
     74          1           0        0.586067    0.076842   -2.758586
     75          1           0        0.330602   -0.445348    1.203852
     76          1           0        1.549926   -1.636640    1.579458
     77          1           0        0.224632   -3.151134    0.904554
     78          1           0       -0.141730   -2.382300   -0.702011
     79          1           0        3.214300    5.091688   -1.731003
     80          1           0        4.285679    6.421195   -1.749886
     81          1           0        3.417645    6.156444   -0.342627
     82          1           0        7.036238    8.323858    0.253833
     83          1           0        5.556879    7.426041    0.644458
     84          1           0        6.005898    7.867826   -1.046952
     85          1           0       10.423126    2.202043    1.346730
     86          1           0       11.077252   -0.211907   -0.313330
     87          1           0       10.687277    2.805390   -1.623800
     88          1           0       11.913028    1.632429   -1.078348
     89          1           0       11.957545    3.172463   -0.324937
     90          1           0       11.909989    0.568706    2.018890
     91          1           0       11.635137   -1.084345    1.534295
     92          1           0        9.251503   -0.018711    2.816878
     93          1           0       10.684819    0.377274    3.741738
     94          1           0       10.353548   -1.327834    3.411823
     95          1           0        8.673802   -4.669742    1.562892
     96          1           0        8.823999   -4.735750   -0.221433
     97          1           0        7.606738   -5.770278    0.669331
     98          1           0        2.589677   -3.863186    0.961231
     99          1           0        0.623543   -3.840049   -2.850439
    100          1           0       -0.350910   -4.742626   -1.845422
    101          1           0        0.838876   -5.638344   -2.700773
    102          1           0       -3.895541   -3.269395    1.597063
    103          1           0       -4.118823   -4.228961    0.155138
    104          1           0       -4.439152   -1.143263   -0.097972
    105          1           0       -7.735940   -3.203071    0.500499
    106          1           0       -6.380070   -4.323688    0.220670
    107          1           0       -7.326045   -3.703234   -1.177351
    108          1           0       -7.714268   -1.447969   -1.635358
    109          1           0       -6.258802   -0.429277   -1.503317
    110          1           0       -7.144838    0.719317    0.015266
    111          1           0       -7.611148   -0.513750    1.139315
    112          1           0       -9.644030   -0.248427    0.742765
    113          1           0       -9.516486   -0.941681   -0.829523
    114          1           0       -8.531990    1.363972   -1.660495
    115          1           0      -10.601011    2.922448   -0.253484
    116          1           0       -8.810527    2.936999    0.039900
    117          1           0       -9.758731    1.922275    1.007660
    118          1           0      -10.110259    0.443432   -2.841221
    119          1           0      -10.734059    2.067259   -2.349697
    120          1           0      -11.932367    0.316837   -0.505623
    121          1           0      -11.807992   -0.576390   -2.044168
    122          1           0      -13.159088    0.892204   -3.169579
    123          1           0      -12.878407    2.188698   -1.947147
    124          1           0      -14.017386   -0.193196   -0.825114
    125          1           0      -15.222855    0.045476   -3.362248
    126          1           0      -16.281841    0.785338   -2.331436
    127          1           0      -15.702823   -0.900419   -2.029753
    128          1           0      -15.881192    1.793582   -0.421689
    129          1           0      -14.393014    2.704382   -0.415895
    130          1           0      -14.264044    0.104985    1.206693
    131          1           0      -15.647777    0.990538    1.651867
    132          1           0      -14.705485    2.755665    2.513572
    133          1           0      -13.369756    2.766055    1.324756
    134          1           0      -13.669299    0.616974    3.635759
    135          1           0      -11.788680   -0.203138    2.634210
    136          1           0      -10.970734    1.186912    3.388787
    137          1           0      -11.597002    1.181763    1.665283
    138          1           0      -13.983239    2.716727    4.794677
    139          1           0      -12.630561    3.418104    3.858028
    140          1           0      -12.394949    2.090739    5.051712
 ---------------------------------------------------------------------

 SCF Done:  E(RPBE1PBE) =  -3005.34261322     A.U. after   15 cycles

 Excitation energies and oscillator strengths:

 Excited State   1:      Singlet-A      1.8399 eV  673.86 nm  f=0.3886  <S**2>=0.000
     245 -> 248        0.17835
     246 -> 247        0.69148
     246 <- 247       -0.10745
 This state for optimization and/or second-order correction.
 Total Energy, E(TD-HF/TD-DFT) =  -3005.27499794
 Copying the excited state density for this state as the 1-particle RhoCI density.

 Excited State   2:      Singlet-A      2.2644 eV  547.53 nm  f=0.0575  <S**2>=0.000
     245 -> 247        0.62711
     246 -> 248       -0.31574

 Excited State   3:      Singlet-A      3.0735 eV  403.40 nm  f=0.0050  <S**2>=0.000
     241 -> 247        0.25630
     243 -> 247        0.60119
     243 -> 249       -0.11933
     246 -> 248       -0.10496

 Excited State   4:      Singlet-A      3.1249 eV  396.76 nm  f=0.0025  <S**2>=0.000
     242 -> 247        0.63861
     242 -> 249        0.23108
     242 -> 250        0.11524

 Excited State   5:      Singlet-A      3.1594 eV  392.43 nm  f=0.2368  <S**2>=0.000
     241 -> 247        0.18526
     245 -> 247        0.21185
     246 -> 248        0.50920
     246 -> 249        0.34789

 The electronic state is 1-A.
 Alpha  occ. eigenvalues --  -46.92382 -19.25968 -19.25804 -19.20652 -19.19537
 Alpha  occ. eigenvalues --  -19.18837 -19.18716 -14.41712 -14.41324 -14.39274
 Alpha  occ. eigenvalues --  -14.39217 -10.37089 -10.36727 -10.32243 -10.32030
 Alpha  occ. eigenvalues --  -10.30246 -10.29096 -10.28800 -10.28466 -10.28431
 Alpha  occ. eigenvalues --  -10.28345 -10.28091 -10.27929 -10.27722 -10.26436
 Alpha  occ. eigenvalues --  -10.26378 -10.26308 -10.25993 -10.25975 -10.25959
 Alpha  occ. eigenvalues --  -10.25786 -10.25524 -10.25291 -10.25238 -10.24988
 Alpha  occ. eigenvalues --  -10.24614 -10.24582 -10.24495 -10.24401 -10.23908
 Alpha  occ. eigenvalues --  -10.23743 -10.23701 -10.23684 -10.23528 -10.23442
 Alpha  occ. eigenvalues --  -10.23441 -10.23411 -10.23408 -10.23372 -10.23312
 Alpha  occ. eigenvalues --  -10.23222 -10.23046 -10.22793 -10.22639 -10.22506
 Alpha  occ. eigenvalues --  -10.22486 -10.22253 -10.22135 -10.22054 -10.22007
 Alpha  occ. eigenvalues --  -10.21957 -10.21819 -10.21780 -10.21685 -10.21636
 Alpha  occ. eigenvalues --  -10.21534  -3.14679  -1.87477  -1.87022  -1.86963
 Alpha  occ. eigenvalues --   -1.10943  -1.10510  -1.04749  -1.02927  -1.02724
 Alpha  occ. eigenvalues --   -1.01159  -1.00133  -0.99078  -0.98795  -0.98069
 Alpha  occ. eigenvalues --   -0.87139  -0.85229  -0.84550  -0.84081  -0.83571
 Alpha  occ. eigenvalues --   -0.83026  -0.82617  -0.82305  -0.81768  -0.81597
 Alpha  occ. eigenvalues --   -0.80513  -0.80167  -0.78895  -0.78160  -0.77513
 Alpha  occ. eigenvalues --   -0.76878  -0.76258  -0.75771  -0.75551  -0.74458
 Alpha  occ. eigenvalues --   -0.74264  -0.72799  -0.72512  -0.71891  -0.70828
 Alpha  occ. eigenvalues --   -0.69942  -0.69804  -0.69395  -0.69141  -0.68188
 Alpha  occ. eigenvalues --   -0.67875  -0.66956  -0.65957  -0.64647  -0.64091
 Alpha  occ. eigenvalues --   -0.63531  -0.63120  -0.62517  -0.60953  -0.60660
 Alpha  occ. eigenvalues --   -0.60135  -0.59798  -0.59173  -0.58741  -0.58161
 Alpha  occ. eigenvalues --   -0.57629  -0.57034  -0.56774  -0.55856  -0.54871
 Alpha  occ. eigenvalues --   -0.54710  -0.54127  -0.53869  -0.53126  -0.52539
 Alpha  occ. eigenvalues --   -0.52229  -0.51899  -0.50520  -0.50289  -0.50064
 Alpha  occ. eigenvalues --   -0.49919  -0.49659  -0.49351  -0.49136  -0.48877
 Alpha  occ. eigenvalues --   -0.48667  -0.48295  -0.47895  -0.47739  -0.47580
 Alpha  occ. eigenvalues --   -0.47242  -0.47133  -0.47019  -0.46725  -0.46620
 Alpha  occ. eigenvalues --   -0.46406  -0.46217  -0.45837  -0.45682  -0.45208
 Alpha  occ. eigenvalues --   -0.45042  -0.44747  -0.44704  -0.44534  -0.44454
 Alpha  occ. eigenvalues --   -0.44122  -0.43897  -0.43719  -0.43534  -0.43338
 Alpha  occ. eigenvalues --   -0.43259  -0.43046  -0.42809  -0.42601  -0.42403
 Alpha  occ. eigenvalues --   -0.42045  -0.41685  -0.41582  -0.41312  -0.41168
 Alpha  occ. eigenvalues --   -0.41133  -0.41099  -0.40906  -0.40727  -0.40693
 Alpha  occ. eigenvalues --   -0.40585  -0.40278  -0.40023  -0.39891  -0.39641
 Alpha  occ. eigenvalues --   -0.39524  -0.39301  -0.39123  -0.39073  -0.38988
 Alpha  occ. eigenvalues --   -0.38508  -0.38378  -0.37989  -0.37898  -0.37753
 Alpha  occ. eigenvalues --   -0.37598  -0.37282  -0.37236  -0.37099  -0.36980
 Alpha  occ. eigenvalues --   -0.36834  -0.36709  -0.36648  -0.36516  -0.36308
 Alpha  occ. eigenvalues --   -0.36241  -0.35900  -0.35812  -0.35176  -0.34854
 Alpha  occ. eigenvalues --   -0.34703  -0.34409  -0.34299  -0.33977  -0.33769
 Alpha  occ. eigenvalues --   -0.33412  -0.33316  -0.33088  -0.32480  -0.32343
 Alpha  occ. eigenvalues --   -0.32192  -0.32040  -0.31546  -0.31178  -0.31127
 Alpha  occ. eigenvalues --   -0.30860  -0.30325  -0.30014  -0.29809  -0.29281
 Alpha  occ. eigenvalues --   -0.28671  -0.28464  -0.28353  -0.26768  -0.26187
 Alpha  occ. eigenvalues --   -0.25842  -0.25666  -0.25360  -0.24130  -0.20960
 Alpha  occ. eigenvalues --   -0.18231
 Alpha virt. eigenvalues --   -0.10689  -0.05423  -0.04361  -0.02552  -0.01270
 Alpha virt. eigenvalues --   -0.00383   0.00357   0.00800   0.01297   0.03093
 Alpha virt. eigenvalues --    0.04081   0.04343   0.04630   0.04972   0.05650

 Mulliken charges:
               1
     1  Mg   1.012624
     2  C   -0.035101
     3  C   -0.067938
     4  C   -0.040949
     5  C   -0.087245
     6  N   -0.368896
     7  C    0.020942
     8  C   -0.074120
     9  C   -0.130486
    10  C    0.060504
    11  C    0.016271
    12  C    0.045625
    13  C   -0.081272
    14  C    0.240778
    15  O   -0.251783
    16  O   -0.377537
    17  N   -0.398471
    18  C    0.157707
    19  C   -0.150603
    20  C   -0.028973
    21  C    0.125028
    22  C    0.033535
    23  C    0.032926
    24  O   -0.242695
    25  C   -0.020299
    26  N   -0.379615
    27  C    0.025186
    28  C   -0.127745
    29  C   -0.074407
    30  C    0.090825
    31  C    0.027114
    32  C   -0.077661
    33  C   -0.046782
    34  N   -0.551730
    35  C    0.159044
    36  C   -0.227554
    37  C    0.008618
    38  C    0.153764
    39  C    0.067659
    40  C    0.120989
    41  O   -0.245774
    42  C   -0.091668
    43  C    0.304808
    44  O   -0.276344
    45  O   -0.363762
    46  C    0.124552
    47  C    0.261003
    48  C   -0.112829
    49  C   -0.257196
    50  C    0.037912
    51  C    0.023659
    52  C   -0.038472
    53  C   -0.045914
    54  C   -0.210733
    55  C    0.001369
    56  C   -0.007940
    57  C   -0.096448
    58  C    0.034144
    59  C   -0.216872
    60  C   -0.019330
    61  C    0.004694
    62  C   -0.043649
    63  C   -0.025166
    64  C   -0.236295
    65  C   -0.036201
    66  C   -0.031902
    67  H   -0.001179
    68  H    0.030693
    69  H    0.003695
    70  H    0.054039
    71  H    0.057402
    72  H    0.046330
    73  H    0.027238
    74  H    0.053916
    75  H    0.047608
    76  H    0.046667
    77  H    0.091290
    78  H    0.065173
    79  H    0.043353
    80  H    0.039266
    81  H    0.050200
    82  H    0.053925
    83  H    0.053684
    84  H    0.061668
    85  H    0.061143
    86  H    0.041746
    87  H    0.065942
    88  H    0.031178
    89  H    0.049828
    90  H    0.039576
    91  H    0.030307
    92  H    0.052751
    93  H    0.035020
    94  H    0.047942
    95  H    0.053469
    96  H    0.054958
    97  H    0.068086
    98  H    0.063719
    99  H    0.056975
   100  H    0.050942
   101  H    0.064012
   102  H    0.067905
   103  H    0.055700
   104  H    0.019822
   105  H    0.051394
   106  H    0.030724
   107  H    0.049223
   108  H    0.030931
   109  H    0.035114
   110  H    0.032530
   111  H    0.035537
   112  H    0.033943
   113  H    0.021250
   114  H    0.030120
   115  H    0.044524
   116  H    0.029377
   117  H    0.035656
   118  H    0.020144
   119  H    0.026215
   120  H    0.043484
   121  H    0.029201
   122  H    0.021266
   123  H    0.017012
   124  H    0.035092
   125  H    0.019033
   126  H    0.026617
   127  H    0.037308
   128  H    0.020417
   129  H    0.031982
   130  H    0.030234
   131  H    0.025818
   132  H    0.029026
   133  H    0.039959
   134  H    0.030450
   135  H    0.034340
   136  H    0.040988
   137  H    0.049985
   138  H    0.039228
   139  H    0.038569
   140  H    0.024395
 Sum of Mulliken charges =  -0.00000

 Dipole moment (field-independent basis, Debye):
    X=             -3.6981    Y=              3.1589    Z=              0.0898  Tot=              4.8644
 Quadrupole moment (field-independent basis, Debye-Ang):
   XX=           -366.8501   YY=           -421.5839   ZZ=           -407.9487
   XY=             11.9030   XZ=             19.5349   YZ=             -2.0255

 Normal termination of Gaussian 16 at Wed May  4 11:01:30 2022.
