 Gaussian 16, Revision A.03,
 Gaussian 16:  ES64L-G16RevA.03 25-Dec-2016

 --------------------------------
 #p wB97XD/Def2SVP td=(nstates=5)
 --------------------------------

 -----------------------------------------------------
 step_1651_chromophore_16 TDDFT with wB97XD functional
 -----------------------------------------------------
 Symbolic Z-matrix:
 Charge =  0 Multiplicity = 1

                         Standard orientation:
 ---------------------------------------------------------------------
 Center     Atomic      Atomic             Coordinates (Angstroms)
 Number     Number       Type             X           Y           Z
 ---------------------------------------------------------------------
      1         12           0        6.078871    0.417756    0.260951
      2          6           0        3.980562   -2.225128    0.127819
      3          6           0        3.497110    2.447107   -0.853975
      4          6           0        8.201239    3.198350   -0.229829
      5          6           0        8.792211   -1.617648    0.349919
      6          7           0        3.976927    0.148278   -0.275566
      7          6           0        3.281221   -0.994643   -0.198188
      8          6           0        1.816874   -0.853766   -0.434905
      9          6           0        1.697835    0.612874   -0.866029
     10          6           0        3.161342    1.111173   -0.726436
     11          6           0        1.083489    0.897860   -2.241836
     12          6           0        0.883326   -1.289588    0.790466
     13          6           0       -0.170016   -2.278890    0.382949
     14          6           0       -1.645095   -2.185621    0.912672
     15          8           0       -2.053453   -1.698528    1.948821
     16          8           0       -2.425165   -2.953858    0.081279
     17          7           0        5.830524    2.638308   -0.082939
     18          6           0        4.711628    3.194935   -0.571393
     19          6           0        4.945413    4.657649   -0.629065
     20          6           0        6.267854    4.927536   -0.311849
     21          6           0        6.827882    3.538608   -0.272633
     22          6           0        3.952698    5.601361   -1.113819
     23          6           0        7.035064    6.176557   -0.193311
     24          8           0        8.257610    6.181265   -0.136077
     25          6           0        6.368328    7.529102   -0.076310
     26          7           0        8.183399    0.765714   -0.001935
     27          6           0        8.827650    1.921874   -0.063751
     28          6           0       10.331700    1.807836    0.334364
     29          6           0       10.461804    0.285108    0.435819
     30          6           0        9.058141   -0.273364    0.185941
     31          6           0       11.268154    2.455727   -0.770374
     32          6           0       11.129102   -0.145892    1.760440
     33          6           0       10.281942   -0.318904    3.005547
     34          7           0        6.334858   -1.477178    0.218680
     35          6           0        7.496742   -2.218629    0.318261
     36          6           0        7.166528   -3.642644    0.420270
     37          6           0        5.760449   -3.735400    0.406215
     38          6           0        5.350719   -2.375410    0.310297
     39          6           0        8.140672   -4.820612    0.624231
     40          6           0        4.557824   -4.526995    0.533126
     41          8           0        4.450464   -5.762004    0.696179
     42          6           0        3.345651   -3.629321    0.211223
     43          6           0        2.781403   -4.019724   -1.103450
     44          8           0        3.299075   -3.740333   -2.207884
     45          8           0        1.556466   -4.639894   -1.018070
     46          6           0        0.686127   -4.695292   -2.176946
     47          6           0       -3.829821   -3.240291    0.509278
     48          6           0       -4.777392   -2.170875    0.031711
     49          6           0       -6.125606   -2.264921   -0.340247
     50          6           0       -6.934905   -3.478117   -0.184838
     51          6           0       -6.926077   -1.103169   -0.965378
     52          6           0       -7.644871   -0.247321    0.083052
     53          6           0       -9.146420   -0.117771   -0.218331
     54          6           0       -9.386663    1.162577   -1.013585
     55          6           0       -9.718001    2.335464    0.000184
     56          6           0      -10.524676    1.045373   -2.032756
     57          6           0      -11.810894    0.411486   -1.584663
     58          6           0      -13.050971    1.123939   -2.110460
     59          6           0      -14.314299    0.699424   -1.377551
     60          6           0      -15.420176    0.119277   -2.292629
     61          6           0      -14.802348    1.701447   -0.293398
     62          6           0      -14.667815    1.117543    1.192823
     63          6           0      -13.955267    2.149176    2.006733
     64          6           0      -13.148593    1.452537    3.169611
     65          6           0      -11.759820    0.883745    2.700864
     66          6           0      -13.044687    2.504019    4.280898
     67          1           0        2.592114    3.025629   -1.053615
     68          1           0        8.943259    3.999433   -0.198588
     69          1           0        9.637841   -2.297342    0.467021
     70          1           0        1.570716   -1.461881   -1.305197
     71          1           0        1.110392    1.132091   -0.107559
     72          1           0        1.700068    1.489751   -2.918583
     73          1           0        0.338702    1.673023   -2.060185
     74          1           0        0.586067    0.076842   -2.758586
     75          1           0        0.330602   -0.445348    1.203852
     76          1           0        1.549926   -1.636640    1.579458
     77          1           0        0.224632   -3.151134    0.904554
     78          1           0       -0.141730   -2.382300   -0.702011
     79          1           0        3.214300    5.091688   -1.731003
     80          1           0        4.285679    6.421195   -1.749886
     81          1           0        3.417645    6.156444   -0.342627
     82          1           0        7.036238    8.323858    0.253833
     83          1           0        5.556879    7.426041    0.644458
     84          1           0        6.005898    7.867826   -1.046952
     85          1           0       10.423126    2.202043    1.346730
     86          1           0       11.077252   -0.211907   -0.313330
     87          1           0       10.687277    2.805390   -1.623800
     88          1           0       11.913028    1.632429   -1.078348
     89          1           0       11.957545    3.172463   -0.324937
     90          1           0       11.909989    0.568706    2.018890
     91          1           0       11.635137   -1.084345    1.534295
     92          1           0        9.251503   -0.018711    2.816878
     93          1           0       10.684819    0.377274    3.741738
     94          1           0       10.353548   -1.327834    3.411823
     95          1           0        8.673802   -4.669742    1.562892
     96          1           0        8.823999   -4.735750   -0.221433
     97          1           0        7.606738   -5.770278    0.669331
     98          1           0        2.589677   -3.863186    0.961231
     99          1           0        0.623543   -3.840049   -2.850439
    100          1           0       -0.350910   -4.742626   -1.845422
    101          1           0        0.838876   -5.638344   -2.700773
    102          1           0       -3.895541   -3.269395    1.597063
    103          1           0       -4.118823   -4.228961    0.155138
    104          1           0       -4.439152   -1.143263   -0.097972
    105          1           0       -7.735940   -3.203071    0.500499
    106          1           0       -6.380070   -4.323688    0.220670
    107          1           0       -7.326045   -3.703234   -1.177351
    108          1           0       -7.714268   -1.447969   -1.635358
    109          1           0       -6.258802   -0.429277   -1.503317
    110          1           0       -7.144838    0.719317    0.015266
    111          1           0       -7.611148   -0.513750    1.139315
    112          1           0       -9.644030   -0.248427    0.742765
    113          1           0       -9.516486   -0.941681   -0.829523
    114          1           0       -8.531990    1.363972   -1.660495
    115          1           0      -10.601011    2.922448   -0.253484
    116          1           0       -8.810527    2.936999    0.039900
    117          1           0       -9.758731    1.922275    1.007660
    118          1           0      -10.110259    0.443432   -2.841221
    119          1           0      -10.734059    2.067259   -2.349697
    120          1           0      -11.932367    0.316837   -0.505623
    121          1           0      -11.807992   -0.576390   -2.044168
    122          1           0      -13.159088    0.892204   -3.169579
    123          1           0      -12.878407    2.188698   -1.947147
    124          1           0      -14.017386   -0.193196   -0.825114
    125          1           0      -15.222855    0.045476   -3.362248
    126          1           0      -16.281841    0.785338   -2.331436
    127          1           0      -15.702823   -0.900419   -2.029753
    128          1           0      -15.881192    1.793582   -0.421689
    129          1           0      -14.393014    2.704382   -0.415895
    130          1           0      -14.264044    0.104985    1.206693
    131          1           0      -15.647777    0.990538    1.651867
    132          1           0      -14.705485    2.755665    2.513572
    133          1           0      -13.369756    2.766055    1.324756
    134          1           0      -13.669299    0.616974    3.635759
    135          1           0      -11.788680   -0.203138    2.634210
    136          1           0      -10.970734    1.186912    3.388787
    137          1           0      -11.597002    1.181763    1.665283
    138          1           0      -13.983239    2.716727    4.794677
    139          1           0      -12.630561    3.418104    3.858028
    140          1           0      -12.394949    2.090739    5.051712
 ---------------------------------------------------------------------

 SCF Done:  E(RwB97XD) =  -3007.85635549     A.U. after   19 cycles

 Excitation energies and oscillator strengths:

 Excited State   1:      Singlet-A      1.6597 eV  747.01 nm  f=0.3945  <S**2>=0.000
     245 -> 248        0.19031
     246 -> 247        0.68154
     245 <- 248        0.11628
 This state for optimization and/or second-order correction.
 Total Energy, E(TD-HF/TD-DFT) =  -3007.79536098
 Copying the excited state density for this state as the 1-particle RhoCI density.

 Excited State   2:      Singlet-A      2.2159 eV  559.52 nm  f=0.0525  <S**2>=0.000
     245 -> 247        0.60607
     246 -> 248       -0.35050

 Excited State   3:      Singlet-A      3.3685 eV  368.07 nm  f=0.5466  <S**2>=0.000
     242 -> 247        0.13693
     243 -> 247        0.26695
     245 -> 247        0.29700
     246 -> 248        0.55681
     245 <- 247       -0.10520

 Excited State   4:      Singlet-A      3.5397 eV  350.27 nm  f=0.1241  <S**2>=0.000
     239 -> 247        0.16739
     239 -> 249       -0.13103
     239 -> 250        0.11513
     240 -> 247        0.34556
     240 -> 248       -0.10596
     240 -> 249       -0.24600
     240 -> 250        0.17713
     242 -> 247       -0.13001
     243 -> 247       -0.33336
     245 -> 247        0.12756
     246 -> 248        0.17466

 Excited State   5:      Singlet-A      3.6622 eV  338.55 nm  f=0.1493  <S**2>=0.000
     239 -> 247        0.22687
     239 -> 249       -0.12315
     240 -> 247        0.27152
     240 -> 249       -0.10959
     243 -> 247        0.48438
     245 -> 247       -0.14574
     246 -> 248       -0.17565
     246 -> 249       -0.13962

 The electronic state is 1-A.
 Alpha  occ. eigenvalues --  -46.95279 -19.30469 -19.30319 -19.25290 -19.24155
 Alpha  occ. eigenvalues --  -19.23809 -19.23420 -14.46713 -14.46414 -14.44384
 Alpha  occ. eigenvalues --  -14.43991 -10.43839 -10.43463 -10.39148 -10.38908
 Alpha  occ. eigenvalues --  -10.36729 -10.35558 -10.35060 -10.34968 -10.34924
 Alpha  occ. eigenvalues --  -10.34872 -10.34754 -10.33959 -10.33616 -10.33210
 Alpha  occ. eigenvalues --  -10.32663 -10.32466 -10.32246 -10.32173 -10.32072
 Alpha  occ. eigenvalues --  -10.31913 -10.31794 -10.31683 -10.31590 -10.31352
 Alpha  occ. eigenvalues --  -10.31276 -10.31016 -10.30689 -10.30688 -10.30629
 Alpha  occ. eigenvalues --  -10.30169 -10.30118 -10.30084 -10.30059 -10.29946
 Alpha  occ. eigenvalues --  -10.29830 -10.29762 -10.29691 -10.29671 -10.29670
 Alpha  occ. eigenvalues --  -10.29646 -10.29062 -10.29034 -10.28985 -10.28864
 Alpha  occ. eigenvalues --  -10.28822 -10.28603 -10.28505 -10.28497 -10.28393
 Alpha  occ. eigenvalues --  -10.28369 -10.28223 -10.28161 -10.28058 -10.28057
 Alpha  occ. eigenvalues --  -10.27969  -3.21440  -1.94987  -1.94530  -1.94471
 Alpha  occ. eigenvalues --   -1.18285  -1.17833  -1.12505  -1.10221  -1.10028
 Alpha  occ. eigenvalues --   -1.08458  -1.07457  -1.06489  -1.06143  -1.05377
 Alpha  occ. eigenvalues --   -0.94585  -0.92898  -0.92128  -0.91744  -0.91137
 Alpha  occ. eigenvalues --   -0.90690  -0.90541  -0.89947  -0.89426  -0.89173
 Alpha  occ. eigenvalues --   -0.87937  -0.87795  -0.86552  -0.85726  -0.85163
 Alpha  occ. eigenvalues --   -0.84515  -0.83992  -0.83539  -0.83208  -0.82117
 Alpha  occ. eigenvalues --   -0.81922  -0.80597  -0.80047  -0.79438  -0.78385
 Alpha  occ. eigenvalues --   -0.77618  -0.77518  -0.76978  -0.76826  -0.75848
 Alpha  occ. eigenvalues --   -0.75460  -0.74444  -0.73481  -0.72266  -0.71611
 Alpha  occ. eigenvalues --   -0.71098  -0.70764  -0.70132  -0.68603  -0.68171
 Alpha  occ. eigenvalues --   -0.67795  -0.67184  -0.66603  -0.66156  -0.65829
 Alpha  occ. eigenvalues --   -0.65037  -0.64413  -0.64334  -0.63458  -0.62366
 Alpha  occ. eigenvalues --   -0.62262  -0.61498  -0.61376  -0.60409  -0.59997
 Alpha  occ. eigenvalues --   -0.59662  -0.59318  -0.57930  -0.57732  -0.57412
 Alpha  occ. eigenvalues --   -0.57395  -0.57085  -0.56738  -0.56522  -0.56223
 Alpha  occ. eigenvalues --   -0.55982  -0.55739  -0.55448  -0.55159  -0.54856
 Alpha  occ. eigenvalues --   -0.54655  -0.54527  -0.54449  -0.54319  -0.53893
 Alpha  occ. eigenvalues --   -0.53780  -0.53541  -0.53196  -0.52878  -0.52503
 Alpha  occ. eigenvalues --   -0.52370  -0.52199  -0.52107  -0.51989  -0.51877
 Alpha  occ. eigenvalues --   -0.51407  -0.51171  -0.50997  -0.50833  -0.50616
 Alpha  occ. eigenvalues --   -0.50508  -0.50328  -0.50161  -0.49881  -0.49655
 Alpha  occ. eigenvalues --   -0.49254  -0.48986  -0.48813  -0.48555  -0.48425
 Alpha  occ. eigenvalues --   -0.48359  -0.48276  -0.48042  -0.47984  -0.47962
 Alpha  occ. eigenvalues --   -0.47702  -0.47466  -0.47235  -0.46961  -0.46799
 Alpha  occ. eigenvalues --   -0.46734  -0.46430  -0.46405  -0.46205  -0.46154
 Alpha  occ. eigenvalues --   -0.45602  -0.45419  -0.45148  -0.45065  -0.44895
 Alpha  occ. eigenvalues --   -0.44698  -0.44422  -0.44337  -0.44181  -0.44066
 Alpha  occ. eigenvalues --   -0.43934  -0.43833  -0.43753  -0.43629  -0.43436
 Alpha  occ. eigenvalues --   -0.43209  -0.42994  -0.42915  -0.42158  -0.41848
 Alpha  occ. eigenvalues --   -0.41817  -0.41374  -0.41345  -0.41046  -0.40688
 Alpha  occ. eigenvalues --   -0.40481  -0.40266  -0.39966  -0.39527  -0.39387
 Alpha  occ. eigenvalues --   -0.39205  -0.38981  -0.38489  -0.38183  -0.38136
 Alpha  occ. eigenvalues --   -0.37860  -0.37307  -0.36904  -0.36622  -0.36327
 Alpha  occ. eigenvalues --   -0.35545  -0.35472  -0.35124  -0.33463  -0.33029
 Alpha  occ. eigenvalues --   -0.32626  -0.32470  -0.32281  -0.30814  -0.25997
 Alpha  occ. eigenvalues --   -0.22356
 Alpha virt. eigenvalues --   -0.06447  -0.00016   0.01879   0.03892   0.04752
 Alpha virt. eigenvalues --    0.06490   0.07074   0.07667   0.08008   0.09764
 Alpha virt. eigenvalues --    0.10773   0.10838   0.11226   0.11723   0.12325

 Mulliken charges:
               1
     1  Mg   1.001412
     2  C   -0.035723
     3  C   -0.089367
     4  C   -0.061325
     5  C   -0.104585
     6  N   -0.333736
     7  C   -0.013150
     8  C   -0.041887
     9  C   -0.105470
    10  C    0.050971
    11  C    0.024960
    12  C    0.054173
    13  C   -0.055912
    14  C    0.229074
    15  O   -0.248576
    16  O   -0.377567
    17  N   -0.371091
    18  C    0.155133
    19  C   -0.131502
    20  C   -0.027093
    21  C    0.124408
    22  C    0.038716
    23  C    0.030397
    24  O   -0.235448
    25  C   -0.009874
    26  N   -0.343145
    27  C    0.013386
    28  C   -0.101926
    29  C   -0.052825
    30  C    0.077278
    31  C    0.037652
    32  C   -0.061422
    33  C   -0.029394
    34  N   -0.512850
    35  C    0.148546
    36  C   -0.225876
    37  C    0.006632
    38  C    0.136668
    39  C    0.078145
    40  C    0.102352
    41  O   -0.238080
    42  C   -0.050125
    43  C    0.277027
    44  O   -0.270405
    45  O   -0.359876
    46  C    0.135798
    47  C    0.278897
    48  C   -0.126579
    49  C   -0.240583
    50  C    0.050836
    51  C    0.043834
    52  C   -0.027175
    53  C   -0.021824
    54  C   -0.183895
    55  C    0.018047
    56  C    0.011427
    57  C   -0.067351
    58  C    0.048849
    59  C   -0.182637
    60  C   -0.007592
    61  C    0.018466
    62  C   -0.031352
    63  C   -0.002168
    64  C   -0.209809
    65  C   -0.008040
    66  C   -0.017191
    67  H   -0.009149
    68  H    0.025948
    69  H   -0.001216
    70  H    0.033293
    71  H    0.046813
    72  H    0.040374
    73  H    0.021205
    74  H    0.050382
    75  H    0.039837
    76  H    0.038574
    77  H    0.082194
    78  H    0.052770
    79  H    0.040325
    80  H    0.034865
    81  H    0.048013
    82  H    0.053961
    83  H    0.048630
    84  H    0.057639
    85  H    0.051006
    86  H    0.030955
    87  H    0.060400
    88  H    0.025189
    89  H    0.045168
    90  H    0.030201
    91  H    0.022840
    92  H    0.041153
    93  H    0.029365
    94  H    0.043479
    95  H    0.046953
    96  H    0.048241
    97  H    0.065120
    98  H    0.056244
    99  H    0.053565
   100  H    0.048005
   101  H    0.061375
   102  H    0.063189
   103  H    0.051512
   104  H    0.016212
   105  H    0.044322
   106  H    0.025237
   107  H    0.043424
   108  H    0.020256
   109  H    0.028977
   110  H    0.022988
   111  H    0.028784
   112  H    0.022048
   113  H    0.007603
   114  H    0.018622
   115  H    0.037656
   116  H    0.024191
   117  H    0.024787
   118  H    0.011760
   119  H    0.015437
   120  H    0.019973
   121  H    0.020506
   122  H    0.012931
   123  H    0.004073
   124  H    0.017903
   125  H    0.012965
   126  H    0.019766
   127  H    0.032525
   128  H    0.011461
   129  H    0.023775
   130  H    0.020267
   131  H    0.018864
   132  H    0.019937
   133  H    0.027427
   134  H    0.020595
   135  H    0.028863
   136  H    0.036210
   137  H    0.019908
   138  H    0.033344
   139  H    0.031330
   140  H    0.017998
 Sum of Mulliken charges =  -0.00000

 Dipole moment (field-independent basis, Debye):
    X=             -3.7544    Y=              3.9523    Z=              0.0318  Tot=              5.4514
 Quadrupole moment (field-independent basis, Debye-Ang):
   XX=           -368.3110   YY=           -418.5292   ZZ=           -407.5752
   XY=             16.7228   XZ=             19.3093   YZ=             -2.1676

 Normal termination of Gaussian 16 at Wed May  4 11:28:46 2022.
