 Gaussian 16, Revision A.03,
 Gaussian 16:  ES64L-G16RevA.03 25-Dec-2016

 --------------------
 #p ZINDO=(nstates=5)
 --------------------

 ------------------------------
 step_1651_chromophore_16 ZINDO
 ------------------------------
 Symbolic Z-matrix:
 Charge =  0 Multiplicity = 1

                         Standard orientation:
 ---------------------------------------------------------------------
 Center     Atomic      Atomic             Coordinates (Angstroms)
 Number     Number       Type             X           Y           Z
 ---------------------------------------------------------------------
      1         12           0        6.078871    0.417756    0.260951
      2          6           0        3.980562   -2.225128    0.127819
      3          6           0        3.497110    2.447107   -0.853975
      4          6           0        8.201239    3.198350   -0.229829
      5          6           0        8.792211   -1.617648    0.349919
      6          7           0        3.976927    0.148278   -0.275566
      7          6           0        3.281221   -0.994643   -0.198188
      8          6           0        1.816874   -0.853766   -0.434905
      9          6           0        1.697835    0.612874   -0.866029
     10          6           0        3.161342    1.111173   -0.726436
     11          6           0        1.083489    0.897860   -2.241836
     12          6           0        0.883326   -1.289588    0.790466
     13          6           0       -0.170016   -2.278890    0.382949
     14          6           0       -1.645095   -2.185621    0.912672
     15          8           0       -2.053453   -1.698528    1.948821
     16          8           0       -2.425165   -2.953858    0.081279
     17          7           0        5.830524    2.638308   -0.082939
     18          6           0        4.711628    3.194935   -0.571393
     19          6           0        4.945413    4.657649   -0.629065
     20          6           0        6.267854    4.927536   -0.311849
     21          6           0        6.827882    3.538608   -0.272633
     22          6           0        3.952698    5.601361   -1.113819
     23          6           0        7.035064    6.176557   -0.193311
     24          8           0        8.257610    6.181265   -0.136077
     25          6           0        6.368328    7.529102   -0.076310
     26          7           0        8.183399    0.765714   -0.001935
     27          6           0        8.827650    1.921874   -0.063751
     28          6           0       10.331700    1.807836    0.334364
     29          6           0       10.461804    0.285108    0.435819
     30          6           0        9.058141   -0.273364    0.185941
     31          6           0       11.268154    2.455727   -0.770374
     32          6           0       11.129102   -0.145892    1.760440
     33          6           0       10.281942   -0.318904    3.005547
     34          7           0        6.334858   -1.477178    0.218680
     35          6           0        7.496742   -2.218629    0.318261
     36          6           0        7.166528   -3.642644    0.420270
     37          6           0        5.760449   -3.735400    0.406215
     38          6           0        5.350719   -2.375410    0.310297
     39          6           0        8.140672   -4.820612    0.624231
     40          6           0        4.557824   -4.526995    0.533126
     41          8           0        4.450464   -5.762004    0.696179
     42          6           0        3.345651   -3.629321    0.211223
     43          6           0        2.781403   -4.019724   -1.103450
     44          8           0        3.299075   -3.740333   -2.207884
     45          8           0        1.556466   -4.639894   -1.018070
     46          6           0        0.686127   -4.695292   -2.176946
     47          6           0       -3.829821   -3.240291    0.509278
     48          6           0       -4.777392   -2.170875    0.031711
     49          6           0       -6.125606   -2.264921   -0.340247
     50          6           0       -6.934905   -3.478117   -0.184838
     51          6           0       -6.926077   -1.103169   -0.965378
     52          6           0       -7.644871   -0.247321    0.083052
     53          6           0       -9.146420   -0.117771   -0.218331
     54          6           0       -9.386663    1.162577   -1.013585
     55          6           0       -9.718001    2.335464    0.000184
     56          6           0      -10.524676    1.045373   -2.032756
     57          6           0      -11.810894    0.411486   -1.584663
     58          6           0      -13.050971    1.123939   -2.110460
     59          6           0      -14.314299    0.699424   -1.377551
     60          6           0      -15.420176    0.119277   -2.292629
     61          6           0      -14.802348    1.701447   -0.293398
     62          6           0      -14.667815    1.117543    1.192823
     63          6           0      -13.955267    2.149176    2.006733
     64          6           0      -13.148593    1.452537    3.169611
     65          6           0      -11.759820    0.883745    2.700864
     66          6           0      -13.044687    2.504019    4.280898
     67          1           0        2.592114    3.025629   -1.053615
     68          1           0        8.943259    3.999433   -0.198588
     69          1           0        9.637841   -2.297342    0.467021
     70          1           0        1.570716   -1.461881   -1.305197
     71          1           0        1.110392    1.132091   -0.107559
     72          1           0        1.700068    1.489751   -2.918583
     73          1           0        0.338702    1.673023   -2.060185
     74          1           0        0.586067    0.076842   -2.758586
     75          1           0        0.330602   -0.445348    1.203852
     76          1           0        1.549926   -1.636640    1.579458
     77          1           0        0.224632   -3.151134    0.904554
     78          1           0       -0.141730   -2.382300   -0.702011
     79          1           0        3.214300    5.091688   -1.731003
     80          1           0        4.285679    6.421195   -1.749886
     81          1           0        3.417645    6.156444   -0.342627
     82          1           0        7.036238    8.323858    0.253833
     83          1           0        5.556879    7.426041    0.644458
     84          1           0        6.005898    7.867826   -1.046952
     85          1           0       10.423126    2.202043    1.346730
     86          1           0       11.077252   -0.211907   -0.313330
     87          1           0       10.687277    2.805390   -1.623800
     88          1           0       11.913028    1.632429   -1.078348
     89          1           0       11.957545    3.172463   -0.324937
     90          1           0       11.909989    0.568706    2.018890
     91          1           0       11.635137   -1.084345    1.534295
     92          1           0        9.251503   -0.018711    2.816878
     93          1           0       10.684819    0.377274    3.741738
     94          1           0       10.353548   -1.327834    3.411823
     95          1           0        8.673802   -4.669742    1.562892
     96          1           0        8.823999   -4.735750   -0.221433
     97          1           0        7.606738   -5.770278    0.669331
     98          1           0        2.589677   -3.863186    0.961231
     99          1           0        0.623543   -3.840049   -2.850439
    100          1           0       -0.350910   -4.742626   -1.845422
    101          1           0        0.838876   -5.638344   -2.700773
    102          1           0       -3.895541   -3.269395    1.597063
    103          1           0       -4.118823   -4.228961    0.155138
    104          1           0       -4.439152   -1.143263   -0.097972
    105          1           0       -7.735940   -3.203071    0.500499
    106          1           0       -6.380070   -4.323688    0.220670
    107          1           0       -7.326045   -3.703234   -1.177351
    108          1           0       -7.714268   -1.447969   -1.635358
    109          1           0       -6.258802   -0.429277   -1.503317
    110          1           0       -7.144838    0.719317    0.015266
    111          1           0       -7.611148   -0.513750    1.139315
    112          1           0       -9.644030   -0.248427    0.742765
    113          1           0       -9.516486   -0.941681   -0.829523
    114          1           0       -8.531990    1.363972   -1.660495
    115          1           0      -10.601011    2.922448   -0.253484
    116          1           0       -8.810527    2.936999    0.039900
    117          1           0       -9.758731    1.922275    1.007660
    118          1           0      -10.110259    0.443432   -2.841221
    119          1           0      -10.734059    2.067259   -2.349697
    120          1           0      -11.932367    0.316837   -0.505623
    121          1           0      -11.807992   -0.576390   -2.044168
    122          1           0      -13.159088    0.892204   -3.169579
    123          1           0      -12.878407    2.188698   -1.947147
    124          1           0      -14.017386   -0.193196   -0.825114
    125          1           0      -15.222855    0.045476   -3.362248
    126          1           0      -16.281841    0.785338   -2.331436
    127          1           0      -15.702823   -0.900419   -2.029753
    128          1           0      -15.881192    1.793582   -0.421689
    129          1           0      -14.393014    2.704382   -0.415895
    130          1           0      -14.264044    0.104985    1.206693
    131          1           0      -15.647777    0.990538    1.651867
    132          1           0      -14.705485    2.755665    2.513572
    133          1           0      -13.369756    2.766055    1.324756
    134          1           0      -13.669299    0.616974    3.635759
    135          1           0      -11.788680   -0.203138    2.634210
    136          1           0      -10.970734    1.186912    3.388787
    137          1           0      -11.597002    1.181763    1.665283
    138          1           0      -13.983239    2.716727    4.794677
    139          1           0      -12.630561    3.418104    3.858028
    140          1           0      -12.394949    2.090739    5.051712
 ---------------------------------------------------------------------

 SCF Done:  E(RZINDO/S) =  -474.503945954     A.U. after   20 cycles

 Excitation energies and oscillator strengths:

 Excited State   1:      Singlet-A      1.2826 eV  966.69 nm  f=0.5622  <S**2>=0.000
     175 ->178         0.17545
     176 ->177         0.66826
 This state for optimization and/or second-order correction.
 Total Energy, E(CIS/TDA) =  -474.456812732
 Copying the excited state density for this state as the 1-particle RhoCI density.

 Excited State   2:      Singlet-A      1.8856 eV  657.53 nm  f=0.0076  <S**2>=0.000
     175 ->177         0.49297
     176 ->178        -0.47677

 Excited State   3:      Singlet-A      2.8066 eV  441.76 nm  f=0.1119  <S**2>=0.000
     176 ->179         0.62436
     176 ->180         0.21113
     176 ->183        -0.11336

 Excited State   4:      Singlet-A      2.8447 eV  435.85 nm  f=0.0659  <S**2>=0.000
     168 ->177        -0.31254
     168 ->179         0.39186
     168 ->180        -0.23912
     168 ->185         0.17150
     168 ->186        -0.10110
     171 ->177         0.12489
     175 ->177         0.13132
     176 ->178         0.14798

 Excited State   5:      Singlet-A      2.8905 eV  428.93 nm  f=0.8755  <S**2>=0.000
     168 ->177         0.11837
     168 ->179        -0.13676
     175 ->177         0.41463
     176 ->178         0.45566
     176 ->179         0.17617

 The electronic state is 1-A.
 Alpha  occ. eigenvalues --   -1.85709  -1.82193  -1.81873  -1.73253  -1.71827
 Alpha  occ. eigenvalues --   -1.70528  -1.68106  -1.61875  -1.60775  -1.57959
 Alpha  occ. eigenvalues --   -1.55787  -1.51576  -1.49415  -1.47611  -1.46765
 Alpha  occ. eigenvalues --   -1.44650  -1.42222  -1.40301  -1.39366  -1.39291
 Alpha  occ. eigenvalues --   -1.36456  -1.33343  -1.32720  -1.31903  -1.28375
 Alpha  occ. eigenvalues --   -1.27576  -1.24742  -1.22580  -1.21059  -1.18383
 Alpha  occ. eigenvalues --   -1.17592  -1.17379  -1.15858  -1.14007  -1.13618
 Alpha  occ. eigenvalues --   -1.12812  -1.11538  -1.10542  -1.05650  -1.04034
 Alpha  occ. eigenvalues --   -1.02778  -1.01378  -0.99375  -0.97750  -0.97460
 Alpha  occ. eigenvalues --   -0.96920  -0.95897  -0.95166  -0.93939  -0.93274
 Alpha  occ. eigenvalues --   -0.90245  -0.89720  -0.88784  -0.87421  -0.85704
 Alpha  occ. eigenvalues --   -0.84867  -0.84563  -0.82680  -0.81391  -0.81087
 Alpha  occ. eigenvalues --   -0.79462  -0.79091  -0.78232  -0.76997  -0.76068
 Alpha  occ. eigenvalues --   -0.75756  -0.74999  -0.74516  -0.74501  -0.73730
 Alpha  occ. eigenvalues --   -0.73084  -0.72619  -0.72288  -0.72082  -0.71297
 Alpha  occ. eigenvalues --   -0.70742  -0.70544  -0.68937  -0.68559  -0.67924
 Alpha  occ. eigenvalues --   -0.67242  -0.67079  -0.66949  -0.66151  -0.65977
 Alpha  occ. eigenvalues --   -0.65304  -0.65217  -0.64648  -0.64029  -0.63717
 Alpha  occ. eigenvalues --   -0.63137  -0.62523  -0.62290  -0.62160  -0.62020
 Alpha  occ. eigenvalues --   -0.61491  -0.61236  -0.61119  -0.60082  -0.59940
 Alpha  occ. eigenvalues --   -0.59784  -0.59502  -0.58651  -0.58085  -0.57695
 Alpha  occ. eigenvalues --   -0.57528  -0.57501  -0.57145  -0.56774  -0.56323
 Alpha  occ. eigenvalues --   -0.56123  -0.55988  -0.55509  -0.55338  -0.54515
 Alpha  occ. eigenvalues --   -0.54108  -0.53968  -0.53437  -0.53308  -0.53087
 Alpha  occ. eigenvalues --   -0.52651  -0.52369  -0.52088  -0.51986  -0.51522
 Alpha  occ. eigenvalues --   -0.51365  -0.51294  -0.50572  -0.50413  -0.50317
 Alpha  occ. eigenvalues --   -0.49956  -0.49733  -0.49535  -0.49124  -0.49042
 Alpha  occ. eigenvalues --   -0.48912  -0.48665  -0.48463  -0.48003  -0.47851
 Alpha  occ. eigenvalues --   -0.47633  -0.47053  -0.47008  -0.46728  -0.46430
 Alpha  occ. eigenvalues --   -0.46304  -0.46211  -0.45810  -0.45776  -0.44808
 Alpha  occ. eigenvalues --   -0.44760  -0.44546  -0.43856  -0.43743  -0.43481
 Alpha  occ. eigenvalues --   -0.43412  -0.42836  -0.42601  -0.42422  -0.41888
 Alpha  occ. eigenvalues --   -0.41219  -0.41183  -0.40839  -0.39298  -0.38075
 Alpha  occ. eigenvalues --   -0.37955  -0.37666  -0.36280  -0.34436  -0.34284
 Alpha  occ. eigenvalues --   -0.33616  -0.32406  -0.31939  -0.30748  -0.26639
 Alpha  occ. eigenvalues --   -0.21330
 Alpha virt. eigenvalues --   -0.07962  -0.02234  -0.01134   0.00820   0.01511
 Alpha virt. eigenvalues --    0.01814   0.02623   0.03058   0.04410   0.04423
 Alpha virt. eigenvalues --    0.06177   0.06670   0.07266   0.07684   0.07964

 Mulliken charges:
               1
     1  Mg   0.435278
     2  C   -0.057673
     3  C   -0.108127
     4  C   -0.090387
     5  C   -0.060183
     6  N   -0.270556
     7  C    0.109204
     8  C    0.002528
     9  C    0.010807
    10  C    0.160253
    11  C   -0.053685
    12  C   -0.024562
    13  C    0.000960
    14  C    0.465481
    15  O   -0.508156
    16  O   -0.278660
    17  N   -0.324814
    18  C    0.145397
    19  C    0.050329
    20  C   -0.029207
    21  C    0.158670
    22  C   -0.041191
    23  C    0.336784
    24  O   -0.519224
    25  C   -0.026619
    26  N   -0.261378
    27  C    0.171252
    28  C    0.002926
    29  C    0.000067
    30  C    0.083716
    31  C   -0.053342
    32  C   -0.028768
    33  C   -0.052928
    34  N   -0.302066
    35  C    0.058054
    36  C    0.008718
    37  C   -0.063074
    38  C    0.111414
    39  C   -0.042811
    40  C    0.335195
    41  O   -0.548807
    42  C    0.059735
    43  C    0.493043
    44  O   -0.541630
    45  O   -0.269372
    46  C    0.078857
    47  C    0.118361
    48  C   -0.105797
    49  C   -0.011294
    50  C   -0.040126
    51  C   -0.016808
    52  C   -0.034578
    53  C   -0.033698
    54  C   -0.012938
    55  C   -0.066316
    56  C   -0.035623
    57  C   -0.033285
    58  C   -0.031134
    59  C   -0.013314
    60  C   -0.060906
    61  C   -0.041690
    62  C   -0.040321
    63  C   -0.030902
    64  C   -0.020306
    65  C   -0.064046
    66  C   -0.057789
    67  H    0.014647
    68  H    0.043767
    69  H    0.030454
    70  H    0.037156
    71  H    0.032037
    72  H    0.026670
    73  H    0.007565
    74  H    0.032579
    75  H    0.028222
    76  H    0.029793
    77  H    0.050431
    78  H    0.046459
    79  H    0.022298
    80  H    0.024351
    81  H    0.033760
    82  H    0.039726
    83  H    0.028613
    84  H    0.039741
    85  H    0.046158
    86  H    0.025997
    87  H    0.037612
    88  H    0.017112
    89  H    0.028088
    90  H    0.012402
    91  H    0.011473
    92  H    0.025943
    93  H    0.011584
    94  H    0.025345
    95  H    0.026594
    96  H    0.029100
    97  H    0.038319
    98  H    0.054103
    99  H    0.046942
   100  H    0.020652
   101  H    0.046718
   102  H    0.054919
   103  H    0.041631
   104  H    0.031604
   105  H    0.032032
   106  H    0.020208
   107  H    0.028278
   108  H    0.027475
   109  H    0.020189
   110  H    0.015538
   111  H    0.022196
   112  H    0.020690
   113  H    0.011695
   114  H    0.022698
   115  H    0.030360
   116  H    0.012757
   117  H    0.023436
   118  H    0.011244
   119  H    0.014203
   120  H    0.024972
   121  H    0.013599
   122  H    0.019840
   123  H    0.017317
   124  H    0.012429
   125  H    0.013034
   126  H    0.014753
   127  H    0.019821
   128  H    0.010628
   129  H    0.030274
   130  H    0.027082
   131  H    0.013082
   132  H    0.016774
   133  H    0.030249
   134  H    0.022366
   135  H    0.014830
   136  H    0.026511
   137  H    0.024393
   138  H    0.017982
   139  H    0.019678
   140  H    0.007881
 Sum of Mulliken charges =  -0.00000

 Dipole moment (field-independent basis, Debye):
    X=             -5.1121    Y=              8.6517    Z=             -0.6699  Tot=             10.0714
 N-N= 4.254681146177D+03 E-N= 0.000000000000D+00  KE=-9.183793470115D+03
 Leave Link  601 at Wed May  4 11:40:22 2022, MaxMem=  6710886400 cpu:               0.7 elap:               0.0
 (Enter /sw/apps/gaussian-16.0/g16/l9999.exe)
 1\1\GINC-BP1-COMPUTE097\SP\RZINDO CIS\STO-3G\C55H74Mg1N4O6\OF15641\04-
 May-2022\0\\#p ZINDO=(nstates=5)\\step_1651_chromophore_16 ZINDO\\0,1\
 Mg,0,40.684,41.503,27.418\C,0,39.542,43.606,29.801\C,0,41.88,39.417,29
 .917\C,0,42.453,39.456,25.147\C,0,40.461,43.917,25.044\N,0,40.688,41.4
 98,29.604\C,0,40.11,42.41,30.398\C,0,40.093,42.059,31.846\C,0,40.947,4
 0.786,31.881\C,0,41.262,40.566,30.377\C,0,42.195,40.796,32.772\C,0,38.
 637,41.93,32.499\C,0,38.489,42.768,33.736\C,0,37.745,42.238,35.013\O,0

 Normal termination of Gaussian 16 at Wed May  4 11:40:22 2022.
