 Gaussian 16, Revision A.03,
 Gaussian 16:  ES64L-G16RevA.03 25-Dec-2016

 ------------------------------
 #p blyp/Def2SVP td=(nstates=5)
 ------------------------------

 --------------------------------------------------
 step_951_chromophore_10 TDDFT with blyp functional
 --------------------------------------------------
 Symbolic Z-matrix:
 Charge =  0 Multiplicity = 1

                         Standard orientation:
 ---------------------------------------------------------------------
 Center     Atomic      Atomic             Coordinates (Angstroms)
 Number     Number       Type             X           Y           Z
 ---------------------------------------------------------------------
      1         12           0        6.085807    0.559065    0.179832
      2          6           0        4.091319   -2.095026    0.162335
      3          6           0        3.787905    2.282556   -1.777781
      4          6           0        8.012156    3.300117    0.223674
      5          6           0        8.706141   -1.318592    1.473617
      6          7           0        4.185452    0.013114   -0.884817
      7          6           0        3.423075   -1.017829   -0.502016
      8          6           0        2.082118   -0.923151   -1.135034
      9          6           0        2.106734    0.470338   -1.863458
     10          6           0        3.480121    0.944487   -1.506922
     11          6           0        1.812296    0.389709   -3.454588
     12          6           0        0.931403   -1.266396   -0.166176
     13          6           0       -0.555028   -0.999935   -0.634562
     14          6           0       -1.605272   -2.143913   -0.605104
     15          8           0       -1.501530   -3.218274   -1.201529
     16          8           0       -2.585281   -1.884007    0.314029
     17          7           0        5.933322    2.507265   -0.657089
     18          6           0        4.928931    3.001719   -1.470518
     19          6           0        5.120684    4.411081   -1.731577
     20          6           0        6.322034    4.748188   -1.006735
     21          6           0        6.862360    3.468273   -0.451871
     22          6           0        4.234349    5.385460   -2.461748
     23          6           0        7.060590    6.082012   -0.913658
     24          8           0        8.176359    6.256484   -0.451802
     25          6           0        6.375635    7.444075   -1.460257
     26          7           0        8.139895    0.889079    0.544171
     27          6           0        8.622120    2.127209    0.715999
     28          6           0       10.039917    2.125126    1.421009
     29          6           0       10.190283    0.633696    1.931785
     30          6           0        9.009017   -0.014196    1.202676
     31          6           0       11.137439    2.559925    0.343972
     32          6           0       10.083734    0.533046    3.502599
     33          6           0        8.740211    0.894558    4.136147
     34          7           0        6.434867   -1.372709    0.638083
     35          6           0        7.478253   -1.984964    1.211322
     36          6           0        7.106980   -3.333399    1.538942
     37          6           0        5.781702   -3.452786    1.119041
     38          6           0        5.413500   -2.158989    0.573476
     39          6           0        8.019480   -4.351895    2.148535
     40          6           0        4.650616   -4.330625    1.037470
     41          8           0        4.437525   -5.519975    1.348806
     42          6           0        3.463168   -3.500997    0.394655
     43          6           0        2.942509   -4.131110   -0.897850
     44          8           0        3.408289   -4.066167   -2.024323
     45          8           0        1.840784   -4.889591   -0.541841
     46          6           0        1.258374   -5.634723   -1.673118
     47          6           0       -3.524903   -2.997313    0.517642
     48          6           0       -4.930120   -2.416938    0.525114
     49          6           0       -6.045399   -3.070831    0.031649
     50          6           0       -6.139580   -4.495402   -0.525660
     51          6           0       -7.416393   -2.299446    0.027715
     52          6           0       -7.690953   -1.062145   -0.949143
     53          6           0       -8.482081   -1.555736   -2.213259
     54          6           0       -9.855216   -1.010778   -2.412168
     55          6           0      -10.407730   -1.479986   -3.740237
     56          6           0      -10.102234    0.483211   -2.197470
     57          6           0      -11.476151    0.768552   -1.549954
     58          6           0      -11.413507    0.720373    0.017578
     59          6           0      -11.576742    2.121147    0.669501
     60          6           0      -10.096214    2.558223    1.008173
     61          6           0      -12.582939    2.207345    1.893792
     62          6           0      -13.966915    3.013554    1.669859
     63          6           0      -15.228228    2.082471    1.650376
     64          6           0      -16.259585    2.655319    2.669853
     65          6           0      -16.417343    1.790450    3.912899
     66          6           0      -17.584014    3.080489    1.988261
     67          1           0        2.983908    2.823489   -2.280772
     68          1           0        8.709625    4.109942    0.446139
     69          1           0        9.407638   -2.025960    1.921770
     70          1           0        1.939110   -1.713835   -1.870526
     71          1           0        1.379009    1.111050   -1.364825
     72          1           0        2.635322    0.865336   -3.987658
     73          1           0        0.848835    0.886314   -3.573785
     74          1           0        1.666697   -0.652418   -3.740659
     75          1           0        1.144895   -0.913154    0.841845
     76          1           0        0.893714   -2.350610   -0.052835
     77          1           0       -0.440185   -0.718328   -1.680465
     78          1           0       -1.020974   -0.177847   -0.091461
     79          1           0        3.309331    4.951679   -2.841879
     80          1           0        4.760070    5.740105   -3.349035
     81          1           0        3.922137    6.154603   -1.755231
     82          1           0        6.031466    7.427313   -2.494227
     83          1           0        6.945132    8.361136   -1.310329
     84          1           0        5.560474    7.568021   -0.747592
     85          1           0       10.012606    2.855346    2.229789
     86          1           0       11.167019    0.252787    1.633543
     87          1           0       10.790043    2.978061   -0.600379
     88          1           0       11.870446    1.771787    0.168932
     89          1           0       11.770896    3.292881    0.843448
     90          1           0       10.862468    1.136934    3.967221
     91          1           0       10.360117   -0.479547    3.797376
     92          1           0        8.053907    0.643986    3.327947
     93          1           0        8.791238    1.909815    4.532246
     94          1           0        8.589990    0.241319    4.995829
     95          1           0        8.570104   -3.816657    2.922775
     96          1           0        8.743064   -4.668646    1.397595
     97          1           0        7.378711   -5.064608    2.668953
     98          1           0        2.645348   -3.488226    1.116037
     99          1           0        2.065224   -6.094802   -2.244200
    100          1           0        0.784915   -4.922145   -2.349812
    101          1           0        0.649795   -6.441094   -1.265439
    102          1           0       -3.430537   -3.368272    1.538956
    103          1           0       -3.354609   -3.847296   -0.143211
    104          1           0       -5.037044   -1.353574    0.740921
    105          1           0       -6.608769   -4.313665   -1.492681
    106          1           0       -6.798773   -5.103686    0.092021
    107          1           0       -5.142618   -4.923228   -0.632821
    108          1           0       -7.583179   -1.854124    1.008729
    109          1           0       -8.239164   -3.011538   -0.035736
    110          1           0       -6.805769   -0.583209   -1.365429
    111          1           0       -8.152574   -0.261948   -0.370389
    112          1           0       -8.410754   -2.621385   -2.433500
    113          1           0       -7.971585   -1.082251   -3.052181
    114          1           0      -10.396332   -1.510065   -1.608683
    115          1           0      -11.186578   -2.192786   -3.469418
    116          1           0       -9.720892   -2.081213   -4.336026
    117          1           0      -10.845144   -0.654068   -4.300103
    118          1           0      -10.234007    0.937541   -3.179298
    119          1           0       -9.289781    0.963825   -1.652246
    120          1           0      -12.173816    0.116413   -2.077175
    121          1           0      -11.628864    1.813957   -1.818380
    122          1           0      -10.556959    0.103623    0.288834
    123          1           0      -12.288577    0.129640    0.286216
    124          1           0      -11.835099    2.867292   -0.081532
    125          1           0       -9.892196    2.897535    2.023208
    126          1           0       -9.805658    3.412954    0.397084
    127          1           0       -9.329074    1.839858    0.722532
    128          1           0      -12.111885    2.600283    2.793775
    129          1           0      -12.908752    1.225979    2.238375
    130          1           0      -13.844946    3.571979    0.741672
    131          1           0      -13.973952    3.781736    2.444261
    132          1           0      -15.040076    1.064188    1.989750
    133          1           0      -15.551983    2.238112    0.621251
    134          1           0      -16.022275    3.610942    3.136579
    135          1           0      -17.380302    1.299155    4.058258
    136          1           0      -16.298894    2.404073    4.805077
    137          1           0      -15.750025    0.930511    3.850707
    138          1           0      -17.727566    4.155469    2.101513
    139          1           0      -18.515685    2.626488    2.325110
    140          1           0      -17.542630    2.809295    0.933733
 ---------------------------------------------------------------------

 SCF Done:  E(RB-LYP) =  -3007.34745207     A.U. after   22 cycles

 Excitation energies and oscillator strengths:

 Excited State   1:      Singlet-A      1.8203 eV  681.13 nm  f=0.1263  <S**2>=0.000
     243 -> 247       -0.19952
     244 -> 247        0.47895
     245 -> 247        0.17729
     245 -> 248       -0.11873
     246 -> 247       -0.43541
 This state for optimization and/or second-order correction.
 Total Energy, E(TD-HF/TD-DFT) =  -3007.28055826
 Copying the excited state density for this state as the 1-particle RhoCI density.

 Excited State   2:      Singlet-A      1.8476 eV  671.06 nm  f=0.1369  <S**2>=0.000
     243 -> 247        0.22902
     244 -> 247        0.50699
     245 -> 248        0.12218
     246 -> 247        0.42458

 Excited State   3:      Singlet-A      1.8868 eV  657.13 nm  f=0.0782  <S**2>=0.000
     243 -> 247        0.59016
     245 -> 247       -0.19494
     245 -> 248       -0.10234
     246 -> 247       -0.32265

 Excited State   4:      Singlet-A      2.0595 eV  602.00 nm  f=0.0522  <S**2>=0.000
     243 -> 247        0.23432
     244 -> 247       -0.10819
     245 -> 247        0.59461
     246 -> 248       -0.26275

 Excited State   5:      Singlet-A      2.2655 eV  547.27 nm  f=0.0001  <S**2>=0.000
     242 -> 247        0.70709

 The electronic state is 1-A.
 Alpha  occ. eigenvalues --  -46.27441 -18.82987 -18.81204 -18.77263 -18.76624
 Alpha  occ. eigenvalues --  -18.75758 -18.75075 -14.03239 -14.03151 -14.01071
 Alpha  occ. eigenvalues --  -14.00789 -10.04783 -10.03418 -10.00400  -9.99280
 Alpha  occ. eigenvalues --   -9.97938  -9.96491  -9.96429  -9.96255  -9.96197
 Alpha  occ. eigenvalues --   -9.96049  -9.95746  -9.95643  -9.94938  -9.94574
 Alpha  occ. eigenvalues --   -9.94464  -9.94301  -9.94268  -9.94128  -9.94068
 Alpha  occ. eigenvalues --   -9.93882  -9.93767  -9.93660  -9.93638  -9.93586
 Alpha  occ. eigenvalues --   -9.93476  -9.93323  -9.93190  -9.93106  -9.92746
 Alpha  occ. eigenvalues --   -9.92745  -9.92687  -9.92624  -9.92469  -9.92407
 Alpha  occ. eigenvalues --   -9.92314  -9.92215  -9.92158  -9.92071  -9.91862
 Alpha  occ. eigenvalues --   -9.91657  -9.91647  -9.91605  -9.91530  -9.91424
 Alpha  occ. eigenvalues --   -9.91325  -9.91209  -9.91174  -9.91112  -9.91006
 Alpha  occ. eigenvalues --   -9.90969  -9.90764  -9.90713  -9.90680  -9.90633
 Alpha  occ. eigenvalues --   -9.90399  -2.92149  -1.72545  -1.72047  -1.71859
 Alpha  occ. eigenvalues --   -0.98284  -0.96633  -0.91581  -0.89905  -0.89498
 Alpha  occ. eigenvalues --   -0.89133  -0.88378  -0.87678  -0.85761  -0.84817
 Alpha  occ. eigenvalues --   -0.75027  -0.73752  -0.72857  -0.72614  -0.72103
 Alpha  occ. eigenvalues --   -0.71832  -0.71777  -0.70916  -0.70754  -0.70719
 Alpha  occ. eigenvalues --   -0.70077  -0.68799  -0.67722  -0.67109  -0.67061
 Alpha  occ. eigenvalues --   -0.66184  -0.65574  -0.64926  -0.64664  -0.64188
 Alpha  occ. eigenvalues --   -0.63405  -0.62835  -0.62317  -0.61811  -0.60529
 Alpha  occ. eigenvalues --   -0.60367  -0.60303  -0.59646  -0.59396  -0.58924
 Alpha  occ. eigenvalues --   -0.58432  -0.57852  -0.57062  -0.56079  -0.54939
 Alpha  occ. eigenvalues --   -0.54180  -0.53786  -0.52976  -0.52790  -0.51676
 Alpha  occ. eigenvalues --   -0.51516  -0.50832  -0.50736  -0.50224  -0.50077
 Alpha  occ. eigenvalues --   -0.49810  -0.49384  -0.48027  -0.47708  -0.46693
 Alpha  occ. eigenvalues --   -0.46451  -0.45978  -0.45459  -0.45183  -0.44078
 Alpha  occ. eigenvalues --   -0.43958  -0.43404  -0.43109  -0.42530  -0.42359
 Alpha  occ. eigenvalues --   -0.42004  -0.41792  -0.41497  -0.41473  -0.41074
 Alpha  occ. eigenvalues --   -0.40698  -0.40657  -0.40205  -0.39939  -0.39912
 Alpha  occ. eigenvalues --   -0.39835  -0.39730  -0.39578  -0.39301  -0.38854
 Alpha  occ. eigenvalues --   -0.38744  -0.38653  -0.38176  -0.37964  -0.37817
 Alpha  occ. eigenvalues --   -0.37598  -0.37510  -0.37442  -0.37295  -0.37185
 Alpha  occ. eigenvalues --   -0.37149  -0.37117  -0.36775  -0.36630  -0.36408
 Alpha  occ. eigenvalues --   -0.36186  -0.36066  -0.35899  -0.35725  -0.35574
 Alpha  occ. eigenvalues --   -0.35508  -0.35283  -0.35186  -0.35079  -0.34878
 Alpha  occ. eigenvalues --   -0.34739  -0.34463  -0.34389  -0.34203  -0.34105
 Alpha  occ. eigenvalues --   -0.33726  -0.33673  -0.33419  -0.33334  -0.32857
 Alpha  occ. eigenvalues --   -0.32807  -0.32568  -0.32489  -0.32412  -0.32166
 Alpha  occ. eigenvalues --   -0.32060  -0.31905  -0.31772  -0.31595  -0.31241
 Alpha  occ. eigenvalues --   -0.31215  -0.31070  -0.30881  -0.30769  -0.30679
 Alpha  occ. eigenvalues --   -0.30654  -0.30529  -0.30434  -0.30400  -0.30314
 Alpha  occ. eigenvalues --   -0.29899  -0.29531  -0.29334  -0.29195  -0.29099
 Alpha  occ. eigenvalues --   -0.28720  -0.27979  -0.27891  -0.27704  -0.27401
 Alpha  occ. eigenvalues --   -0.27372  -0.27213  -0.26812  -0.26673  -0.26603
 Alpha  occ. eigenvalues --   -0.26371  -0.26217  -0.25860  -0.25745  -0.25132
 Alpha  occ. eigenvalues --   -0.25038  -0.24329  -0.24239  -0.23936  -0.23631
 Alpha  occ. eigenvalues --   -0.23519  -0.22284  -0.22247  -0.21639  -0.21196
 Alpha  occ. eigenvalues --   -0.20705  -0.19745  -0.18244  -0.18066  -0.17412
 Alpha  occ. eigenvalues --   -0.15893
 Alpha virt. eigenvalues --   -0.11420  -0.06953  -0.06398  -0.04664  -0.03768
 Alpha virt. eigenvalues --   -0.03414  -0.02298  -0.02232  -0.01591   0.00468
 Alpha virt. eigenvalues --    0.01457   0.02114   0.02448   0.02769   0.03321

 Mulliken charges:
               1
     1  Mg   0.676028
     2  C   -0.022654
     3  C   -0.098206
     4  C   -0.052462
     5  C   -0.068995
     6  N   -0.161913
     7  C   -0.061972
     8  C    0.025979
     9  C   -0.011228
    10  C    0.000587
    11  C    0.122553
    12  C    0.060413
    13  C    0.157359
    14  C    0.069039
    15  O   -0.201757
    16  O   -0.258839
    17  N   -0.273148
    18  C    0.179710
    19  C   -0.146916
    20  C    0.012046
    21  C    0.193168
    22  C    0.188347
    23  C   -0.056403
    24  O   -0.153695
    25  C    0.091207
    26  N   -0.233728
    27  C   -0.048358
    28  C    0.010009
    29  C    0.060234
    30  C    0.066624
    31  C    0.110450
    32  C    0.047379
    33  C    0.068711
    34  N   -0.207302
    35  C    0.050430
    36  C   -0.212547
    37  C    0.117818
    38  C    0.096027
    39  C    0.196290
    40  C   -0.053993
    41  O   -0.153848
    42  C    0.025184
    43  C    0.125298
    44  O   -0.180445
    45  O   -0.279026
    46  C    0.232015
    47  C    0.297613
    48  C   -0.089133
    49  C   -0.153791
    50  C    0.154173
    51  C    0.096505
    52  C    0.087116
    53  C    0.080343
    54  C   -0.076956
    55  C    0.138910
    56  C    0.082260
    57  C    0.052853
    58  C    0.121491
    59  C   -0.035678
    60  C    0.079498
    61  C    0.100035
    62  C    0.028206
    63  C    0.149514
    64  C   -0.106236
    65  C    0.103073
    66  C    0.089685
    67  H   -0.069182
    68  H   -0.049631
    69  H   -0.066586
    70  H   -0.002513
    71  H   -0.021858
    72  H    0.009599
    73  H   -0.000998
    74  H    0.006598
    75  H   -0.029068
    76  H    0.000743
    77  H   -0.016549
    78  H   -0.010655
    79  H   -0.026181
    80  H    0.016884
    81  H    0.014086
    82  H    0.006433
    83  H   -0.017196
    84  H   -0.004319
    85  H   -0.013348
    86  H   -0.029141
    87  H    0.020586
    88  H   -0.016648
    89  H   -0.013390
    90  H   -0.028422
    91  H   -0.027577
    92  H    0.021476
    93  H    0.002414
    94  H   -0.012912
    95  H   -0.015833
    96  H    0.017294
    97  H    0.013023
    98  H    0.003663
    99  H    0.005427
   100  H    0.016229
   101  H    0.017771
   102  H    0.001402
   103  H    0.020959
   104  H   -0.028828
   105  H    0.006469
   106  H    0.011714
   107  H   -0.013638
   108  H   -0.031450
   109  H   -0.036215
   110  H   -0.029773
   111  H   -0.022252
   112  H   -0.025525
   113  H   -0.053534
   114  H   -0.048392
   115  H   -0.025316
   116  H   -0.021768
   117  H   -0.015376
   118  H   -0.044357
   119  H   -0.036707
   120  H   -0.028125
   121  H   -0.037589
   122  H   -0.020487
   123  H   -0.045001
   124  H   -0.023085
   125  H   -0.019531
   126  H   -0.030718
   127  H   -0.021364
   128  H   -0.040020
   129  H   -0.040985
   130  H   -0.030635
   131  H   -0.023061
   132  H   -0.011130
   133  H   -0.018491
   134  H   -0.027813
   135  H   -0.027156
   136  H   -0.012717
   137  H   -0.026175
   138  H   -0.015845
   139  H   -0.025138
   140  H   -0.027516
 Sum of Mulliken charges =  -0.00000

 Dipole moment (field-independent basis, Debye):
    X=             -3.6274    Y=              3.5816    Z=              1.2732  Tot=              5.2543
 Quadrupole moment (field-independent basis, Debye-Ang):
   XX=           -384.9889   YY=           -433.4744   ZZ=           -399.9767
   XY=              2.3316   XZ=             18.5925   YZ=             -2.4202

 Normal termination of Gaussian 16 at Sat Apr 30 23:16:59 2022.
