 Gaussian 16, Revision A.03,
 Gaussian 16:  ES64L-G16RevA.03 25-Dec-2016

 -----------------------------------
 #p cam-b3lyp/Def2SVP td=(nstates=5)
 -----------------------------------

 -------------------------------------------------------
 step_951_chromophore_10 TDDFT with cam-b3lyp functional
 -------------------------------------------------------
 Symbolic Z-matrix:
 Charge =  0 Multiplicity = 1

                         Standard orientation:
 ---------------------------------------------------------------------
 Center     Atomic      Atomic             Coordinates (Angstroms)
 Number     Number       Type             X           Y           Z
 ---------------------------------------------------------------------
      1         12           0        6.085807    0.559065    0.179832
      2          6           0        4.091319   -2.095026    0.162335
      3          6           0        3.787905    2.282556   -1.777781
      4          6           0        8.012156    3.300117    0.223674
      5          6           0        8.706141   -1.318592    1.473617
      6          7           0        4.185452    0.013114   -0.884817
      7          6           0        3.423075   -1.017829   -0.502016
      8          6           0        2.082118   -0.923151   -1.135034
      9          6           0        2.106734    0.470338   -1.863458
     10          6           0        3.480121    0.944487   -1.506922
     11          6           0        1.812296    0.389709   -3.454588
     12          6           0        0.931403   -1.266396   -0.166176
     13          6           0       -0.555028   -0.999935   -0.634562
     14          6           0       -1.605272   -2.143913   -0.605104
     15          8           0       -1.501530   -3.218274   -1.201529
     16          8           0       -2.585281   -1.884007    0.314029
     17          7           0        5.933322    2.507265   -0.657089
     18          6           0        4.928931    3.001719   -1.470518
     19          6           0        5.120684    4.411081   -1.731577
     20          6           0        6.322034    4.748188   -1.006735
     21          6           0        6.862360    3.468273   -0.451871
     22          6           0        4.234349    5.385460   -2.461748
     23          6           0        7.060590    6.082012   -0.913658
     24          8           0        8.176359    6.256484   -0.451802
     25          6           0        6.375635    7.444075   -1.460257
     26          7           0        8.139895    0.889079    0.544171
     27          6           0        8.622120    2.127209    0.715999
     28          6           0       10.039917    2.125126    1.421009
     29          6           0       10.190283    0.633696    1.931785
     30          6           0        9.009017   -0.014196    1.202676
     31          6           0       11.137439    2.559925    0.343972
     32          6           0       10.083734    0.533046    3.502599
     33          6           0        8.740211    0.894558    4.136147
     34          7           0        6.434867   -1.372709    0.638083
     35          6           0        7.478253   -1.984964    1.211322
     36          6           0        7.106980   -3.333399    1.538942
     37          6           0        5.781702   -3.452786    1.119041
     38          6           0        5.413500   -2.158989    0.573476
     39          6           0        8.019480   -4.351895    2.148535
     40          6           0        4.650616   -4.330625    1.037470
     41          8           0        4.437525   -5.519975    1.348806
     42          6           0        3.463168   -3.500997    0.394655
     43          6           0        2.942509   -4.131110   -0.897850
     44          8           0        3.408289   -4.066167   -2.024323
     45          8           0        1.840784   -4.889591   -0.541841
     46          6           0        1.258374   -5.634723   -1.673118
     47          6           0       -3.524903   -2.997313    0.517642
     48          6           0       -4.930120   -2.416938    0.525114
     49          6           0       -6.045399   -3.070831    0.031649
     50          6           0       -6.139580   -4.495402   -0.525660
     51          6           0       -7.416393   -2.299446    0.027715
     52          6           0       -7.690953   -1.062145   -0.949143
     53          6           0       -8.482081   -1.555736   -2.213259
     54          6           0       -9.855216   -1.010778   -2.412168
     55          6           0      -10.407730   -1.479986   -3.740237
     56          6           0      -10.102234    0.483211   -2.197470
     57          6           0      -11.476151    0.768552   -1.549954
     58          6           0      -11.413507    0.720373    0.017578
     59          6           0      -11.576742    2.121147    0.669501
     60          6           0      -10.096214    2.558223    1.008173
     61          6           0      -12.582939    2.207345    1.893792
     62          6           0      -13.966915    3.013554    1.669859
     63          6           0      -15.228228    2.082471    1.650376
     64          6           0      -16.259585    2.655319    2.669853
     65          6           0      -16.417343    1.790450    3.912899
     66          6           0      -17.584014    3.080489    1.988261
     67          1           0        2.983908    2.823489   -2.280772
     68          1           0        8.709625    4.109942    0.446139
     69          1           0        9.407638   -2.025960    1.921770
     70          1           0        1.939110   -1.713835   -1.870526
     71          1           0        1.379009    1.111050   -1.364825
     72          1           0        2.635322    0.865336   -3.987658
     73          1           0        0.848835    0.886314   -3.573785
     74          1           0        1.666697   -0.652418   -3.740659
     75          1           0        1.144895   -0.913154    0.841845
     76          1           0        0.893714   -2.350610   -0.052835
     77          1           0       -0.440185   -0.718328   -1.680465
     78          1           0       -1.020974   -0.177847   -0.091461
     79          1           0        3.309331    4.951679   -2.841879
     80          1           0        4.760070    5.740105   -3.349035
     81          1           0        3.922137    6.154603   -1.755231
     82          1           0        6.031466    7.427313   -2.494227
     83          1           0        6.945132    8.361136   -1.310329
     84          1           0        5.560474    7.568021   -0.747592
     85          1           0       10.012606    2.855346    2.229789
     86          1           0       11.167019    0.252787    1.633543
     87          1           0       10.790043    2.978061   -0.600379
     88          1           0       11.870446    1.771787    0.168932
     89          1           0       11.770896    3.292881    0.843448
     90          1           0       10.862468    1.136934    3.967221
     91          1           0       10.360117   -0.479547    3.797376
     92          1           0        8.053907    0.643986    3.327947
     93          1           0        8.791238    1.909815    4.532246
     94          1           0        8.589990    0.241319    4.995829
     95          1           0        8.570104   -3.816657    2.922775
     96          1           0        8.743064   -4.668646    1.397595
     97          1           0        7.378711   -5.064608    2.668953
     98          1           0        2.645348   -3.488226    1.116037
     99          1           0        2.065224   -6.094802   -2.244200
    100          1           0        0.784915   -4.922145   -2.349812
    101          1           0        0.649795   -6.441094   -1.265439
    102          1           0       -3.430537   -3.368272    1.538956
    103          1           0       -3.354609   -3.847296   -0.143211
    104          1           0       -5.037044   -1.353574    0.740921
    105          1           0       -6.608769   -4.313665   -1.492681
    106          1           0       -6.798773   -5.103686    0.092021
    107          1           0       -5.142618   -4.923228   -0.632821
    108          1           0       -7.583179   -1.854124    1.008729
    109          1           0       -8.239164   -3.011538   -0.035736
    110          1           0       -6.805769   -0.583209   -1.365429
    111          1           0       -8.152574   -0.261948   -0.370389
    112          1           0       -8.410754   -2.621385   -2.433500
    113          1           0       -7.971585   -1.082251   -3.052181
    114          1           0      -10.396332   -1.510065   -1.608683
    115          1           0      -11.186578   -2.192786   -3.469418
    116          1           0       -9.720892   -2.081213   -4.336026
    117          1           0      -10.845144   -0.654068   -4.300103
    118          1           0      -10.234007    0.937541   -3.179298
    119          1           0       -9.289781    0.963825   -1.652246
    120          1           0      -12.173816    0.116413   -2.077175
    121          1           0      -11.628864    1.813957   -1.818380
    122          1           0      -10.556959    0.103623    0.288834
    123          1           0      -12.288577    0.129640    0.286216
    124          1           0      -11.835099    2.867292   -0.081532
    125          1           0       -9.892196    2.897535    2.023208
    126          1           0       -9.805658    3.412954    0.397084
    127          1           0       -9.329074    1.839858    0.722532
    128          1           0      -12.111885    2.600283    2.793775
    129          1           0      -12.908752    1.225979    2.238375
    130          1           0      -13.844946    3.571979    0.741672
    131          1           0      -13.973952    3.781736    2.444261
    132          1           0      -15.040076    1.064188    1.989750
    133          1           0      -15.551983    2.238112    0.621251
    134          1           0      -16.022275    3.610942    3.136579
    135          1           0      -17.380302    1.299155    4.058258
    136          1           0      -16.298894    2.404073    4.805077
    137          1           0      -15.750025    0.930511    3.850707
    138          1           0      -17.727566    4.155469    2.101513
    139          1           0      -18.515685    2.626488    2.325110
    140          1           0      -17.542630    2.809295    0.933733
 ---------------------------------------------------------------------

 SCF Done:  E(RCAM-B3LYP) =  -3007.13678843     A.U. after   17 cycles

 Excitation energies and oscillator strengths:

 Excited State   1:      Singlet-A      1.7962 eV  690.25 nm  f=0.3956  <S**2>=0.000
     245 -> 248       -0.18193
     246 -> 247        0.68442
     245 <- 248       -0.10361
 This state for optimization and/or second-order correction.
 Total Energy, E(TD-HF/TD-DFT) =  -3007.07077832
 Copying the excited state density for this state as the 1-particle RhoCI density.

 Excited State   2:      Singlet-A      2.3024 eV  538.50 nm  f=0.0728  <S**2>=0.000
     245 -> 247        0.62633
     246 -> 248        0.31489

 Excited State   3:      Singlet-A      3.3980 eV  364.88 nm  f=0.0735  <S**2>=0.000
     240 -> 247        0.21928
     240 -> 249        0.15750
     240 -> 251       -0.14292
     241 -> 247        0.34646
     241 -> 249        0.12995
     242 -> 247        0.35565
     243 -> 247       -0.12102
     246 -> 248        0.26823

 Excited State   4:      Singlet-A      3.4332 eV  361.13 nm  f=0.0053  <S**2>=0.000
     241 -> 247        0.14179
     243 -> 247        0.51715
     243 -> 249       -0.33305
     243 -> 251       -0.21480

 Excited State   5:      Singlet-A      3.5156 eV  352.67 nm  f=0.2829  <S**2>=0.000
     239 -> 247        0.14497
     240 -> 247        0.43317
     240 -> 249        0.14472
     240 -> 251       -0.10955
     242 -> 247       -0.14037
     245 -> 247        0.17748
     246 -> 248       -0.40741

 The electronic state is 1-A.
 Alpha  occ. eigenvalues --  -46.88970 -19.25830 -19.23999 -19.20232 -19.19657
 Alpha  occ. eigenvalues --  -19.19319 -19.17885 -14.42168 -14.41907 -14.39598
 Alpha  occ. eigenvalues --  -14.39021 -10.40137 -10.38852 -10.36040 -10.34365
 Alpha  occ. eigenvalues --  -10.31937 -10.31229 -10.30679 -10.30648 -10.30509
 Alpha  occ. eigenvalues --  -10.30398 -10.30252 -10.30117 -10.29800 -10.28603
 Alpha  occ. eigenvalues --  -10.28353 -10.28341 -10.28309 -10.28190 -10.28150
 Alpha  occ. eigenvalues --  -10.28058 -10.27984 -10.27880 -10.27871 -10.27829
 Alpha  occ. eigenvalues --  -10.27757 -10.27583 -10.27109 -10.26989 -10.26960
 Alpha  occ. eigenvalues --  -10.26532 -10.26390 -10.26305 -10.26239 -10.26144
 Alpha  occ. eigenvalues --  -10.26097 -10.26041 -10.25987 -10.25892 -10.25805
 Alpha  occ. eigenvalues --  -10.25335 -10.25324 -10.25273 -10.25264 -10.25242
 Alpha  occ. eigenvalues --  -10.25164 -10.24894 -10.24856 -10.24781 -10.24648
 Alpha  occ. eigenvalues --  -10.24633 -10.24404 -10.24387 -10.24250 -10.24197
 Alpha  occ. eigenvalues --  -10.23978  -3.17584  -1.92455  -1.92050  -1.91887
 Alpha  occ. eigenvalues --   -1.16697  -1.15067  -1.10323  -1.07743  -1.07481
 Alpha  occ. eigenvalues --   -1.06944  -1.06041  -1.05221  -1.03567  -1.02406
 Alpha  occ. eigenvalues --   -0.91983  -0.90622  -0.89627  -0.89437  -0.88820
 Alpha  occ. eigenvalues --   -0.88517  -0.88419  -0.87597  -0.87282  -0.87174
 Alpha  occ. eigenvalues --   -0.86761  -0.85121  -0.83932  -0.83229  -0.83122
 Alpha  occ. eigenvalues --   -0.82209  -0.81547  -0.80739  -0.80458  -0.79989
 Alpha  occ. eigenvalues --   -0.79614  -0.78436  -0.78361  -0.77262  -0.75843
 Alpha  occ. eigenvalues --   -0.75745  -0.75638  -0.74854  -0.74689  -0.74155
 Alpha  occ. eigenvalues --   -0.73473  -0.72842  -0.71979  -0.70920  -0.69511
 Alpha  occ. eigenvalues --   -0.68753  -0.68306  -0.67540  -0.67325  -0.65853
 Alpha  occ. eigenvalues --   -0.65766  -0.64984  -0.64534  -0.64145  -0.64110
 Alpha  occ. eigenvalues --   -0.63645  -0.63339  -0.61825  -0.61362  -0.60468
 Alpha  occ. eigenvalues --   -0.60053  -0.59396  -0.58863  -0.58500  -0.57445
 Alpha  occ. eigenvalues --   -0.57336  -0.56841  -0.56296  -0.55580  -0.55306
 Alpha  occ. eigenvalues --   -0.55197  -0.54787  -0.54722  -0.54488  -0.53865
 Alpha  occ. eigenvalues --   -0.53842  -0.53209  -0.53048  -0.52951  -0.52755
 Alpha  occ. eigenvalues --   -0.52399  -0.52267  -0.52105  -0.52053  -0.51556
 Alpha  occ. eigenvalues --   -0.51266  -0.51075  -0.50643  -0.50432  -0.50302
 Alpha  occ. eigenvalues --   -0.50076  -0.49961  -0.49818  -0.49777  -0.49446
 Alpha  occ. eigenvalues --   -0.49320  -0.49273  -0.49169  -0.48894  -0.48676
 Alpha  occ. eigenvalues --   -0.48658  -0.48366  -0.48008  -0.47955  -0.47664
 Alpha  occ. eigenvalues --   -0.47620  -0.47586  -0.47200  -0.47101  -0.47016
 Alpha  occ. eigenvalues --   -0.46571  -0.46550  -0.46422  -0.46162  -0.45911
 Alpha  occ. eigenvalues --   -0.45531  -0.45380  -0.45163  -0.44920  -0.44534
 Alpha  occ. eigenvalues --   -0.44392  -0.44297  -0.44082  -0.43911  -0.43711
 Alpha  occ. eigenvalues --   -0.43531  -0.43495  -0.43390  -0.43216  -0.42913
 Alpha  occ. eigenvalues --   -0.42841  -0.42736  -0.42596  -0.42293  -0.42193
 Alpha  occ. eigenvalues --   -0.41894  -0.41880  -0.41802  -0.41619  -0.41488
 Alpha  occ. eigenvalues --   -0.41124  -0.41084  -0.40700  -0.40658  -0.40355
 Alpha  occ. eigenvalues --   -0.39667  -0.39083  -0.38854  -0.38626  -0.38244
 Alpha  occ. eigenvalues --   -0.38206  -0.38051  -0.37587  -0.37496  -0.37470
 Alpha  occ. eigenvalues --   -0.37183  -0.37063  -0.37047  -0.36508  -0.36152
 Alpha  occ. eigenvalues --   -0.35723  -0.35663  -0.34489  -0.34358  -0.34291
 Alpha  occ. eigenvalues --   -0.34125  -0.34086  -0.33475  -0.31408  -0.30665
 Alpha  occ. eigenvalues --   -0.30267  -0.30079  -0.29836  -0.29240  -0.24278
 Alpha  occ. eigenvalues --   -0.21185
 Alpha virt. eigenvalues --   -0.08298  -0.01849   0.00046   0.01600   0.02270
 Alpha virt. eigenvalues --    0.04058   0.05157   0.05526   0.05689   0.07276
 Alpha virt. eigenvalues --    0.08302   0.08764   0.09040   0.09203   0.09370

 Mulliken charges:
               1
     1  Mg   0.809455
     2  C   -0.036702
     3  C   -0.107814
     4  C   -0.082184
     5  C   -0.071635
     6  N   -0.230504
     7  C   -0.029375
     8  C   -0.019803
     9  C   -0.074615
    10  C    0.023054
    11  C    0.068298
    12  C    0.011852
    13  C    0.087526
    14  C    0.153738
    15  O   -0.245103
    16  O   -0.324830
    17  N   -0.363781
    18  C    0.190204
    19  C   -0.148407
    20  C   -0.049564
    21  C    0.217726
    22  C    0.127107
    23  C    0.017305
    24  O   -0.191819
    25  C    0.019042
    26  N   -0.303694
    27  C   -0.018488
    28  C   -0.041713
    29  C    0.005762
    30  C    0.072687
    31  C    0.053090
    32  C   -0.002677
    33  C    0.010903
    34  N   -0.300742
    35  C    0.048615
    36  C   -0.204694
    37  C    0.028320
    38  C    0.124848
    39  C    0.142704
    40  C    0.047979
    41  O   -0.195994
    42  C   -0.043351
    43  C    0.208940
    44  O   -0.217177
    45  O   -0.341751
    46  C    0.190056
    47  C    0.261394
    48  C   -0.108960
    49  C   -0.175367
    50  C    0.095117
    51  C    0.039060
    52  C    0.034505
    53  C    0.028224
    54  C   -0.126077
    55  C    0.073122
    56  C    0.026237
    57  C    0.005143
    58  C    0.065320
    59  C   -0.095271
    60  C    0.028826
    61  C    0.050207
    62  C   -0.020447
    63  C    0.088463
    64  C   -0.170051
    65  C    0.046754
    66  C    0.034666
    67  H   -0.033845
    68  H   -0.008952
    69  H   -0.030112
    70  H    0.028985
    71  H    0.012186
    72  H    0.034599
    73  H    0.021174
    74  H    0.032074
    75  H    0.003455
    76  H    0.028377
    77  H    0.013864
    78  H    0.024508
    79  H    0.005513
    80  H    0.044442
    81  H    0.041508
    82  H    0.032733
    83  H    0.019614
    84  H    0.022210
    85  H    0.020101
    86  H    0.006705
    87  H    0.045188
    88  H    0.009003
    89  H    0.011304
    90  H   -0.000497
    91  H    0.000663
    92  H    0.037951
    93  H    0.023651
    94  H    0.012668
    95  H    0.006709
    96  H    0.042177
    97  H    0.039464
    98  H    0.046536
    99  H    0.030535
   100  H    0.038519
   101  H    0.041553
   102  H    0.028890
   103  H    0.052839
   104  H    0.005660
   105  H    0.026845
   106  H    0.035253
   107  H    0.009948
   108  H   -0.000194
   109  H   -0.006419
   110  H    0.000534
   111  H    0.000358
   112  H    0.001302
   113  H   -0.023467
   114  H   -0.018960
   115  H    0.000362
   116  H    0.005108
   117  H    0.008942
   118  H   -0.014038
   119  H   -0.010379
   120  H   -0.000225
   121  H   -0.008769
   122  H    0.003884
   123  H   -0.014436
   124  H    0.007486
   125  H    0.005291
   126  H   -0.006310
   127  H   -0.002651
   128  H   -0.010125
   129  H   -0.013764
   130  H   -0.003459
   131  H    0.004801
   132  H    0.014183
   133  H    0.010887
   134  H    0.004246
   135  H   -0.002317
   136  H    0.010890
   137  H   -0.003340
   138  H    0.007311
   139  H   -0.000487
   140  H   -0.003899
 Sum of Mulliken charges =  -0.00000

 Dipole moment (field-independent basis, Debye):
    X=             -3.8143    Y=              5.0442    Z=              0.8856  Tot=              6.3857
 Quadrupole moment (field-independent basis, Debye-Ang):
   XX=           -385.5867   YY=           -428.1658   ZZ=           -399.2322
   XY=              9.8230   XZ=             17.8559   YZ=             -4.0708

 Normal termination of Gaussian 16 at Sat Apr 30 22:12:19 2022.
