 Gaussian 16, Revision A.03,
 Gaussian 16:  ES64L-G16RevA.03 25-Dec-2016

 ---------------------------------
 #p PBE1PBE/Def2SVP td=(nstates=5)
 ---------------------------------

 -----------------------------------------------------
 step_951_chromophore_10 TDDFT with PBE1PBE functional
 -----------------------------------------------------
 Symbolic Z-matrix:
 Charge =  0 Multiplicity = 1

                         Standard orientation:
 ---------------------------------------------------------------------
 Center     Atomic      Atomic             Coordinates (Angstroms)
 Number     Number       Type             X           Y           Z
 ---------------------------------------------------------------------
      1         12           0        6.085807    0.559065    0.179832
      2          6           0        4.091319   -2.095026    0.162335
      3          6           0        3.787905    2.282556   -1.777781
      4          6           0        8.012156    3.300117    0.223674
      5          6           0        8.706141   -1.318592    1.473617
      6          7           0        4.185452    0.013114   -0.884817
      7          6           0        3.423075   -1.017829   -0.502016
      8          6           0        2.082118   -0.923151   -1.135034
      9          6           0        2.106734    0.470338   -1.863458
     10          6           0        3.480121    0.944487   -1.506922
     11          6           0        1.812296    0.389709   -3.454588
     12          6           0        0.931403   -1.266396   -0.166176
     13          6           0       -0.555028   -0.999935   -0.634562
     14          6           0       -1.605272   -2.143913   -0.605104
     15          8           0       -1.501530   -3.218274   -1.201529
     16          8           0       -2.585281   -1.884007    0.314029
     17          7           0        5.933322    2.507265   -0.657089
     18          6           0        4.928931    3.001719   -1.470518
     19          6           0        5.120684    4.411081   -1.731577
     20          6           0        6.322034    4.748188   -1.006735
     21          6           0        6.862360    3.468273   -0.451871
     22          6           0        4.234349    5.385460   -2.461748
     23          6           0        7.060590    6.082012   -0.913658
     24          8           0        8.176359    6.256484   -0.451802
     25          6           0        6.375635    7.444075   -1.460257
     26          7           0        8.139895    0.889079    0.544171
     27          6           0        8.622120    2.127209    0.715999
     28          6           0       10.039917    2.125126    1.421009
     29          6           0       10.190283    0.633696    1.931785
     30          6           0        9.009017   -0.014196    1.202676
     31          6           0       11.137439    2.559925    0.343972
     32          6           0       10.083734    0.533046    3.502599
     33          6           0        8.740211    0.894558    4.136147
     34          7           0        6.434867   -1.372709    0.638083
     35          6           0        7.478253   -1.984964    1.211322
     36          6           0        7.106980   -3.333399    1.538942
     37          6           0        5.781702   -3.452786    1.119041
     38          6           0        5.413500   -2.158989    0.573476
     39          6           0        8.019480   -4.351895    2.148535
     40          6           0        4.650616   -4.330625    1.037470
     41          8           0        4.437525   -5.519975    1.348806
     42          6           0        3.463168   -3.500997    0.394655
     43          6           0        2.942509   -4.131110   -0.897850
     44          8           0        3.408289   -4.066167   -2.024323
     45          8           0        1.840784   -4.889591   -0.541841
     46          6           0        1.258374   -5.634723   -1.673118
     47          6           0       -3.524903   -2.997313    0.517642
     48          6           0       -4.930120   -2.416938    0.525114
     49          6           0       -6.045399   -3.070831    0.031649
     50          6           0       -6.139580   -4.495402   -0.525660
     51          6           0       -7.416393   -2.299446    0.027715
     52          6           0       -7.690953   -1.062145   -0.949143
     53          6           0       -8.482081   -1.555736   -2.213259
     54          6           0       -9.855216   -1.010778   -2.412168
     55          6           0      -10.407730   -1.479986   -3.740237
     56          6           0      -10.102234    0.483211   -2.197470
     57          6           0      -11.476151    0.768552   -1.549954
     58          6           0      -11.413507    0.720373    0.017578
     59          6           0      -11.576742    2.121147    0.669501
     60          6           0      -10.096214    2.558223    1.008173
     61          6           0      -12.582939    2.207345    1.893792
     62          6           0      -13.966915    3.013554    1.669859
     63          6           0      -15.228228    2.082471    1.650376
     64          6           0      -16.259585    2.655319    2.669853
     65          6           0      -16.417343    1.790450    3.912899
     66          6           0      -17.584014    3.080489    1.988261
     67          1           0        2.983908    2.823489   -2.280772
     68          1           0        8.709625    4.109942    0.446139
     69          1           0        9.407638   -2.025960    1.921770
     70          1           0        1.939110   -1.713835   -1.870526
     71          1           0        1.379009    1.111050   -1.364825
     72          1           0        2.635322    0.865336   -3.987658
     73          1           0        0.848835    0.886314   -3.573785
     74          1           0        1.666697   -0.652418   -3.740659
     75          1           0        1.144895   -0.913154    0.841845
     76          1           0        0.893714   -2.350610   -0.052835
     77          1           0       -0.440185   -0.718328   -1.680465
     78          1           0       -1.020974   -0.177847   -0.091461
     79          1           0        3.309331    4.951679   -2.841879
     80          1           0        4.760070    5.740105   -3.349035
     81          1           0        3.922137    6.154603   -1.755231
     82          1           0        6.031466    7.427313   -2.494227
     83          1           0        6.945132    8.361136   -1.310329
     84          1           0        5.560474    7.568021   -0.747592
     85          1           0       10.012606    2.855346    2.229789
     86          1           0       11.167019    0.252787    1.633543
     87          1           0       10.790043    2.978061   -0.600379
     88          1           0       11.870446    1.771787    0.168932
     89          1           0       11.770896    3.292881    0.843448
     90          1           0       10.862468    1.136934    3.967221
     91          1           0       10.360117   -0.479547    3.797376
     92          1           0        8.053907    0.643986    3.327947
     93          1           0        8.791238    1.909815    4.532246
     94          1           0        8.589990    0.241319    4.995829
     95          1           0        8.570104   -3.816657    2.922775
     96          1           0        8.743064   -4.668646    1.397595
     97          1           0        7.378711   -5.064608    2.668953
     98          1           0        2.645348   -3.488226    1.116037
     99          1           0        2.065224   -6.094802   -2.244200
    100          1           0        0.784915   -4.922145   -2.349812
    101          1           0        0.649795   -6.441094   -1.265439
    102          1           0       -3.430537   -3.368272    1.538956
    103          1           0       -3.354609   -3.847296   -0.143211
    104          1           0       -5.037044   -1.353574    0.740921
    105          1           0       -6.608769   -4.313665   -1.492681
    106          1           0       -6.798773   -5.103686    0.092021
    107          1           0       -5.142618   -4.923228   -0.632821
    108          1           0       -7.583179   -1.854124    1.008729
    109          1           0       -8.239164   -3.011538   -0.035736
    110          1           0       -6.805769   -0.583209   -1.365429
    111          1           0       -8.152574   -0.261948   -0.370389
    112          1           0       -8.410754   -2.621385   -2.433500
    113          1           0       -7.971585   -1.082251   -3.052181
    114          1           0      -10.396332   -1.510065   -1.608683
    115          1           0      -11.186578   -2.192786   -3.469418
    116          1           0       -9.720892   -2.081213   -4.336026
    117          1           0      -10.845144   -0.654068   -4.300103
    118          1           0      -10.234007    0.937541   -3.179298
    119          1           0       -9.289781    0.963825   -1.652246
    120          1           0      -12.173816    0.116413   -2.077175
    121          1           0      -11.628864    1.813957   -1.818380
    122          1           0      -10.556959    0.103623    0.288834
    123          1           0      -12.288577    0.129640    0.286216
    124          1           0      -11.835099    2.867292   -0.081532
    125          1           0       -9.892196    2.897535    2.023208
    126          1           0       -9.805658    3.412954    0.397084
    127          1           0       -9.329074    1.839858    0.722532
    128          1           0      -12.111885    2.600283    2.793775
    129          1           0      -12.908752    1.225979    2.238375
    130          1           0      -13.844946    3.571979    0.741672
    131          1           0      -13.973952    3.781736    2.444261
    132          1           0      -15.040076    1.064188    1.989750
    133          1           0      -15.551983    2.238112    0.621251
    134          1           0      -16.022275    3.610942    3.136579
    135          1           0      -17.380302    1.299155    4.058258
    136          1           0      -16.298894    2.404073    4.805077
    137          1           0      -15.750025    0.930511    3.850707
    138          1           0      -17.727566    4.155469    2.101513
    139          1           0      -18.515685    2.626488    2.325110
    140          1           0      -17.542630    2.809295    0.933733
 ---------------------------------------------------------------------

 SCF Done:  E(RPBE1PBE) =  -3005.32498717     A.U. after   15 cycles

 Excitation energies and oscillator strengths:

 Excited State   1:      Singlet-A      1.9088 eV  649.54 nm  f=0.3862  <S**2>=0.000
     245 -> 248       -0.17856
     246 -> 247        0.69026
 This state for optimization and/or second-order correction.
 Total Energy, E(TD-HF/TD-DFT) =  -3005.25483988
 Copying the excited state density for this state as the 1-particle RhoCI density.

 Excited State   2:      Singlet-A      2.2839 eV  542.86 nm  f=0.0760  <S**2>=0.000
     245 -> 247        0.64148
     246 -> 248        0.28531

 Excited State   3:      Singlet-A      2.9123 eV  425.72 nm  f=0.0004  <S**2>=0.000
     243 -> 247        0.66575
     243 -> 249       -0.20286

 Excited State   4:      Singlet-A      2.9243 eV  423.98 nm  f=0.0007  <S**2>=0.000
     242 -> 247        0.66506
     242 -> 249        0.14587
     242 -> 250       -0.10734

 Excited State   5:      Singlet-A      3.2448 eV  382.10 nm  f=0.0213  <S**2>=0.000
     241 -> 247        0.65410
     246 -> 248       -0.20031

 The electronic state is 1-A.
 Alpha  occ. eigenvalues --  -46.92370 -19.26574 -19.24745 -19.20544 -19.19949
 Alpha  occ. eigenvalues --  -19.19303 -19.18385 -14.41601 -14.41514 -14.39192
 Alpha  occ. eigenvalues --  -14.38735 -10.37199 -10.35947 -10.32986 -10.31722
 Alpha  occ. eigenvalues --  -10.29397 -10.28759 -10.28601 -10.28258 -10.28181
 Alpha  occ. eigenvalues --  -10.27872 -10.27772 -10.27407 -10.27085 -10.26664
 Alpha  occ. eigenvalues --  -10.26257 -10.26147 -10.25921 -10.25904 -10.25892
 Alpha  occ. eigenvalues --  -10.25886 -10.25682 -10.25646 -10.25582 -10.25515
 Alpha  occ. eigenvalues --  -10.25258 -10.25124 -10.25057 -10.24478 -10.24417
 Alpha  occ. eigenvalues --  -10.24272 -10.24086 -10.23947 -10.23796 -10.23707
 Alpha  occ. eigenvalues --  -10.23629 -10.23594 -10.23449 -10.23364 -10.23250
 Alpha  occ. eigenvalues --  -10.22973 -10.22923 -10.22910 -10.22827 -10.22820
 Alpha  occ. eigenvalues --  -10.22787 -10.22766 -10.22453 -10.22438 -10.22315
 Alpha  occ. eigenvalues --  -10.22202 -10.21964 -10.21827 -10.21662 -10.21587
 Alpha  occ. eigenvalues --  -10.21375  -3.14564  -1.87375  -1.86950  -1.86790
 Alpha  occ. eigenvalues --   -1.11550  -1.09893  -1.04846  -1.02634  -1.02424
 Alpha  occ. eigenvalues --   -1.01844  -1.00822  -1.00046  -0.98075  -0.97000
 Alpha  occ. eigenvalues --   -0.86451  -0.84723  -0.83868  -0.83707  -0.82939
 Alpha  occ. eigenvalues --   -0.82731  -0.82659  -0.81856  -0.81590  -0.81403
 Alpha  occ. eigenvalues --   -0.81019  -0.79373  -0.78181  -0.77503  -0.77394
 Alpha  occ. eigenvalues --   -0.76418  -0.75815  -0.74996  -0.74802  -0.74150
 Alpha  occ. eigenvalues --   -0.73673  -0.72745  -0.72404  -0.71614  -0.70201
 Alpha  occ. eigenvalues --   -0.69841  -0.69823  -0.69221  -0.68813  -0.68341
 Alpha  occ. eigenvalues --   -0.67853  -0.67296  -0.66395  -0.65268  -0.63861
 Alpha  occ. eigenvalues --   -0.63297  -0.62586  -0.61883  -0.61567  -0.60340
 Alpha  occ. eigenvalues --   -0.59995  -0.59458  -0.59193  -0.58622  -0.58269
 Alpha  occ. eigenvalues --   -0.58147  -0.57535  -0.56028  -0.56011  -0.54907
 Alpha  occ. eigenvalues --   -0.54607  -0.54016  -0.53451  -0.53130  -0.51966
 Alpha  occ. eigenvalues --   -0.51846  -0.51339  -0.50864  -0.50144  -0.49847
 Alpha  occ. eigenvalues --   -0.49714  -0.49360  -0.49134  -0.49051  -0.48463
 Alpha  occ. eigenvalues --   -0.48310  -0.47696  -0.47552  -0.47422  -0.47078
 Alpha  occ. eigenvalues --   -0.46897  -0.46847  -0.46660  -0.46600  -0.46108
 Alpha  occ. eigenvalues --   -0.45970  -0.45597  -0.45173  -0.45123  -0.44867
 Alpha  occ. eigenvalues --   -0.44556  -0.44507  -0.44395  -0.44291  -0.44024
 Alpha  occ. eigenvalues --   -0.43919  -0.43844  -0.43716  -0.43429  -0.43354
 Alpha  occ. eigenvalues --   -0.43236  -0.42977  -0.42643  -0.42592  -0.42382
 Alpha  occ. eigenvalues --   -0.42231  -0.42038  -0.41864  -0.41768  -0.41610
 Alpha  occ. eigenvalues --   -0.41297  -0.41104  -0.41079  -0.40734  -0.40667
 Alpha  occ. eigenvalues --   -0.40266  -0.40027  -0.39988  -0.39626  -0.39309
 Alpha  occ. eigenvalues --   -0.39182  -0.39114  -0.38858  -0.38593  -0.38479
 Alpha  occ. eigenvalues --   -0.38392  -0.38303  -0.38250  -0.37978  -0.37735
 Alpha  occ. eigenvalues --   -0.37638  -0.37427  -0.37342  -0.37120  -0.37039
 Alpha  occ. eigenvalues --   -0.36757  -0.36752  -0.36664  -0.36449  -0.36408
 Alpha  occ. eigenvalues --   -0.36024  -0.35845  -0.35535  -0.35435  -0.35255
 Alpha  occ. eigenvalues --   -0.34610  -0.34021  -0.33709  -0.33454  -0.33188
 Alpha  occ. eigenvalues --   -0.33032  -0.32872  -0.32535  -0.32451  -0.32266
 Alpha  occ. eigenvalues --   -0.32152  -0.32099  -0.32081  -0.31334  -0.31121
 Alpha  occ. eigenvalues --   -0.30723  -0.30569  -0.29710  -0.29417  -0.29325
 Alpha  occ. eigenvalues --   -0.29172  -0.28938  -0.28690  -0.27004  -0.26128
 Alpha  occ. eigenvalues --   -0.25798  -0.25073  -0.24902  -0.24571  -0.21152
 Alpha  occ. eigenvalues --   -0.18816
 Alpha virt. eigenvalues --   -0.10910  -0.05350  -0.04138  -0.02127  -0.01230
 Alpha virt. eigenvalues --   -0.00588   0.00693   0.00833   0.01258   0.03491
 Alpha virt. eigenvalues --    0.04589   0.04890   0.05325   0.05697   0.06171

 Mulliken charges:
               1
     1  Mg   0.954800
     2  C   -0.033153
     3  C   -0.089662
     4  C   -0.073848
     5  C   -0.065407
     6  N   -0.340913
     7  C    0.043499
     8  C   -0.088078
     9  C   -0.154732
    10  C    0.061365
    11  C    0.010697
    12  C   -0.042505
    13  C    0.010052
    14  C    0.219657
    15  O   -0.278413
    16  O   -0.354881
    17  N   -0.476682
    18  C    0.207150
    19  C   -0.177685
    20  C   -0.089008
    21  C    0.238980
    22  C    0.066460
    23  C    0.066626
    24  O   -0.229319
    25  C   -0.056554
    26  N   -0.401117
    27  C    0.016643
    28  C   -0.112684
    29  C   -0.067071
    30  C    0.102325
    31  C   -0.001407
    32  C   -0.061360
    33  C   -0.067786
    34  N   -0.446104
    35  C    0.078595
    36  C   -0.217850
    37  C   -0.025685
    38  C    0.173316
    39  C    0.086341
    40  C    0.145141
    41  O   -0.239408
    42  C   -0.141141
    43  C    0.289070
    44  O   -0.252102
    45  O   -0.371814
    46  C    0.133846
    47  C    0.219903
    48  C   -0.124331
    49  C   -0.209492
    50  C    0.022649
    51  C   -0.023278
    52  C   -0.030335
    53  C   -0.031413
    54  C   -0.207918
    55  C    0.014234
    56  C   -0.034878
    57  C   -0.057493
    58  C    0.005008
    59  C   -0.181623
    60  C   -0.029395
    61  C    0.000435
    62  C   -0.078693
    63  C    0.023767
    64  C   -0.261323
    65  C   -0.008651
    66  C   -0.021591
    67  H   -0.001827
    68  H    0.023950
    69  H    0.001688
    70  H    0.069338
    71  H    0.050265
    72  H    0.062000
    73  H    0.047607
    74  H    0.057597
    75  H    0.036190
    76  H    0.068245
    77  H    0.050415
    78  H    0.056259
    79  H    0.032278
    80  H    0.070620
    81  H    0.067291
    82  H    0.057704
    83  H    0.046577
    84  H    0.049490
    85  H    0.055343
    86  H    0.042825
    87  H    0.071795
    88  H    0.035517
    89  H    0.039037
    90  H    0.033949
    91  H    0.033231
    92  H    0.073723
    93  H    0.051068
    94  H    0.041566
    95  H    0.035437
    96  H    0.071125
    97  H    0.068129
    98  H    0.082138
    99  H    0.052864
   100  H    0.061763
   101  H    0.063372
   102  H    0.057902
   103  H    0.077484
   104  H    0.035033
   105  H    0.057052
   106  H    0.062797
   107  H    0.038313
   108  H    0.032965
   109  H    0.026081
   110  H    0.032755
   111  H    0.035061
   112  H    0.033793
   113  H    0.012324
   114  H    0.022287
   115  H    0.028421
   116  H    0.032009
   117  H    0.035338
   118  H    0.020330
   119  H    0.024329
   120  H    0.032302
   121  H    0.024724
   122  H    0.037752
   123  H    0.020649
   124  H    0.043507
   125  H    0.032102
   126  H    0.021208
   127  H    0.027345
   128  H    0.021779
   129  H    0.018434
   130  H    0.028681
   131  H    0.036305
   132  H    0.044180
   133  H    0.043610
   134  H    0.041546
   135  H    0.024753
   136  H    0.037565
   137  H    0.023250
   138  H    0.034103
   139  H    0.026381
   140  H    0.023203
 Sum of Mulliken charges =  -0.00000

 Dipole moment (field-independent basis, Debye):
    X=             -3.7663    Y=              4.4303    Z=              1.1479  Tot=              5.9271
 Quadrupole moment (field-independent basis, Debye-Ang):
   XX=           -378.7809   YY=           -426.4851   ZZ=           -396.2956
   XY=              5.9393   XZ=             20.6216   YZ=             -3.7007

 Normal termination of Gaussian 16 at Sat Apr 30 22:32:50 2022.
