 Gaussian 16, Revision A.03,
 Gaussian 16:  ES64L-G16RevA.03 25-Dec-2016

 --------------------------------
 #p wB97XD/Def2SVP td=(nstates=5)
 --------------------------------

 ----------------------------------------------------
 step_951_chromophore_10 TDDFT with wB97XD functional
 ----------------------------------------------------
 Symbolic Z-matrix:
 Charge =  0 Multiplicity = 1

                         Standard orientation:
 ---------------------------------------------------------------------
 Center     Atomic      Atomic             Coordinates (Angstroms)
 Number     Number       Type             X           Y           Z
 ---------------------------------------------------------------------
      1         12           0        6.085807    0.559065    0.179832
      2          6           0        4.091319   -2.095026    0.162335
      3          6           0        3.787905    2.282556   -1.777781
      4          6           0        8.012156    3.300117    0.223674
      5          6           0        8.706141   -1.318592    1.473617
      6          7           0        4.185452    0.013114   -0.884817
      7          6           0        3.423075   -1.017829   -0.502016
      8          6           0        2.082118   -0.923151   -1.135034
      9          6           0        2.106734    0.470338   -1.863458
     10          6           0        3.480121    0.944487   -1.506922
     11          6           0        1.812296    0.389709   -3.454588
     12          6           0        0.931403   -1.266396   -0.166176
     13          6           0       -0.555028   -0.999935   -0.634562
     14          6           0       -1.605272   -2.143913   -0.605104
     15          8           0       -1.501530   -3.218274   -1.201529
     16          8           0       -2.585281   -1.884007    0.314029
     17          7           0        5.933322    2.507265   -0.657089
     18          6           0        4.928931    3.001719   -1.470518
     19          6           0        5.120684    4.411081   -1.731577
     20          6           0        6.322034    4.748188   -1.006735
     21          6           0        6.862360    3.468273   -0.451871
     22          6           0        4.234349    5.385460   -2.461748
     23          6           0        7.060590    6.082012   -0.913658
     24          8           0        8.176359    6.256484   -0.451802
     25          6           0        6.375635    7.444075   -1.460257
     26          7           0        8.139895    0.889079    0.544171
     27          6           0        8.622120    2.127209    0.715999
     28          6           0       10.039917    2.125126    1.421009
     29          6           0       10.190283    0.633696    1.931785
     30          6           0        9.009017   -0.014196    1.202676
     31          6           0       11.137439    2.559925    0.343972
     32          6           0       10.083734    0.533046    3.502599
     33          6           0        8.740211    0.894558    4.136147
     34          7           0        6.434867   -1.372709    0.638083
     35          6           0        7.478253   -1.984964    1.211322
     36          6           0        7.106980   -3.333399    1.538942
     37          6           0        5.781702   -3.452786    1.119041
     38          6           0        5.413500   -2.158989    0.573476
     39          6           0        8.019480   -4.351895    2.148535
     40          6           0        4.650616   -4.330625    1.037470
     41          8           0        4.437525   -5.519975    1.348806
     42          6           0        3.463168   -3.500997    0.394655
     43          6           0        2.942509   -4.131110   -0.897850
     44          8           0        3.408289   -4.066167   -2.024323
     45          8           0        1.840784   -4.889591   -0.541841
     46          6           0        1.258374   -5.634723   -1.673118
     47          6           0       -3.524903   -2.997313    0.517642
     48          6           0       -4.930120   -2.416938    0.525114
     49          6           0       -6.045399   -3.070831    0.031649
     50          6           0       -6.139580   -4.495402   -0.525660
     51          6           0       -7.416393   -2.299446    0.027715
     52          6           0       -7.690953   -1.062145   -0.949143
     53          6           0       -8.482081   -1.555736   -2.213259
     54          6           0       -9.855216   -1.010778   -2.412168
     55          6           0      -10.407730   -1.479986   -3.740237
     56          6           0      -10.102234    0.483211   -2.197470
     57          6           0      -11.476151    0.768552   -1.549954
     58          6           0      -11.413507    0.720373    0.017578
     59          6           0      -11.576742    2.121147    0.669501
     60          6           0      -10.096214    2.558223    1.008173
     61          6           0      -12.582939    2.207345    1.893792
     62          6           0      -13.966915    3.013554    1.669859
     63          6           0      -15.228228    2.082471    1.650376
     64          6           0      -16.259585    2.655319    2.669853
     65          6           0      -16.417343    1.790450    3.912899
     66          6           0      -17.584014    3.080489    1.988261
     67          1           0        2.983908    2.823489   -2.280772
     68          1           0        8.709625    4.109942    0.446139
     69          1           0        9.407638   -2.025960    1.921770
     70          1           0        1.939110   -1.713835   -1.870526
     71          1           0        1.379009    1.111050   -1.364825
     72          1           0        2.635322    0.865336   -3.987658
     73          1           0        0.848835    0.886314   -3.573785
     74          1           0        1.666697   -0.652418   -3.740659
     75          1           0        1.144895   -0.913154    0.841845
     76          1           0        0.893714   -2.350610   -0.052835
     77          1           0       -0.440185   -0.718328   -1.680465
     78          1           0       -1.020974   -0.177847   -0.091461
     79          1           0        3.309331    4.951679   -2.841879
     80          1           0        4.760070    5.740105   -3.349035
     81          1           0        3.922137    6.154603   -1.755231
     82          1           0        6.031466    7.427313   -2.494227
     83          1           0        6.945132    8.361136   -1.310329
     84          1           0        5.560474    7.568021   -0.747592
     85          1           0       10.012606    2.855346    2.229789
     86          1           0       11.167019    0.252787    1.633543
     87          1           0       10.790043    2.978061   -0.600379
     88          1           0       11.870446    1.771787    0.168932
     89          1           0       11.770896    3.292881    0.843448
     90          1           0       10.862468    1.136934    3.967221
     91          1           0       10.360117   -0.479547    3.797376
     92          1           0        8.053907    0.643986    3.327947
     93          1           0        8.791238    1.909815    4.532246
     94          1           0        8.589990    0.241319    4.995829
     95          1           0        8.570104   -3.816657    2.922775
     96          1           0        8.743064   -4.668646    1.397595
     97          1           0        7.378711   -5.064608    2.668953
     98          1           0        2.645348   -3.488226    1.116037
     99          1           0        2.065224   -6.094802   -2.244200
    100          1           0        0.784915   -4.922145   -2.349812
    101          1           0        0.649795   -6.441094   -1.265439
    102          1           0       -3.430537   -3.368272    1.538956
    103          1           0       -3.354609   -3.847296   -0.143211
    104          1           0       -5.037044   -1.353574    0.740921
    105          1           0       -6.608769   -4.313665   -1.492681
    106          1           0       -6.798773   -5.103686    0.092021
    107          1           0       -5.142618   -4.923228   -0.632821
    108          1           0       -7.583179   -1.854124    1.008729
    109          1           0       -8.239164   -3.011538   -0.035736
    110          1           0       -6.805769   -0.583209   -1.365429
    111          1           0       -8.152574   -0.261948   -0.370389
    112          1           0       -8.410754   -2.621385   -2.433500
    113          1           0       -7.971585   -1.082251   -3.052181
    114          1           0      -10.396332   -1.510065   -1.608683
    115          1           0      -11.186578   -2.192786   -3.469418
    116          1           0       -9.720892   -2.081213   -4.336026
    117          1           0      -10.845144   -0.654068   -4.300103
    118          1           0      -10.234007    0.937541   -3.179298
    119          1           0       -9.289781    0.963825   -1.652246
    120          1           0      -12.173816    0.116413   -2.077175
    121          1           0      -11.628864    1.813957   -1.818380
    122          1           0      -10.556959    0.103623    0.288834
    123          1           0      -12.288577    0.129640    0.286216
    124          1           0      -11.835099    2.867292   -0.081532
    125          1           0       -9.892196    2.897535    2.023208
    126          1           0       -9.805658    3.412954    0.397084
    127          1           0       -9.329074    1.839858    0.722532
    128          1           0      -12.111885    2.600283    2.793775
    129          1           0      -12.908752    1.225979    2.238375
    130          1           0      -13.844946    3.571979    0.741672
    131          1           0      -13.973952    3.781736    2.444261
    132          1           0      -15.040076    1.064188    1.989750
    133          1           0      -15.551983    2.238112    0.621251
    134          1           0      -16.022275    3.610942    3.136579
    135          1           0      -17.380302    1.299155    4.058258
    136          1           0      -16.298894    2.404073    4.805077
    137          1           0      -15.750025    0.930511    3.850707
    138          1           0      -17.727566    4.155469    2.101513
    139          1           0      -18.515685    2.626488    2.325110
    140          1           0      -17.542630    2.809295    0.933733
 ---------------------------------------------------------------------

 SCF Done:  E(RwB97XD) =  -3007.83592752     A.U. after   17 cycles

 Excitation energies and oscillator strengths:

 Excited State   1:      Singlet-A      1.7584 eV  705.08 nm  f=0.3935  <S**2>=0.000
     245 -> 248       -0.18603
     246 -> 247        0.68243
     245 <- 248       -0.11120
 This state for optimization and/or second-order correction.
 Total Energy, E(TD-HF/TD-DFT) =  -3007.77130640
 Copying the excited state density for this state as the 1-particle RhoCI density.

 Excited State   2:      Singlet-A      2.2539 eV  550.09 nm  f=0.0708  <S**2>=0.000
     245 -> 247        0.62484
     246 -> 248        0.31499

 Excited State   3:      Singlet-A      3.4006 eV  364.59 nm  f=0.0808  <S**2>=0.000
     240 -> 249        0.12253
     240 -> 250       -0.11569
     241 -> 247        0.39945
     241 -> 249        0.17162
     241 -> 250       -0.11785
     242 -> 247        0.36279
     242 -> 249        0.12121
     246 -> 248        0.28060

 Excited State   4:      Singlet-A      3.4763 eV  356.66 nm  f=0.0325  <S**2>=0.000
     240 -> 247        0.10425
     241 -> 247        0.10538
     243 -> 247        0.48666
     243 -> 249       -0.35325
     243 -> 250       -0.22552
     246 -> 248       -0.13073

 Excited State   5:      Singlet-A      3.5207 eV  352.15 nm  f=0.2338  <S**2>=0.000
     239 -> 247        0.12900
     240 -> 247        0.44025
     240 -> 249        0.13816
     241 -> 249        0.11693
     243 -> 247       -0.15555
     243 -> 249        0.11720
     245 -> 247        0.15539
     246 -> 248       -0.37134

 The electronic state is 1-A.
 Alpha  occ. eigenvalues --  -46.95317 -19.31088 -19.29207 -19.25163 -19.24564
 Alpha  occ. eigenvalues --  -19.24399 -19.22906 -14.46732 -14.46491 -14.44234
 Alpha  occ. eigenvalues --  -14.43548 -10.43948 -10.42688 -10.40098 -10.38351
 Alpha  occ. eigenvalues --  -10.35840 -10.35304 -10.34723 -10.34625 -10.34617
 Alpha  occ. eigenvalues --  -10.34500 -10.34230 -10.34048 -10.33829 -10.32521
 Alpha  occ. eigenvalues --  -10.32405 -10.32392 -10.32284 -10.32239 -10.32217
 Alpha  occ. eigenvalues --  -10.32174 -10.32027 -10.31906 -10.31879 -10.31876
 Alpha  occ. eigenvalues --  -10.31792 -10.31575 -10.31136 -10.31062 -10.30859
 Alpha  occ. eigenvalues --  -10.30552 -10.30275 -10.30224 -10.30164 -10.30072
 Alpha  occ. eigenvalues --  -10.30064 -10.29997 -10.29955 -10.29771 -10.29632
 Alpha  occ. eigenvalues --  -10.29302 -10.29261 -10.29228 -10.29169 -10.29142
 Alpha  occ. eigenvalues --  -10.29116 -10.28814 -10.28800 -10.28770 -10.28600
 Alpha  occ. eigenvalues --  -10.28565 -10.28323 -10.28250 -10.28082 -10.28001
 Alpha  occ. eigenvalues --  -10.27788  -3.21361  -1.94924  -1.94499  -1.94334
 Alpha  occ. eigenvalues --   -1.18889  -1.17199  -1.12599  -1.09940  -1.09657
 Alpha  occ. eigenvalues --   -1.09116  -1.08045  -1.07227  -1.05634  -1.04434
 Alpha  occ. eigenvalues --   -0.93922  -0.92381  -0.91478  -0.91384  -0.90606
 Alpha  occ. eigenvalues --   -0.90328  -0.90313  -0.89569  -0.89066  -0.89060
 Alpha  occ. eigenvalues --   -0.88703  -0.87013  -0.85813  -0.85111  -0.84983
 Alpha  occ. eigenvalues --   -0.84073  -0.83443  -0.82622  -0.82398  -0.81828
 Alpha  occ. eigenvalues --   -0.81573  -0.80402  -0.80271  -0.79173  -0.77772
 Alpha  occ. eigenvalues --   -0.77527  -0.77491  -0.76763  -0.76501  -0.75999
 Alpha  occ. eigenvalues --   -0.75410  -0.74820  -0.73937  -0.72863  -0.71413
 Alpha  occ. eigenvalues --   -0.70745  -0.70194  -0.69547  -0.69213  -0.67785
 Alpha  occ. eigenvalues --   -0.67646  -0.66985  -0.66521  -0.66077  -0.65932
 Alpha  occ. eigenvalues --   -0.65608  -0.65161  -0.63659  -0.63338  -0.62517
 Alpha  occ. eigenvalues --   -0.61997  -0.61354  -0.60836  -0.60491  -0.59340
 Alpha  occ. eigenvalues --   -0.59311  -0.58767  -0.58267  -0.57531  -0.57220
 Alpha  occ. eigenvalues --   -0.57119  -0.56772  -0.56610  -0.56397  -0.55777
 Alpha  occ. eigenvalues --   -0.55735  -0.55085  -0.54940  -0.54920  -0.54705
 Alpha  occ. eigenvalues --   -0.54259  -0.54175  -0.53981  -0.53953  -0.53517
 Alpha  occ. eigenvalues --   -0.53182  -0.52949  -0.52529  -0.52345  -0.52194
 Alpha  occ. eigenvalues --   -0.52041  -0.51910  -0.51724  -0.51705  -0.51359
 Alpha  occ. eigenvalues --   -0.51255  -0.51152  -0.51089  -0.50850  -0.50591
 Alpha  occ. eigenvalues --   -0.50544  -0.50280  -0.49962  -0.49881  -0.49600
 Alpha  occ. eigenvalues --   -0.49586  -0.49495  -0.49072  -0.48985  -0.48888
 Alpha  occ. eigenvalues --   -0.48490  -0.48390  -0.48330  -0.47999  -0.47828
 Alpha  occ. eigenvalues --   -0.47480  -0.47248  -0.47069  -0.46798  -0.46432
 Alpha  occ. eigenvalues --   -0.46287  -0.46180  -0.45991  -0.45772  -0.45619
 Alpha  occ. eigenvalues --   -0.45448  -0.45428  -0.45295  -0.45164  -0.44880
 Alpha  occ. eigenvalues --   -0.44825  -0.44691  -0.44496  -0.44222  -0.44091
 Alpha  occ. eigenvalues --   -0.43813  -0.43761  -0.43751  -0.43487  -0.43411
 Alpha  occ. eigenvalues --   -0.43069  -0.42949  -0.42579  -0.42534  -0.42282
 Alpha  occ. eigenvalues --   -0.41541  -0.40986  -0.40732  -0.40501  -0.40129
 Alpha  occ. eigenvalues --   -0.40086  -0.39901  -0.39474  -0.39448  -0.39319
 Alpha  occ. eigenvalues --   -0.39134  -0.39077  -0.38980  -0.38378  -0.38079
 Alpha  occ. eigenvalues --   -0.37702  -0.37509  -0.36452  -0.36226  -0.36203
 Alpha  occ. eigenvalues --   -0.36168  -0.35930  -0.35582  -0.33643  -0.32778
 Alpha  occ. eigenvalues --   -0.32366  -0.32226  -0.31770  -0.31284  -0.26227
 Alpha  occ. eigenvalues --   -0.23016
 Alpha virt. eigenvalues --   -0.06621   0.00068   0.02137   0.04363   0.04695
 Alpha virt. eigenvalues --    0.06267   0.07393   0.07727   0.08015   0.10079
 Alpha virt. eigenvalues --    0.11308   0.11507   0.12028   0.12353   0.12734

 Mulliken charges:
               1
     1  Mg   0.945939
     2  C   -0.038588
     3  C   -0.112966
     4  C   -0.096304
     5  C   -0.077800
     6  N   -0.301990
     7  C    0.007274
     8  C   -0.058178
     9  C   -0.132209
    10  C    0.050130
    11  C    0.022143
    12  C   -0.024489
    13  C    0.026468
    14  C    0.211560
    15  O   -0.276243
    16  O   -0.355026
    17  N   -0.446334
    18  C    0.205563
    19  C   -0.164625
    20  C   -0.086846
    21  C    0.239291
    22  C    0.078489
    23  C    0.062156
    24  O   -0.222272
    25  C   -0.040800
    26  N   -0.373398
    27  C    0.009031
    28  C   -0.093023
    29  C   -0.043303
    30  C    0.091280
    31  C    0.007704
    32  C   -0.047253
    33  C   -0.045084
    34  N   -0.398595
    35  C    0.062732
    36  C   -0.214821
    37  C   -0.022772
    38  C    0.153244
    39  C    0.097160
    40  C    0.125491
    41  O   -0.232084
    42  C   -0.106644
    43  C    0.268224
    44  O   -0.246264
    45  O   -0.371088
    46  C    0.149271
    47  C    0.234296
    48  C   -0.132047
    49  C   -0.201791
    50  C    0.042365
    51  C   -0.004333
    52  C   -0.011631
    53  C   -0.011839
    54  C   -0.177297
    55  C    0.022407
    56  C   -0.012903
    57  C   -0.038872
    58  C    0.024592
    59  C   -0.152579
    60  C   -0.014774
    61  C    0.014315
    62  C   -0.062873
    63  C    0.043157
    64  C   -0.233175
    65  C    0.002020
    66  C   -0.009652
    67  H   -0.009316
    68  H    0.018517
    69  H   -0.005014
    70  H    0.052728
    71  H    0.039224
    72  H    0.056229
    73  H    0.042116
    74  H    0.053813
    75  H    0.029691
    76  H    0.049029
    77  H    0.040404
    78  H    0.051599
    79  H    0.030212
    80  H    0.066994
    81  H    0.062904
    82  H    0.052873
    83  H    0.046491
    84  H    0.043045
    85  H    0.045977
    86  H    0.034327
    87  H    0.066253
    88  H    0.030369
    89  H    0.033430
    90  H    0.025461
    91  H    0.025009
    92  H    0.056956
    93  H    0.045266
    94  H    0.036950
    95  H    0.027136
    96  H    0.065731
    97  H    0.064005
    98  H    0.076169
    99  H    0.047625
   100  H    0.058181
   101  H    0.060517
   102  H    0.052718
   103  H    0.071451
   104  H    0.032983
   105  H    0.048386
   106  H    0.057576
   107  H    0.032429
   108  H    0.025663
   109  H    0.017178
   110  H    0.025828
   111  H    0.020330
   112  H    0.023869
   113  H    0.000457
   114  H    0.004898
   115  H    0.022984
   116  H    0.027080
   117  H    0.029476
   118  H    0.010076
   119  H    0.010509
   120  H    0.024212
   121  H    0.014962
   122  H    0.023251
   123  H    0.010982
   124  H    0.029375
   125  H    0.026887
   126  H    0.015480
   127  H    0.016604
   128  H    0.014537
   129  H    0.007054
   130  H    0.020344
   131  H    0.027568
   132  H    0.033591
   133  H    0.035179
   134  H    0.029031
   135  H    0.018603
   136  H    0.032702
   137  H    0.016118
   138  H    0.028753
   139  H    0.020604
   140  H    0.015836
 Sum of Mulliken charges =  -0.00000

 Dipole moment (field-independent basis, Debye):
    X=             -3.8888    Y=              5.2814    Z=              0.8658  Tot=              6.6155
 Quadrupole moment (field-independent basis, Debye-Ang):
   XX=           -381.0335   YY=           -423.6361   ZZ=           -395.8408
   XY=             11.0198   XZ=             18.7489   YZ=             -4.3990

 Normal termination of Gaussian 16 at Sat Apr 30 23:03:33 2022.
