 Gaussian 16, Revision A.03,
 Gaussian 16:  ES64L-G16RevA.03 25-Dec-2016

 --------------------
 #p ZINDO=(nstates=5)
 --------------------

 -----------------------------
 step_951_chromophore_10 ZINDO
 -----------------------------
 Symbolic Z-matrix:
 Charge =  0 Multiplicity = 1

                         Standard orientation:
 ---------------------------------------------------------------------
 Center     Atomic      Atomic             Coordinates (Angstroms)
 Number     Number       Type             X           Y           Z
 ---------------------------------------------------------------------
      1         12           0        6.085807    0.559065    0.179832
      2          6           0        4.091319   -2.095026    0.162335
      3          6           0        3.787905    2.282556   -1.777781
      4          6           0        8.012156    3.300117    0.223674
      5          6           0        8.706141   -1.318592    1.473617
      6          7           0        4.185452    0.013114   -0.884817
      7          6           0        3.423075   -1.017829   -0.502016
      8          6           0        2.082118   -0.923151   -1.135034
      9          6           0        2.106734    0.470338   -1.863458
     10          6           0        3.480121    0.944487   -1.506922
     11          6           0        1.812296    0.389709   -3.454588
     12          6           0        0.931403   -1.266396   -0.166176
     13          6           0       -0.555028   -0.999935   -0.634562
     14          6           0       -1.605272   -2.143913   -0.605104
     15          8           0       -1.501530   -3.218274   -1.201529
     16          8           0       -2.585281   -1.884007    0.314029
     17          7           0        5.933322    2.507265   -0.657089
     18          6           0        4.928931    3.001719   -1.470518
     19          6           0        5.120684    4.411081   -1.731577
     20          6           0        6.322034    4.748188   -1.006735
     21          6           0        6.862360    3.468273   -0.451871
     22          6           0        4.234349    5.385460   -2.461748
     23          6           0        7.060590    6.082012   -0.913658
     24          8           0        8.176359    6.256484   -0.451802
     25          6           0        6.375635    7.444075   -1.460257
     26          7           0        8.139895    0.889079    0.544171
     27          6           0        8.622120    2.127209    0.715999
     28          6           0       10.039917    2.125126    1.421009
     29          6           0       10.190283    0.633696    1.931785
     30          6           0        9.009017   -0.014196    1.202676
     31          6           0       11.137439    2.559925    0.343972
     32          6           0       10.083734    0.533046    3.502599
     33          6           0        8.740211    0.894558    4.136147
     34          7           0        6.434867   -1.372709    0.638083
     35          6           0        7.478253   -1.984964    1.211322
     36          6           0        7.106980   -3.333399    1.538942
     37          6           0        5.781702   -3.452786    1.119041
     38          6           0        5.413500   -2.158989    0.573476
     39          6           0        8.019480   -4.351895    2.148535
     40          6           0        4.650616   -4.330625    1.037470
     41          8           0        4.437525   -5.519975    1.348806
     42          6           0        3.463168   -3.500997    0.394655
     43          6           0        2.942509   -4.131110   -0.897850
     44          8           0        3.408289   -4.066167   -2.024323
     45          8           0        1.840784   -4.889591   -0.541841
     46          6           0        1.258374   -5.634723   -1.673118
     47          6           0       -3.524903   -2.997313    0.517642
     48          6           0       -4.930120   -2.416938    0.525114
     49          6           0       -6.045399   -3.070831    0.031649
     50          6           0       -6.139580   -4.495402   -0.525660
     51          6           0       -7.416393   -2.299446    0.027715
     52          6           0       -7.690953   -1.062145   -0.949143
     53          6           0       -8.482081   -1.555736   -2.213259
     54          6           0       -9.855216   -1.010778   -2.412168
     55          6           0      -10.407730   -1.479986   -3.740237
     56          6           0      -10.102234    0.483211   -2.197470
     57          6           0      -11.476151    0.768552   -1.549954
     58          6           0      -11.413507    0.720373    0.017578
     59          6           0      -11.576742    2.121147    0.669501
     60          6           0      -10.096214    2.558223    1.008173
     61          6           0      -12.582939    2.207345    1.893792
     62          6           0      -13.966915    3.013554    1.669859
     63          6           0      -15.228228    2.082471    1.650376
     64          6           0      -16.259585    2.655319    2.669853
     65          6           0      -16.417343    1.790450    3.912899
     66          6           0      -17.584014    3.080489    1.988261
     67          1           0        2.983908    2.823489   -2.280772
     68          1           0        8.709625    4.109942    0.446139
     69          1           0        9.407638   -2.025960    1.921770
     70          1           0        1.939110   -1.713835   -1.870526
     71          1           0        1.379009    1.111050   -1.364825
     72          1           0        2.635322    0.865336   -3.987658
     73          1           0        0.848835    0.886314   -3.573785
     74          1           0        1.666697   -0.652418   -3.740659
     75          1           0        1.144895   -0.913154    0.841845
     76          1           0        0.893714   -2.350610   -0.052835
     77          1           0       -0.440185   -0.718328   -1.680465
     78          1           0       -1.020974   -0.177847   -0.091461
     79          1           0        3.309331    4.951679   -2.841879
     80          1           0        4.760070    5.740105   -3.349035
     81          1           0        3.922137    6.154603   -1.755231
     82          1           0        6.031466    7.427313   -2.494227
     83          1           0        6.945132    8.361136   -1.310329
     84          1           0        5.560474    7.568021   -0.747592
     85          1           0       10.012606    2.855346    2.229789
     86          1           0       11.167019    0.252787    1.633543
     87          1           0       10.790043    2.978061   -0.600379
     88          1           0       11.870446    1.771787    0.168932
     89          1           0       11.770896    3.292881    0.843448
     90          1           0       10.862468    1.136934    3.967221
     91          1           0       10.360117   -0.479547    3.797376
     92          1           0        8.053907    0.643986    3.327947
     93          1           0        8.791238    1.909815    4.532246
     94          1           0        8.589990    0.241319    4.995829
     95          1           0        8.570104   -3.816657    2.922775
     96          1           0        8.743064   -4.668646    1.397595
     97          1           0        7.378711   -5.064608    2.668953
     98          1           0        2.645348   -3.488226    1.116037
     99          1           0        2.065224   -6.094802   -2.244200
    100          1           0        0.784915   -4.922145   -2.349812
    101          1           0        0.649795   -6.441094   -1.265439
    102          1           0       -3.430537   -3.368272    1.538956
    103          1           0       -3.354609   -3.847296   -0.143211
    104          1           0       -5.037044   -1.353574    0.740921
    105          1           0       -6.608769   -4.313665   -1.492681
    106          1           0       -6.798773   -5.103686    0.092021
    107          1           0       -5.142618   -4.923228   -0.632821
    108          1           0       -7.583179   -1.854124    1.008729
    109          1           0       -8.239164   -3.011538   -0.035736
    110          1           0       -6.805769   -0.583209   -1.365429
    111          1           0       -8.152574   -0.261948   -0.370389
    112          1           0       -8.410754   -2.621385   -2.433500
    113          1           0       -7.971585   -1.082251   -3.052181
    114          1           0      -10.396332   -1.510065   -1.608683
    115          1           0      -11.186578   -2.192786   -3.469418
    116          1           0       -9.720892   -2.081213   -4.336026
    117          1           0      -10.845144   -0.654068   -4.300103
    118          1           0      -10.234007    0.937541   -3.179298
    119          1           0       -9.289781    0.963825   -1.652246
    120          1           0      -12.173816    0.116413   -2.077175
    121          1           0      -11.628864    1.813957   -1.818380
    122          1           0      -10.556959    0.103623    0.288834
    123          1           0      -12.288577    0.129640    0.286216
    124          1           0      -11.835099    2.867292   -0.081532
    125          1           0       -9.892196    2.897535    2.023208
    126          1           0       -9.805658    3.412954    0.397084
    127          1           0       -9.329074    1.839858    0.722532
    128          1           0      -12.111885    2.600283    2.793775
    129          1           0      -12.908752    1.225979    2.238375
    130          1           0      -13.844946    3.571979    0.741672
    131          1           0      -13.973952    3.781736    2.444261
    132          1           0      -15.040076    1.064188    1.989750
    133          1           0      -15.551983    2.238112    0.621251
    134          1           0      -16.022275    3.610942    3.136579
    135          1           0      -17.380302    1.299155    4.058258
    136          1           0      -16.298894    2.404073    4.805077
    137          1           0      -15.750025    0.930511    3.850707
    138          1           0      -17.727566    4.155469    2.101513
    139          1           0      -18.515685    2.626488    2.325110
    140          1           0      -17.542630    2.809295    0.933733
 ---------------------------------------------------------------------

 SCF Done:  E(RZINDO/S) =  -474.149973887     A.U. after   19 cycles

 Excitation energies and oscillator strengths:

 Excited State   1:      Singlet-A      1.3228 eV  937.27 nm  f=0.5581  <S**2>=0.000
     175 ->178        -0.17461
     176 ->177         0.66891
 This state for optimization and/or second-order correction.
 Total Energy, E(CIS/TDA) =  -474.101361180
 Copying the excited state density for this state as the 1-particle RhoCI density.

 Excited State   2:      Singlet-A      1.9397 eV  639.19 nm  f=0.0188  <S**2>=0.000
     175 ->177         0.52740
     176 ->178         0.44128

 Excited State   3:      Singlet-A      2.9103 eV  426.02 nm  f=0.5110  <S**2>=0.000
     168 ->177         0.12129
     168 ->179        -0.13573
     171 ->177        -0.15232
     175 ->177        -0.29126
     176 ->178         0.39922
     176 ->179         0.26831
     176 ->180         0.10021
     176 ->181         0.17010

 Excited State   4:      Singlet-A      2.9263 eV  423.68 nm  f=0.0390  <S**2>=0.000
     167 ->177         0.11403
     167 ->179        -0.14968
     168 ->177         0.27111
     168 ->179        -0.33067
     168 ->180         0.11589
     168 ->181         0.16075
     168 ->186        -0.19292
     168 ->188        -0.11114
     176 ->178        -0.10287
     176 ->179        -0.25094

 Excited State   5:      Singlet-A      3.0085 eV  412.11 nm  f=0.0517  <S**2>=0.000
     170 ->177         0.27427
     170 ->178         0.15856
     170 ->179         0.25132
     170 ->180         0.15555
     170 ->181         0.27281
     170 ->182        -0.14926
     170 ->186         0.16291
     170 ->188        -0.13981
     170 ->203        -0.12582
     171 ->177         0.10516
     171 ->179         0.12281
     171 ->181         0.12856
     176 ->178         0.12299

 The electronic state is 1-A.
 Alpha  occ. eigenvalues --   -1.87404  -1.82968  -1.81016  -1.72828  -1.71563
 Alpha  occ. eigenvalues --   -1.70960  -1.66570  -1.59342  -1.57817  -1.56268
 Alpha  occ. eigenvalues --   -1.53353  -1.50560  -1.47654  -1.46917  -1.46509
 Alpha  occ. eigenvalues --   -1.43824  -1.42462  -1.40008  -1.38939  -1.37503
 Alpha  occ. eigenvalues --   -1.35954  -1.34451  -1.32858  -1.31879  -1.28592
 Alpha  occ. eigenvalues --   -1.27127  -1.24743  -1.22327  -1.20038  -1.18067
 Alpha  occ. eigenvalues --   -1.17540  -1.16975  -1.14666  -1.13788  -1.13111
 Alpha  occ. eigenvalues --   -1.12934  -1.11689  -1.10665  -1.05216  -1.02955
 Alpha  occ. eigenvalues --   -1.02002  -1.01400  -0.98759  -0.98136  -0.97025
 Alpha  occ. eigenvalues --   -0.96099  -0.95026  -0.93868  -0.93121  -0.92786
 Alpha  occ. eigenvalues --   -0.91307  -0.90350  -0.89275  -0.87591  -0.86153
 Alpha  occ. eigenvalues --   -0.85638  -0.84581  -0.82798  -0.81906  -0.80137
 Alpha  occ. eigenvalues --   -0.78779  -0.78313  -0.76364  -0.76222  -0.76027
 Alpha  occ. eigenvalues --   -0.75802  -0.75373  -0.74271  -0.73564  -0.73557
 Alpha  occ. eigenvalues --   -0.72956  -0.72574  -0.72320  -0.71281  -0.70456
 Alpha  occ. eigenvalues --   -0.69329  -0.69112  -0.68602  -0.67918  -0.67763
 Alpha  occ. eigenvalues --   -0.67475  -0.66593  -0.66187  -0.66021  -0.65812
 Alpha  occ. eigenvalues --   -0.65369  -0.64829  -0.64367  -0.64075  -0.63410
 Alpha  occ. eigenvalues --   -0.62719  -0.62235  -0.62017  -0.61551  -0.61516
 Alpha  occ. eigenvalues --   -0.61362  -0.61121  -0.60955  -0.60517  -0.60190
 Alpha  occ. eigenvalues --   -0.59745  -0.59467  -0.59413  -0.58520  -0.58427
 Alpha  occ. eigenvalues --   -0.57715  -0.57575  -0.57205  -0.56610  -0.56245
 Alpha  occ. eigenvalues --   -0.56022  -0.55874  -0.54990  -0.54961  -0.54843
 Alpha  occ. eigenvalues --   -0.54713  -0.54353  -0.53695  -0.53383  -0.53135
 Alpha  occ. eigenvalues --   -0.52651  -0.52580  -0.52506  -0.52078  -0.51788
 Alpha  occ. eigenvalues --   -0.51183  -0.50917  -0.50584  -0.50204  -0.50098
 Alpha  occ. eigenvalues --   -0.49861  -0.49831  -0.49619  -0.49521  -0.49172
 Alpha  occ. eigenvalues --   -0.48807  -0.48461  -0.47727  -0.47572  -0.47489
 Alpha  occ. eigenvalues --   -0.47156  -0.46958  -0.46823  -0.46754  -0.46642
 Alpha  occ. eigenvalues --   -0.46416  -0.46061  -0.45974  -0.45748  -0.45167
 Alpha  occ. eigenvalues --   -0.44872  -0.44786  -0.44301  -0.44202  -0.43886
 Alpha  occ. eigenvalues --   -0.43487  -0.43422  -0.42772  -0.42363  -0.41660
 Alpha  occ. eigenvalues --   -0.41440  -0.40938  -0.40930  -0.39445  -0.38781
 Alpha  occ. eigenvalues --   -0.37947  -0.36580  -0.35889  -0.35113  -0.33979
 Alpha  occ. eigenvalues --   -0.33901  -0.32400  -0.32061  -0.31716  -0.26795
 Alpha  occ. eigenvalues --   -0.21824
 Alpha virt. eigenvalues --   -0.08103  -0.02190  -0.00655   0.01198   0.01347
 Alpha virt. eigenvalues --    0.01565   0.02959   0.03376   0.04203   0.04725
 Alpha virt. eigenvalues --    0.06050   0.06229   0.07657   0.07756   0.08252

 Mulliken charges:
               1
     1  Mg   0.435688
     2  C   -0.035439
     3  C   -0.081790
     4  C   -0.075998
     5  C   -0.055960
     6  N   -0.258959
     7  C    0.091171
     8  C    0.010713
     9  C   -0.007989
    10  C    0.164316
    11  C   -0.051734
    12  C   -0.026416
    13  C   -0.000428
    14  C    0.465257
    15  O   -0.518448
    16  O   -0.260865
    17  N   -0.350815
    18  C    0.132089
    19  C    0.032090
    20  C   -0.051594
    21  C    0.171469
    22  C   -0.035530
    23  C    0.318354
    24  O   -0.506778
    25  C   -0.040219
    26  N   -0.281655
    27  C    0.178396
    28  C    0.000268
    29  C    0.003484
    30  C    0.079026
    31  C   -0.055421
    32  C   -0.030497
    33  C   -0.060957
    34  N   -0.280513
    35  C    0.059203
    36  C    0.015465
    37  C   -0.068219
    38  C    0.105175
    39  C   -0.042588
    40  C    0.327628
    41  O   -0.541691
    42  C    0.044028
    43  C    0.487732
    44  O   -0.518341
    45  O   -0.267453
    46  C    0.072322
    47  C    0.102244
    48  C   -0.093758
    49  C   -0.016875
    50  C   -0.040250
    51  C   -0.033742
    52  C   -0.036113
    53  C   -0.034080
    54  C   -0.002106
    55  C   -0.058139
    56  C   -0.036731
    57  C   -0.046155
    58  C   -0.030014
    59  C   -0.003976
    60  C   -0.066992
    61  C   -0.046828
    62  C   -0.046096
    63  C   -0.030789
    64  C   -0.016092
    65  C   -0.058292
    66  C   -0.061998
    67  H    0.021489
    68  H    0.039225
    69  H    0.028710
    70  H    0.044439
    71  H    0.027531
    72  H    0.034584
    73  H    0.020373
    74  H    0.035127
    75  H    0.024794
    76  H    0.028540
    77  H    0.038010
    78  H    0.029672
    79  H    0.019431
    80  H    0.039522
    81  H    0.037627
    82  H    0.036558
    83  H    0.038424
    84  H    0.026886
    85  H    0.036990
    86  H    0.032792
    87  H    0.038390
    88  H    0.021183
    89  H    0.014503
    90  H    0.009472
    91  H    0.014136
    92  H    0.040596
    93  H    0.026387
    94  H    0.016914
    95  H    0.016225
    96  H    0.043891
    97  H    0.039591
    98  H    0.055563
    99  H    0.040643
   100  H    0.048102
   101  H    0.039721
   102  H    0.039212
   103  H    0.069177
   104  H    0.039719
   105  H    0.031491
   106  H    0.034992
   107  H    0.029910
   108  H    0.012044
   109  H    0.017643
   110  H    0.020396
   111  H    0.027026
   112  H    0.028312
   113  H    0.000802
   114  H    0.006486
   115  H    0.009896
   116  H    0.021521
   117  H    0.024090
   118  H    0.010876
   119  H    0.023264
   120  H    0.030459
   121  H    0.012763
   122  H    0.032486
   123  H    0.003859
   124  H    0.029857
   125  H    0.019696
   126  H    0.006721
   127  H    0.019284
   128  H    0.017755
   129  H    0.016491
   130  H    0.017711
   131  H    0.021375
   132  H    0.039297
   133  H    0.029675
   134  H    0.021577
   135  H    0.012997
   136  H    0.019539
   137  H    0.017821
   138  H    0.016222
   139  H    0.017093
   140  H    0.013636
 Sum of Mulliken charges =   0.00000

 Dipole moment (field-independent basis, Debye):
    X=             -5.4751    Y=              9.9660    Z=              0.5963  Tot=             11.3865
 N-N= 4.215943109743D+03 E-N= 0.000000000000D+00  KE=-9.106273663707D+03
 Leave Link  601 at Sat Apr 30 23:17:06 2022, MaxMem=  6710886400 cpu:               0.8 elap:               0.0
 (Enter /sw/apps/gaussian-16.0/g16/l9999.exe)
 1\1\GINC-BP1-COMPUTE190\SP\RZINDO CIS\STO-3G\C55H74Mg1N4O6\OF15641\30-
 Apr-2022\0\\#p ZINDO=(nstates=5)\\step_951_chromophore_10 ZINDO\\0,1\M
 g,0,40.72,8.335,29.092\C,0,42.425,9.617,31.636\C,0,38.673,6.642,31.334
 \C,0,38.906,7.07,26.575\C,0,43.147,9.377,26.836\N,0,40.726,8.017,31.31
 5\C,0,41.321,8.87,32.157\C,0,40.865,8.615,33.548\C,0,39.735,7.534,33.3
 82\C,0,39.734,7.361,31.896\C,0,39.995,6.172,34.22\C,0,40.583,9.91,34.3
 38\C,0,39.887,9.795,35.753\C,0,40.546,10.432,37.007\O,0,41.675,10.168,

 Normal termination of Gaussian 16 at Sat Apr 30 23:17:06 2022.
