 Gaussian 16, Revision A.03,
 Gaussian 16:  ES64L-G16RevA.03 25-Dec-2016

 ------------------------------
 #p blyp/Def2SVP td=(nstates=5)
 ------------------------------

 --------------------------------------------------
 step_451_chromophore_27 TDDFT with blyp functional
 --------------------------------------------------
 Symbolic Z-matrix:
 Charge =  0 Multiplicity = 1

                         Standard orientation:
 ---------------------------------------------------------------------
 Center     Atomic      Atomic             Coordinates (Angstroms)
 Number     Number       Type             X           Y           Z
 ---------------------------------------------------------------------
      1         12           0       -4.647655    0.955853   -0.161681
      2          6           0       -4.005652   -2.611650    0.068174
      3          6           0       -1.228211    1.440864   -0.223154
      4          6           0       -5.378142    4.120027   -0.087208
      5          6           0       -8.050079    0.057575    0.192983
      6          7           0       -2.825537   -0.517890   -0.172561
      7          6           0       -2.772030   -1.878438   -0.050846
      8          6           0       -1.361683   -2.361237   -0.115647
      9          6           0       -0.540329   -1.004375    0.152946
     10          6           0       -1.592085    0.046892   -0.091426
     11          6           0        0.239058   -0.782282    1.477689
     12          6           0       -0.912622   -3.135708   -1.412484
     13          6           0        0.113127   -4.247616   -1.208711
     14          6           0        1.575096   -3.863693   -0.766670
     15          8           0        1.893515   -3.290182    0.220625
     16          8           0        2.524432   -4.229743   -1.702334
     17          7           0       -3.457568    2.535556   -0.182667
     18          6           0       -2.076111    2.556658   -0.208596
     19          6           0       -1.656096    3.968407   -0.043598
     20          6           0       -2.860692    4.800622   -0.047685
     21          6           0       -3.948598    3.842121   -0.038047
     22          6           0       -0.163889    4.456618    0.081529
     23          6           0       -3.026319    6.315748   -0.007623
     24          8           0       -4.128824    6.731278    0.240835
     25          6           0       -1.805236    7.336388   -0.225211
     26          7           0       -6.431775    1.908589   -0.048872
     27          6           0       -6.431395    3.269622    0.046415
     28          6           0       -7.880665    3.751520   -0.036202
     29          6           0       -8.747480    2.501482   -0.008106
     30          6           0       -7.634850    1.381606    0.018982
     31          6           0       -8.251838    4.790584    1.031179
     32          6           0       -9.679626    2.286831   -1.193551
     33          6           0      -11.076430    1.750099   -0.829035
     34          7           0       -5.839139   -0.900093    0.059926
     35          6           0       -7.202984   -1.050177    0.174220
     36          6           0       -7.527621   -2.485023    0.353443
     37          6           0       -6.300548   -3.141328    0.257777
     38          6           0       -5.298803   -2.122057    0.124728
     39          6           0       -8.859980   -3.116998    0.324448
     40          6           0       -5.622737   -4.492026    0.459583
     41          8           0       -6.086029   -5.609296    0.700500
     42          6           0       -4.133777   -4.144725    0.331562
     43          6           0       -3.523392   -4.599592    1.561446
     44          8           0       -3.700832   -4.066803    2.648276
     45          8           0       -2.721398   -5.707910    1.272241
     46          6           0       -1.801689   -6.180184    2.293356
     47          6           0        3.937164   -3.931313   -1.478328
     48          6           0        4.480969   -2.575639   -1.968608
     49          6           0        5.752804   -2.194057   -2.077985
     50          6           0        6.906657   -3.101933   -1.640769
     51          6           0        6.095163   -0.772583   -2.666179
     52          6           0        6.757806   -0.800889   -4.054440
     53          6           0        8.172018   -0.373736   -3.941259
     54          6           0        8.321521    1.118655   -4.172870
     55          6           0        8.675361    1.279951   -5.667136
     56          6           0        9.419588    1.718085   -3.169879
     57          6           0        8.860034    1.960436   -1.788438
     58          6           0        9.943302    2.217314   -0.712155
     59          6           0        9.644603    1.440197    0.605040
     60          6           0        9.627950   -0.087981    0.396551
     61          6           0       10.610336    1.822538    1.725917
     62          6           0        9.807687    2.182637    2.996191
     63          6           0        9.373004    0.926694    3.904810
     64          6           0        9.753462    1.216331    5.397015
     65          6           0       11.267444    1.010540    5.674699
     66          6           0        8.812604    0.446137    6.414688
     67          1           0       -0.168574    1.691204   -0.142204
     68          1           0       -5.618418    5.179726    0.019358
     69          1           0       -9.139540   -0.024780    0.178114
     70          1           0       -1.176413   -3.000009    0.748073
     71          1           0        0.222734   -0.929612   -0.621779
     72          1           0       -0.496900   -0.355208    2.158673
     73          1           0        1.071358   -0.114304    1.255316
     74          1           0        0.509330   -1.777689    1.827909
     75          1           0       -0.379437   -2.384223   -1.995305
     76          1           0       -1.788803   -3.480001   -1.961708
     77          1           0        0.114232   -4.667731   -2.214452
     78          1           0       -0.275571   -4.985305   -0.506830
     79          1           0        0.104225    4.866815   -0.891576
     80          1           0        0.583696    3.752568    0.447180
     81          1           0       -0.192686    5.255959    0.823288
     82          1           0       -1.548108    7.795482    0.729556
     83          1           0       -1.997503    8.104817   -0.974240
     84          1           0       -0.892286    6.847968   -0.565843
     85          1           0       -8.027006    4.310973   -0.960130
     86          1           0       -9.299283    2.512253    0.931374
     87          1           0       -7.388003    5.372452    1.351982
     88          1           0       -8.648114    4.218577    1.869907
     89          1           0       -9.007353    5.508896    0.712631
     90          1           0       -9.238048    1.584299   -1.899562
     91          1           0       -9.664232    3.223239   -1.750977
     92          1           0      -11.202392    1.433081    0.207068
     93          1           0      -11.268865    0.914451   -1.501576
     94          1           0      -11.773590    2.421357   -1.331013
     95          1           0       -9.534038   -2.724477   -0.436522
     96          1           0       -9.263231   -3.073436    1.335779
     97          1           0       -8.881460   -4.138548   -0.055964
     98          1           0       -3.583738   -4.590229   -0.497238
     99          1           0       -2.095925   -7.029183    2.911500
    100          1           0       -1.457953   -5.351069    2.910659
    101          1           0       -0.889349   -6.571329    1.843512
    102          1           0        4.502470   -4.643672   -2.079136
    103          1           0        4.162461   -3.985976   -0.412952
    104          1           0        3.727931   -1.852363   -2.282657
    105          1           0        6.529140   -4.059271   -1.281405
    106          1           0        7.543305   -2.585758   -0.922470
    107          1           0        7.461589   -3.431595   -2.519595
    108          1           0        6.674563   -0.302268   -1.872193
    109          1           0        5.217297   -0.160834   -2.873788
    110          1           0        6.190162   -0.183606   -4.750292
    111          1           0        6.751062   -1.743503   -4.602759
    112          1           0        8.784103   -0.930661   -4.649956
    113          1           0        8.498773   -0.684183   -2.949027
    114          1           0        7.412237    1.664385   -3.919055
    115          1           0        9.695014    1.641398   -5.797909
    116          1           0        8.034559    2.067868   -6.064533
    117          1           0        8.473498    0.428546   -6.316878
    118          1           0        9.461040    2.768701   -3.456817
    119          1           0       10.422770    1.302034   -3.073586
    120          1           0        8.182400    1.119551   -1.641906
    121          1           0        8.176139    2.803593   -1.886227
    122          1           0        9.762065    3.260752   -0.452985
    123          1           0       10.998529    2.243732   -0.981762
    124          1           0        8.616705    1.680998    0.878905
    125          1           0       10.033091   -0.199866   -0.610249
    126          1           0        8.581178   -0.389898    0.429004
    127          1           0       10.199756   -0.674790    1.115403
    128          1           0       11.270483    2.610001    1.360720
    129          1           0       11.316922    1.009456    1.895188
    130          1           0        8.962291    2.836779    2.783060
    131          1           0       10.525281    2.753901    3.585331
    132          1           0        9.969931    0.086131    3.550977
    133          1           0        8.308412    0.721559    3.791165
    134          1           0        9.598523    2.284006    5.556486
    135          1           0       11.397887    0.322854    6.510540
    136          1           0       11.848506    1.905665    5.897687
    137          1           0       11.664757    0.591911    4.750310
    138          1           0        7.931717    0.097602    5.875849
    139          1           0        8.593587    1.175928    7.193014
    140          1           0        9.443183   -0.365812    6.776644
 ---------------------------------------------------------------------

 SCF Done:  E(RB-LYP) =  -3007.36648401     A.U. after   20 cycles

 Excitation energies and oscillator strengths:

 Excited State   1:      Singlet-A      1.7946 eV  690.87 nm  f=0.2959  <S**2>=0.000
     245 -> 248       -0.19535
     246 -> 247        0.68726
     246 <- 247       -0.14947
 This state for optimization and/or second-order correction.
 Total Energy, E(TD-HF/TD-DFT) =  -3007.30053359
 Copying the excited state density for this state as the 1-particle RhoCI density.

 Excited State   2:      Singlet-A      2.0158 eV  615.07 nm  f=0.0609  <S**2>=0.000
     245 -> 247        0.63920
     246 -> 248        0.26896

 Excited State   3:      Singlet-A      2.1977 eV  564.14 nm  f=0.0020  <S**2>=0.000
     244 -> 247        0.70175

 Excited State   4:      Singlet-A      2.2618 eV  548.16 nm  f=0.0009  <S**2>=0.000
     243 -> 247        0.70321

 Excited State   5:      Singlet-A      2.6019 eV  476.51 nm  f=0.0003  <S**2>=0.000
     240 -> 247        0.66120
     242 -> 247       -0.21440
     246 -> 249        0.10241

 The electronic state is 1-A.
 Alpha  occ. eigenvalues --  -46.26611 -18.82343 -18.82336 -18.78116 -18.76892
 Alpha  occ. eigenvalues --  -18.76469 -18.76081 -14.03087 -14.02523 -14.01008
 Alpha  occ. eigenvalues --  -14.00407 -10.05261 -10.03864 -10.00726 -10.00559
 Alpha  occ. eigenvalues --   -9.98668  -9.97644  -9.96668  -9.96194  -9.96040
 Alpha  occ. eigenvalues --   -9.95886  -9.95536  -9.95425  -9.95323  -9.94693
 Alpha  occ. eigenvalues --   -9.94393  -9.94308  -9.94079  -9.93949  -9.93721
 Alpha  occ. eigenvalues --   -9.93563  -9.93414  -9.93280  -9.93191  -9.93124
 Alpha  occ. eigenvalues --   -9.93101  -9.92824  -9.92785  -9.92549  -9.92535
 Alpha  occ. eigenvalues --   -9.92476  -9.92433  -9.92410  -9.92086  -9.92050
 Alpha  occ. eigenvalues --   -9.91976  -9.91916  -9.91865  -9.91801  -9.91630
 Alpha  occ. eigenvalues --   -9.91502  -9.91494  -9.91492  -9.91466  -9.91442
 Alpha  occ. eigenvalues --   -9.91329  -9.91232  -9.91216  -9.91136  -9.91094
 Alpha  occ. eigenvalues --   -9.90990  -9.90987  -9.90983  -9.90839  -9.90696
 Alpha  occ. eigenvalues --   -9.90492  -2.91336  -1.71767  -1.71216  -1.71057
 Alpha  occ. eigenvalues --   -0.99291  -0.97037  -0.92997  -0.91393  -0.91170
 Alpha  occ. eigenvalues --   -0.90058  -0.86696  -0.85881  -0.85151  -0.83786
 Alpha  occ. eigenvalues --   -0.75183  -0.74266  -0.73096  -0.72764  -0.72327
 Alpha  occ. eigenvalues --   -0.72034  -0.71525  -0.70816  -0.70448  -0.69677
 Alpha  occ. eigenvalues --   -0.69039  -0.68774  -0.68536  -0.67708  -0.67062
 Alpha  occ. eigenvalues --   -0.66502  -0.65559  -0.64970  -0.64665  -0.64193
 Alpha  occ. eigenvalues --   -0.63625  -0.62286  -0.62064  -0.61481  -0.60928
 Alpha  occ. eigenvalues --   -0.60666  -0.60110  -0.60001  -0.59557  -0.59050
 Alpha  occ. eigenvalues --   -0.58502  -0.57199  -0.56459  -0.55698  -0.54289
 Alpha  occ. eigenvalues --   -0.53973  -0.53692  -0.52610  -0.52509  -0.51441
 Alpha  occ. eigenvalues --   -0.51083  -0.50965  -0.50491  -0.50214  -0.49996
 Alpha  occ. eigenvalues --   -0.49522  -0.49022  -0.48745  -0.48410  -0.46337
 Alpha  occ. eigenvalues --   -0.46123  -0.46021  -0.45844  -0.45325  -0.44511
 Alpha  occ. eigenvalues --   -0.44312  -0.43731  -0.42640  -0.42524  -0.42396
 Alpha  occ. eigenvalues --   -0.42125  -0.41761  -0.41682  -0.41555  -0.41397
 Alpha  occ. eigenvalues --   -0.40948  -0.40735  -0.40503  -0.40066  -0.39965
 Alpha  occ. eigenvalues --   -0.39688  -0.39364  -0.39322  -0.39264  -0.39083
 Alpha  occ. eigenvalues --   -0.38904  -0.38867  -0.38790  -0.38697  -0.38569
 Alpha  occ. eigenvalues --   -0.38074  -0.37849  -0.37658  -0.37477  -0.37407
 Alpha  occ. eigenvalues --   -0.37305  -0.37016  -0.36718  -0.36605  -0.36337
 Alpha  occ. eigenvalues --   -0.36261  -0.36060  -0.36014  -0.35762  -0.35720
 Alpha  occ. eigenvalues --   -0.35685  -0.35336  -0.35230  -0.35053  -0.34836
 Alpha  occ. eigenvalues --   -0.34737  -0.34448  -0.34392  -0.34255  -0.34107
 Alpha  occ. eigenvalues --   -0.33748  -0.33708  -0.33425  -0.33236  -0.33222
 Alpha  occ. eigenvalues --   -0.32910  -0.32663  -0.32551  -0.32468  -0.31956
 Alpha  occ. eigenvalues --   -0.31793  -0.31652  -0.31553  -0.31532  -0.31351
 Alpha  occ. eigenvalues --   -0.31174  -0.30851  -0.30727  -0.30723  -0.30490
 Alpha  occ. eigenvalues --   -0.30409  -0.30270  -0.30047  -0.29965  -0.29815
 Alpha  occ. eigenvalues --   -0.29670  -0.29458  -0.29202  -0.29064  -0.28999
 Alpha  occ. eigenvalues --   -0.28875  -0.28545  -0.28269  -0.28170  -0.27891
 Alpha  occ. eigenvalues --   -0.27661  -0.27181  -0.27068  -0.26588  -0.26278
 Alpha  occ. eigenvalues --   -0.26125  -0.26075  -0.25751  -0.25306  -0.25202
 Alpha  occ. eigenvalues --   -0.24942  -0.24759  -0.24076  -0.23672  -0.23447
 Alpha  occ. eigenvalues --   -0.23126  -0.22741  -0.22132  -0.21507  -0.20672
 Alpha  occ. eigenvalues --   -0.20633  -0.20171  -0.19279  -0.19078  -0.17085
 Alpha  occ. eigenvalues --   -0.15347
 Alpha virt. eigenvalues --   -0.11109  -0.06867  -0.06437  -0.04629  -0.03298
 Alpha virt. eigenvalues --   -0.02878  -0.01447  -0.01114  -0.00623   0.00277
 Alpha virt. eigenvalues --    0.00965   0.01640   0.02148   0.02646   0.03154

 Mulliken charges:
               1
     1  Mg   0.706165
     2  C   -0.011971
     3  C   -0.054162
     4  C   -0.056743
     5  C   -0.071288
     6  N   -0.173944
     7  C   -0.101866
     8  C    0.049312
     9  C   -0.060487
    10  C    0.027255
    11  C    0.159400
    12  C    0.113233
    13  C    0.117395
    14  C    0.071501
    15  O   -0.148003
    16  O   -0.272690
    17  N   -0.364097
    18  C    0.145922
    19  C   -0.158334
    20  C    0.035831
    21  C    0.087874
    22  C    0.141310
    23  C   -0.046831
    24  O   -0.148048
    25  C    0.101628
    26  N   -0.234354
    27  C    0.084309
    28  C    0.004720
    29  C    0.017067
    30  C   -0.002206
    31  C    0.110750
    32  C    0.083176
    33  C    0.109453
    34  N   -0.199063
    35  C    0.135621
    36  C   -0.168548
    37  C    0.025957
    38  C    0.079696
    39  C    0.159291
    40  C    0.031529
    41  O   -0.128870
    42  C    0.078166
    43  C    0.115845
    44  O   -0.172077
    45  O   -0.283766
    46  C    0.215071
    47  C    0.299589
    48  C   -0.104584
    49  C   -0.157524
    50  C    0.137340
    51  C    0.134200
    52  C    0.083035
    53  C    0.102761
    54  C   -0.076997
    55  C    0.136568
    56  C    0.086126
    57  C    0.053539
    58  C    0.133954
    59  C   -0.119604
    60  C    0.106861
    61  C    0.130355
    62  C    0.055338
    63  C    0.104651
    64  C   -0.146093
    65  C    0.106144
    66  C    0.120254
    67  H   -0.068921
    68  H   -0.026057
    69  H   -0.072205
    70  H   -0.029848
    71  H   -0.031296
    72  H   -0.011182
    73  H   -0.000073
    74  H    0.007526
    75  H   -0.018549
    76  H   -0.005536
    77  H   -0.006637
    78  H    0.012553
    79  H    0.025061
    80  H   -0.001219
    81  H    0.003120
    82  H    0.016045
    83  H    0.009610
    84  H   -0.037481
    85  H   -0.022924
    86  H   -0.027756
    87  H    0.001364
    88  H   -0.023510
    89  H   -0.014018
    90  H   -0.021658
    91  H   -0.032082
    92  H    0.018485
    93  H   -0.028156
    94  H   -0.019159
    95  H   -0.009005
    96  H    0.009876
    97  H   -0.005052
    98  H   -0.015050
    99  H    0.018642
   100  H    0.012982
   101  H   -0.002064
   102  H    0.012920
   103  H    0.014448
   104  H   -0.045046
   105  H   -0.024624
   106  H    0.016765
   107  H   -0.004234
   108  H   -0.002270
   109  H   -0.037722
   110  H   -0.042482
   111  H   -0.035950
   112  H   -0.046439
   113  H   -0.033846
   114  H   -0.041367
   115  H   -0.013594
   116  H   -0.030761
   117  H   -0.013830
   118  H   -0.047129
   119  H   -0.022164
   120  H   -0.049539
   121  H   -0.041265
   122  H   -0.042922
   123  H   -0.026112
   124  H   -0.038452
   125  H   -0.011086
   126  H   -0.009448
   127  H   -0.010404
   128  H   -0.050686
   129  H   -0.043882
   130  H   -0.021134
   131  H   -0.033773
   132  H   -0.028904
   133  H   -0.027582
   134  H   -0.028768
   135  H   -0.017855
   136  H   -0.010183
   137  H   -0.019767
   138  H   -0.012588
   139  H   -0.006297
   140  H   -0.013893
 Sum of Mulliken charges =  -0.00000

 Dipole moment (field-independent basis, Debye):
    X=              4.7964    Y=              1.6064    Z=             -3.4814  Tot=              6.1405
 Quadrupole moment (field-independent basis, Debye-Ang):
   XX=           -382.7081   YY=           -422.8382   ZZ=           -407.8327
   XY=            -18.4069   XZ=             13.6401   YZ=              5.0902

 Normal termination of Gaussian 16 at Wed May  4 23:13:56 2022.
