 Gaussian 16, Revision A.03,
 Gaussian 16:  ES64L-G16RevA.03 25-Dec-2016

 -----------------------------------
 #p cam-b3lyp/Def2SVP td=(nstates=5)
 -----------------------------------

 -------------------------------------------------------
 step_451_chromophore_27 TDDFT with cam-b3lyp functional
 -------------------------------------------------------
 Symbolic Z-matrix:
 Charge =  0 Multiplicity = 1

                         Standard orientation:
 ---------------------------------------------------------------------
 Center     Atomic      Atomic             Coordinates (Angstroms)
 Number     Number       Type             X           Y           Z
 ---------------------------------------------------------------------
      1         12           0       -4.647655    0.955853   -0.161681
      2          6           0       -4.005652   -2.611650    0.068174
      3          6           0       -1.228211    1.440864   -0.223154
      4          6           0       -5.378142    4.120027   -0.087208
      5          6           0       -8.050079    0.057575    0.192983
      6          7           0       -2.825537   -0.517890   -0.172561
      7          6           0       -2.772030   -1.878438   -0.050846
      8          6           0       -1.361683   -2.361237   -0.115647
      9          6           0       -0.540329   -1.004375    0.152946
     10          6           0       -1.592085    0.046892   -0.091426
     11          6           0        0.239058   -0.782282    1.477689
     12          6           0       -0.912622   -3.135708   -1.412484
     13          6           0        0.113127   -4.247616   -1.208711
     14          6           0        1.575096   -3.863693   -0.766670
     15          8           0        1.893515   -3.290182    0.220625
     16          8           0        2.524432   -4.229743   -1.702334
     17          7           0       -3.457568    2.535556   -0.182667
     18          6           0       -2.076111    2.556658   -0.208596
     19          6           0       -1.656096    3.968407   -0.043598
     20          6           0       -2.860692    4.800622   -0.047685
     21          6           0       -3.948598    3.842121   -0.038047
     22          6           0       -0.163889    4.456618    0.081529
     23          6           0       -3.026319    6.315748   -0.007623
     24          8           0       -4.128824    6.731278    0.240835
     25          6           0       -1.805236    7.336388   -0.225211
     26          7           0       -6.431775    1.908589   -0.048872
     27          6           0       -6.431395    3.269622    0.046415
     28          6           0       -7.880665    3.751520   -0.036202
     29          6           0       -8.747480    2.501482   -0.008106
     30          6           0       -7.634850    1.381606    0.018982
     31          6           0       -8.251838    4.790584    1.031179
     32          6           0       -9.679626    2.286831   -1.193551
     33          6           0      -11.076430    1.750099   -0.829035
     34          7           0       -5.839139   -0.900093    0.059926
     35          6           0       -7.202984   -1.050177    0.174220
     36          6           0       -7.527621   -2.485023    0.353443
     37          6           0       -6.300548   -3.141328    0.257777
     38          6           0       -5.298803   -2.122057    0.124728
     39          6           0       -8.859980   -3.116998    0.324448
     40          6           0       -5.622737   -4.492026    0.459583
     41          8           0       -6.086029   -5.609296    0.700500
     42          6           0       -4.133777   -4.144725    0.331562
     43          6           0       -3.523392   -4.599592    1.561446
     44          8           0       -3.700832   -4.066803    2.648276
     45          8           0       -2.721398   -5.707910    1.272241
     46          6           0       -1.801689   -6.180184    2.293356
     47          6           0        3.937164   -3.931313   -1.478328
     48          6           0        4.480969   -2.575639   -1.968608
     49          6           0        5.752804   -2.194057   -2.077985
     50          6           0        6.906657   -3.101933   -1.640769
     51          6           0        6.095163   -0.772583   -2.666179
     52          6           0        6.757806   -0.800889   -4.054440
     53          6           0        8.172018   -0.373736   -3.941259
     54          6           0        8.321521    1.118655   -4.172870
     55          6           0        8.675361    1.279951   -5.667136
     56          6           0        9.419588    1.718085   -3.169879
     57          6           0        8.860034    1.960436   -1.788438
     58          6           0        9.943302    2.217314   -0.712155
     59          6           0        9.644603    1.440197    0.605040
     60          6           0        9.627950   -0.087981    0.396551
     61          6           0       10.610336    1.822538    1.725917
     62          6           0        9.807687    2.182637    2.996191
     63          6           0        9.373004    0.926694    3.904810
     64          6           0        9.753462    1.216331    5.397015
     65          6           0       11.267444    1.010540    5.674699
     66          6           0        8.812604    0.446137    6.414688
     67          1           0       -0.168574    1.691204   -0.142204
     68          1           0       -5.618418    5.179726    0.019358
     69          1           0       -9.139540   -0.024780    0.178114
     70          1           0       -1.176413   -3.000009    0.748073
     71          1           0        0.222734   -0.929612   -0.621779
     72          1           0       -0.496900   -0.355208    2.158673
     73          1           0        1.071358   -0.114304    1.255316
     74          1           0        0.509330   -1.777689    1.827909
     75          1           0       -0.379437   -2.384223   -1.995305
     76          1           0       -1.788803   -3.480001   -1.961708
     77          1           0        0.114232   -4.667731   -2.214452
     78          1           0       -0.275571   -4.985305   -0.506830
     79          1           0        0.104225    4.866815   -0.891576
     80          1           0        0.583696    3.752568    0.447180
     81          1           0       -0.192686    5.255959    0.823288
     82          1           0       -1.548108    7.795482    0.729556
     83          1           0       -1.997503    8.104817   -0.974240
     84          1           0       -0.892286    6.847968   -0.565843
     85          1           0       -8.027006    4.310973   -0.960130
     86          1           0       -9.299283    2.512253    0.931374
     87          1           0       -7.388003    5.372452    1.351982
     88          1           0       -8.648114    4.218577    1.869907
     89          1           0       -9.007353    5.508896    0.712631
     90          1           0       -9.238048    1.584299   -1.899562
     91          1           0       -9.664232    3.223239   -1.750977
     92          1           0      -11.202392    1.433081    0.207068
     93          1           0      -11.268865    0.914451   -1.501576
     94          1           0      -11.773590    2.421357   -1.331013
     95          1           0       -9.534038   -2.724477   -0.436522
     96          1           0       -9.263231   -3.073436    1.335779
     97          1           0       -8.881460   -4.138548   -0.055964
     98          1           0       -3.583738   -4.590229   -0.497238
     99          1           0       -2.095925   -7.029183    2.911500
    100          1           0       -1.457953   -5.351069    2.910659
    101          1           0       -0.889349   -6.571329    1.843512
    102          1           0        4.502470   -4.643672   -2.079136
    103          1           0        4.162461   -3.985976   -0.412952
    104          1           0        3.727931   -1.852363   -2.282657
    105          1           0        6.529140   -4.059271   -1.281405
    106          1           0        7.543305   -2.585758   -0.922470
    107          1           0        7.461589   -3.431595   -2.519595
    108          1           0        6.674563   -0.302268   -1.872193
    109          1           0        5.217297   -0.160834   -2.873788
    110          1           0        6.190162   -0.183606   -4.750292
    111          1           0        6.751062   -1.743503   -4.602759
    112          1           0        8.784103   -0.930661   -4.649956
    113          1           0        8.498773   -0.684183   -2.949027
    114          1           0        7.412237    1.664385   -3.919055
    115          1           0        9.695014    1.641398   -5.797909
    116          1           0        8.034559    2.067868   -6.064533
    117          1           0        8.473498    0.428546   -6.316878
    118          1           0        9.461040    2.768701   -3.456817
    119          1           0       10.422770    1.302034   -3.073586
    120          1           0        8.182400    1.119551   -1.641906
    121          1           0        8.176139    2.803593   -1.886227
    122          1           0        9.762065    3.260752   -0.452985
    123          1           0       10.998529    2.243732   -0.981762
    124          1           0        8.616705    1.680998    0.878905
    125          1           0       10.033091   -0.199866   -0.610249
    126          1           0        8.581178   -0.389898    0.429004
    127          1           0       10.199756   -0.674790    1.115403
    128          1           0       11.270483    2.610001    1.360720
    129          1           0       11.316922    1.009456    1.895188
    130          1           0        8.962291    2.836779    2.783060
    131          1           0       10.525281    2.753901    3.585331
    132          1           0        9.969931    0.086131    3.550977
    133          1           0        8.308412    0.721559    3.791165
    134          1           0        9.598523    2.284006    5.556486
    135          1           0       11.397887    0.322854    6.510540
    136          1           0       11.848506    1.905665    5.897687
    137          1           0       11.664757    0.591911    4.750310
    138          1           0        7.931717    0.097602    5.875849
    139          1           0        8.593587    1.175928    7.193014
    140          1           0        9.443183   -0.365812    6.776644
 ---------------------------------------------------------------------

 SCF Done:  E(RCAM-B3LYP) =  -3007.15992215     A.U. after   17 cycles

 Excitation energies and oscillator strengths:

 Excited State   1:      Singlet-A      1.7236 eV  719.33 nm  f=0.3837  <S**2>=0.000
     245 -> 248       -0.18520
     246 -> 247        0.68359
     245 <- 248       -0.10660
 This state for optimization and/or second-order correction.
 Total Energy, E(TD-HF/TD-DFT) =  -3007.09658047
 Copying the excited state density for this state as the 1-particle RhoCI density.

 Excited State   2:      Singlet-A      2.2790 eV  544.03 nm  f=0.0684  <S**2>=0.000
     245 -> 247        0.61403
     246 -> 248        0.33966

 Excited State   3:      Singlet-A      3.4062 eV  364.00 nm  f=0.6154  <S**2>=0.000
     243 -> 247       -0.24569
     245 -> 247       -0.30298
     246 -> 248        0.58362
     245 <- 247        0.10398

 Excited State   4:      Singlet-A      3.5054 eV  353.69 nm  f=0.0060  <S**2>=0.000
     243 -> 247       -0.20520
     244 -> 247        0.65063

 Excited State   5:      Singlet-A      3.6337 eV  341.20 nm  f=0.0012  <S**2>=0.000
     239 -> 247        0.53360
     239 -> 249       -0.34673
     239 -> 250        0.20893

 The electronic state is 1-A.
 Alpha  occ. eigenvalues --  -46.88083 -19.25491 -19.25133 -19.21162 -19.20229
 Alpha  occ. eigenvalues --  -19.20157 -19.19113 -14.42082 -14.41128 -14.39290
 Alpha  occ. eigenvalues --  -14.38925 -10.40553 -10.39545 -10.36344 -10.35792
 Alpha  occ. eigenvalues --  -10.32688 -10.31779 -10.31337 -10.30483 -10.30363
 Alpha  occ. eigenvalues --  -10.30231 -10.29989 -10.29584 -10.29446 -10.28745
 Alpha  occ. eigenvalues --  -10.28743 -10.28600 -10.28286 -10.28224 -10.28097
 Alpha  occ. eigenvalues --  -10.28074 -10.28046 -10.27318 -10.27318 -10.27184
 Alpha  occ. eigenvalues --  -10.26989 -10.26833 -10.26569 -10.26453 -10.26448
 Alpha  occ. eigenvalues --  -10.26299 -10.26197 -10.26138 -10.25985 -10.25877
 Alpha  occ. eigenvalues --  -10.25855 -10.25768 -10.25714 -10.25709 -10.25478
 Alpha  occ. eigenvalues --  -10.25358 -10.25245 -10.25197 -10.25174 -10.25161
 Alpha  occ. eigenvalues --  -10.25058 -10.24933 -10.24821 -10.24771 -10.24685
 Alpha  occ. eigenvalues --  -10.24665 -10.24587 -10.24577 -10.24500 -10.24299
 Alpha  occ. eigenvalues --  -10.24089  -3.16719  -1.91623  -1.91171  -1.91033
 Alpha  occ. eigenvalues --   -1.17826  -1.15776  -1.11279  -1.09954  -1.09227
 Alpha  occ. eigenvalues --   -1.08239  -1.04394  -1.03627  -1.02851  -1.00995
 Alpha  occ. eigenvalues --   -0.92560  -0.91163  -0.89906  -0.89544  -0.88979
 Alpha  occ. eigenvalues --   -0.88736  -0.88111  -0.87395  -0.87068  -0.86335
 Alpha  occ. eigenvalues --   -0.85345  -0.85135  -0.84838  -0.83978  -0.83124
 Alpha  occ. eigenvalues --   -0.82527  -0.81510  -0.80749  -0.80517  -0.79955
 Alpha  occ. eigenvalues --   -0.79598  -0.78031  -0.77601  -0.77055  -0.76319
 Alpha  occ. eigenvalues --   -0.76107  -0.75455  -0.75332  -0.74794  -0.74294
 Alpha  occ. eigenvalues --   -0.73500  -0.72211  -0.71320  -0.70500  -0.68909
 Alpha  occ. eigenvalues --   -0.68528  -0.68364  -0.67014  -0.66891  -0.65400
 Alpha  occ. eigenvalues --   -0.65206  -0.65152  -0.64483  -0.64187  -0.64044
 Alpha  occ. eigenvalues --   -0.63277  -0.62902  -0.62672  -0.62231  -0.59916
 Alpha  occ. eigenvalues --   -0.59799  -0.59494  -0.59402  -0.58851  -0.58338
 Alpha  occ. eigenvalues --   -0.57737  -0.57124  -0.55942  -0.55653  -0.55585
 Alpha  occ. eigenvalues --   -0.55369  -0.55021  -0.54708  -0.54568  -0.54333
 Alpha  occ. eigenvalues --   -0.53842  -0.53506  -0.53072  -0.52737  -0.52553
 Alpha  occ. eigenvalues --   -0.52479  -0.52269  -0.52147  -0.51768  -0.51652
 Alpha  occ. eigenvalues --   -0.51492  -0.51348  -0.51254  -0.51126  -0.50982
 Alpha  occ. eigenvalues --   -0.50693  -0.50343  -0.49959  -0.49884  -0.49719
 Alpha  occ. eigenvalues --   -0.49692  -0.49558  -0.49374  -0.49242  -0.48853
 Alpha  occ. eigenvalues --   -0.48363  -0.48207  -0.48025  -0.47902  -0.47892
 Alpha  occ. eigenvalues --   -0.47573  -0.47536  -0.47275  -0.46877  -0.46795
 Alpha  occ. eigenvalues --   -0.46533  -0.46414  -0.46205  -0.46101  -0.45967
 Alpha  occ. eigenvalues --   -0.45493  -0.45429  -0.45371  -0.45003  -0.44805
 Alpha  occ. eigenvalues --   -0.44796  -0.44545  -0.44357  -0.43945  -0.43827
 Alpha  occ. eigenvalues --   -0.43385  -0.43211  -0.43156  -0.42964  -0.42936
 Alpha  occ. eigenvalues --   -0.42824  -0.42609  -0.42281  -0.41971  -0.41903
 Alpha  occ. eigenvalues --   -0.41856  -0.41675  -0.41574  -0.41362  -0.41213
 Alpha  occ. eigenvalues --   -0.40866  -0.40764  -0.40612  -0.40187  -0.40075
 Alpha  occ. eigenvalues --   -0.39944  -0.39455  -0.39218  -0.39150  -0.38850
 Alpha  occ. eigenvalues --   -0.38516  -0.38260  -0.37882  -0.37572  -0.37212
 Alpha  occ. eigenvalues --   -0.36993  -0.36968  -0.36885  -0.36355  -0.36082
 Alpha  occ. eigenvalues --   -0.35750  -0.35570  -0.35084  -0.34641  -0.34550
 Alpha  occ. eigenvalues --   -0.33817  -0.33629  -0.33048  -0.31650  -0.31026
 Alpha  occ. eigenvalues --   -0.30790  -0.30392  -0.30042  -0.29248  -0.23899
 Alpha  occ. eigenvalues --   -0.20519
 Alpha virt. eigenvalues --   -0.08050  -0.01735   0.00101   0.02285   0.03789
 Alpha virt. eigenvalues --    0.04549   0.04722   0.05899   0.06354   0.06792
 Alpha virt. eigenvalues --    0.07838   0.08420   0.08645   0.09041   0.09458

 Mulliken charges:
               1
     1  Mg   0.840065
     2  C   -0.036041
     3  C   -0.057437
     4  C   -0.069761
     5  C   -0.081191
     6  N   -0.238303
     7  C   -0.059033
     8  C    0.001815
     9  C   -0.109795
    10  C    0.035621
    11  C    0.104726
    12  C    0.059773
    13  C    0.053870
    14  C    0.149240
    15  O   -0.187827
    16  O   -0.339499
    17  N   -0.453370
    18  C    0.149663
    19  C   -0.166435
    20  C   -0.035966
    21  C    0.113494
    22  C    0.085792
    23  C    0.022381
    24  O   -0.190825
    25  C    0.033133
    26  N   -0.317838
    27  C    0.101604
    28  C   -0.053677
    29  C   -0.043203
    30  C    0.028268
    31  C    0.057421
    32  C    0.029553
    33  C    0.036173
    34  N   -0.287223
    35  C    0.141141
    36  C   -0.156718
    37  C   -0.041147
    38  C    0.117680
    39  C    0.096848
    40  C    0.128053
    41  O   -0.163228
    42  C   -0.000566
    43  C    0.203375
    44  O   -0.206742
    45  O   -0.348389
    46  C    0.177736
    47  C    0.269216
    48  C   -0.124780
    49  C   -0.179088
    50  C    0.080824
    51  C    0.077832
    52  C    0.025103
    53  C    0.046362
    54  C   -0.130953
    55  C    0.075893
    56  C    0.030601
    57  C    0.010741
    58  C    0.073517
    59  C   -0.166519
    60  C    0.049856
    61  C    0.075256
    62  C   -0.001819
    63  C    0.052792
    64  C   -0.202580
    65  C    0.046235
    66  C    0.063646
    67  H   -0.033064
    68  H    0.009793
    69  H   -0.037463
    70  H    0.002397
    71  H    0.000960
    72  H    0.014057
    73  H    0.021780
    74  H    0.030823
    75  H    0.012218
    76  H    0.024016
    77  H    0.029978
    78  H    0.038819
    79  H    0.047493
    80  H    0.024794
    81  H    0.026551
    82  H    0.043318
    83  H    0.039380
    84  H   -0.007004
    85  H    0.011754
    86  H    0.007264
    87  H    0.026296
    88  H   -0.000350
    89  H    0.010937
    90  H    0.009258
    91  H   -0.001897
    92  H    0.039715
    93  H   -0.002547
    94  H    0.008452
    95  H    0.017906
    96  H    0.037006
    97  H    0.024485
    98  H    0.030034
    99  H    0.041296
   100  H    0.037358
   101  H    0.019309
   102  H    0.038679
   103  H    0.044264
   104  H   -0.012315
   105  H    0.000783
   106  H    0.036804
   107  H    0.019506
   108  H    0.022024
   109  H   -0.005629
   110  H   -0.012429
   111  H   -0.005202
   112  H   -0.013847
   113  H   -0.009798
   114  H   -0.009392
   115  H    0.012020
   116  H   -0.005756
   117  H    0.010364
   118  H   -0.016698
   119  H    0.005015
   120  H   -0.030563
   121  H   -0.011838
   122  H   -0.011725
   123  H    0.002949
   124  H   -0.006874
   125  H    0.010201
   126  H    0.010244
   127  H    0.013412
   128  H   -0.018580
   129  H   -0.015645
   130  H    0.007030
   131  H   -0.005118
   132  H   -0.003549
   133  H    0.000542
   134  H    0.002493
   135  H    0.006369
   136  H    0.013888
   137  H    0.001910
   138  H    0.010880
   139  H    0.017144
   140  H    0.007971
 Sum of Mulliken charges =  -0.00000

 Dipole moment (field-independent basis, Debye):
    X=              4.7944    Y=              1.3483    Z=             -3.6176  Tot=              6.1556
 Quadrupole moment (field-independent basis, Debye-Ang):
   XX=           -380.0132   YY=           -418.6717   ZZ=           -408.2243
   XY=            -15.4983   XZ=             14.1778   YZ=              4.5351

 Normal termination of Gaussian 16 at Wed May  4 21:53:06 2022.
