 Gaussian 16, Revision A.03,
 Gaussian 16:  ES64L-G16RevA.03 25-Dec-2016

 ---------------------------------
 #p PBE1PBE/Def2SVP td=(nstates=5)
 ---------------------------------

 -----------------------------------------------------
 step_451_chromophore_27 TDDFT with PBE1PBE functional
 -----------------------------------------------------
 Symbolic Z-matrix:
 Charge =  0 Multiplicity = 1

                         Standard orientation:
 ---------------------------------------------------------------------
 Center     Atomic      Atomic             Coordinates (Angstroms)
 Number     Number       Type             X           Y           Z
 ---------------------------------------------------------------------
      1         12           0       -4.647655    0.955853   -0.161681
      2          6           0       -4.005652   -2.611650    0.068174
      3          6           0       -1.228211    1.440864   -0.223154
      4          6           0       -5.378142    4.120027   -0.087208
      5          6           0       -8.050079    0.057575    0.192983
      6          7           0       -2.825537   -0.517890   -0.172561
      7          6           0       -2.772030   -1.878438   -0.050846
      8          6           0       -1.361683   -2.361237   -0.115647
      9          6           0       -0.540329   -1.004375    0.152946
     10          6           0       -1.592085    0.046892   -0.091426
     11          6           0        0.239058   -0.782282    1.477689
     12          6           0       -0.912622   -3.135708   -1.412484
     13          6           0        0.113127   -4.247616   -1.208711
     14          6           0        1.575096   -3.863693   -0.766670
     15          8           0        1.893515   -3.290182    0.220625
     16          8           0        2.524432   -4.229743   -1.702334
     17          7           0       -3.457568    2.535556   -0.182667
     18          6           0       -2.076111    2.556658   -0.208596
     19          6           0       -1.656096    3.968407   -0.043598
     20          6           0       -2.860692    4.800622   -0.047685
     21          6           0       -3.948598    3.842121   -0.038047
     22          6           0       -0.163889    4.456618    0.081529
     23          6           0       -3.026319    6.315748   -0.007623
     24          8           0       -4.128824    6.731278    0.240835
     25          6           0       -1.805236    7.336388   -0.225211
     26          7           0       -6.431775    1.908589   -0.048872
     27          6           0       -6.431395    3.269622    0.046415
     28          6           0       -7.880665    3.751520   -0.036202
     29          6           0       -8.747480    2.501482   -0.008106
     30          6           0       -7.634850    1.381606    0.018982
     31          6           0       -8.251838    4.790584    1.031179
     32          6           0       -9.679626    2.286831   -1.193551
     33          6           0      -11.076430    1.750099   -0.829035
     34          7           0       -5.839139   -0.900093    0.059926
     35          6           0       -7.202984   -1.050177    0.174220
     36          6           0       -7.527621   -2.485023    0.353443
     37          6           0       -6.300548   -3.141328    0.257777
     38          6           0       -5.298803   -2.122057    0.124728
     39          6           0       -8.859980   -3.116998    0.324448
     40          6           0       -5.622737   -4.492026    0.459583
     41          8           0       -6.086029   -5.609296    0.700500
     42          6           0       -4.133777   -4.144725    0.331562
     43          6           0       -3.523392   -4.599592    1.561446
     44          8           0       -3.700832   -4.066803    2.648276
     45          8           0       -2.721398   -5.707910    1.272241
     46          6           0       -1.801689   -6.180184    2.293356
     47          6           0        3.937164   -3.931313   -1.478328
     48          6           0        4.480969   -2.575639   -1.968608
     49          6           0        5.752804   -2.194057   -2.077985
     50          6           0        6.906657   -3.101933   -1.640769
     51          6           0        6.095163   -0.772583   -2.666179
     52          6           0        6.757806   -0.800889   -4.054440
     53          6           0        8.172018   -0.373736   -3.941259
     54          6           0        8.321521    1.118655   -4.172870
     55          6           0        8.675361    1.279951   -5.667136
     56          6           0        9.419588    1.718085   -3.169879
     57          6           0        8.860034    1.960436   -1.788438
     58          6           0        9.943302    2.217314   -0.712155
     59          6           0        9.644603    1.440197    0.605040
     60          6           0        9.627950   -0.087981    0.396551
     61          6           0       10.610336    1.822538    1.725917
     62          6           0        9.807687    2.182637    2.996191
     63          6           0        9.373004    0.926694    3.904810
     64          6           0        9.753462    1.216331    5.397015
     65          6           0       11.267444    1.010540    5.674699
     66          6           0        8.812604    0.446137    6.414688
     67          1           0       -0.168574    1.691204   -0.142204
     68          1           0       -5.618418    5.179726    0.019358
     69          1           0       -9.139540   -0.024780    0.178114
     70          1           0       -1.176413   -3.000009    0.748073
     71          1           0        0.222734   -0.929612   -0.621779
     72          1           0       -0.496900   -0.355208    2.158673
     73          1           0        1.071358   -0.114304    1.255316
     74          1           0        0.509330   -1.777689    1.827909
     75          1           0       -0.379437   -2.384223   -1.995305
     76          1           0       -1.788803   -3.480001   -1.961708
     77          1           0        0.114232   -4.667731   -2.214452
     78          1           0       -0.275571   -4.985305   -0.506830
     79          1           0        0.104225    4.866815   -0.891576
     80          1           0        0.583696    3.752568    0.447180
     81          1           0       -0.192686    5.255959    0.823288
     82          1           0       -1.548108    7.795482    0.729556
     83          1           0       -1.997503    8.104817   -0.974240
     84          1           0       -0.892286    6.847968   -0.565843
     85          1           0       -8.027006    4.310973   -0.960130
     86          1           0       -9.299283    2.512253    0.931374
     87          1           0       -7.388003    5.372452    1.351982
     88          1           0       -8.648114    4.218577    1.869907
     89          1           0       -9.007353    5.508896    0.712631
     90          1           0       -9.238048    1.584299   -1.899562
     91          1           0       -9.664232    3.223239   -1.750977
     92          1           0      -11.202392    1.433081    0.207068
     93          1           0      -11.268865    0.914451   -1.501576
     94          1           0      -11.773590    2.421357   -1.331013
     95          1           0       -9.534038   -2.724477   -0.436522
     96          1           0       -9.263231   -3.073436    1.335779
     97          1           0       -8.881460   -4.138548   -0.055964
     98          1           0       -3.583738   -4.590229   -0.497238
     99          1           0       -2.095925   -7.029183    2.911500
    100          1           0       -1.457953   -5.351069    2.910659
    101          1           0       -0.889349   -6.571329    1.843512
    102          1           0        4.502470   -4.643672   -2.079136
    103          1           0        4.162461   -3.985976   -0.412952
    104          1           0        3.727931   -1.852363   -2.282657
    105          1           0        6.529140   -4.059271   -1.281405
    106          1           0        7.543305   -2.585758   -0.922470
    107          1           0        7.461589   -3.431595   -2.519595
    108          1           0        6.674563   -0.302268   -1.872193
    109          1           0        5.217297   -0.160834   -2.873788
    110          1           0        6.190162   -0.183606   -4.750292
    111          1           0        6.751062   -1.743503   -4.602759
    112          1           0        8.784103   -0.930661   -4.649956
    113          1           0        8.498773   -0.684183   -2.949027
    114          1           0        7.412237    1.664385   -3.919055
    115          1           0        9.695014    1.641398   -5.797909
    116          1           0        8.034559    2.067868   -6.064533
    117          1           0        8.473498    0.428546   -6.316878
    118          1           0        9.461040    2.768701   -3.456817
    119          1           0       10.422770    1.302034   -3.073586
    120          1           0        8.182400    1.119551   -1.641906
    121          1           0        8.176139    2.803593   -1.886227
    122          1           0        9.762065    3.260752   -0.452985
    123          1           0       10.998529    2.243732   -0.981762
    124          1           0        8.616705    1.680998    0.878905
    125          1           0       10.033091   -0.199866   -0.610249
    126          1           0        8.581178   -0.389898    0.429004
    127          1           0       10.199756   -0.674790    1.115403
    128          1           0       11.270483    2.610001    1.360720
    129          1           0       11.316922    1.009456    1.895188
    130          1           0        8.962291    2.836779    2.783060
    131          1           0       10.525281    2.753901    3.585331
    132          1           0        9.969931    0.086131    3.550977
    133          1           0        8.308412    0.721559    3.791165
    134          1           0        9.598523    2.284006    5.556486
    135          1           0       11.397887    0.322854    6.510540
    136          1           0       11.848506    1.905665    5.897687
    137          1           0       11.664757    0.591911    4.750310
    138          1           0        7.931717    0.097602    5.875849
    139          1           0        8.593587    1.175928    7.193014
    140          1           0        9.443183   -0.365812    6.776644
 ---------------------------------------------------------------------

 SCF Done:  E(RPBE1PBE) =  -3005.34735008     A.U. after   16 cycles

 Excitation energies and oscillator strengths:

 Excited State   1:      Singlet-A      1.8613 eV  666.11 nm  f=0.3710  <S**2>=0.000
     245 -> 248       -0.17914
     246 -> 247        0.69092
     246 <- 247       -0.10719
 This state for optimization and/or second-order correction.
 Total Energy, E(TD-HF/TD-DFT) =  -3005.27894771
 Copying the excited state density for this state as the 1-particle RhoCI density.

 Excited State   2:      Singlet-A      2.2627 eV  547.95 nm  f=0.0728  <S**2>=0.000
     245 -> 247        0.63215
     246 -> 248        0.30579

 Excited State   3:      Singlet-A      3.1304 eV  396.06 nm  f=0.0011  <S**2>=0.000
     244 -> 247        0.68521
     246 -> 249        0.10410

 Excited State   4:      Singlet-A      3.1921 eV  388.41 nm  f=0.2455  <S**2>=0.000
     240 -> 247        0.15923
     243 -> 247       -0.33084
     245 -> 247       -0.21019
     246 -> 248        0.51306
     246 -> 249       -0.15052
     246 -> 250       -0.10851

 Excited State   5:      Singlet-A      3.2574 eV  380.63 nm  f=0.0020  <S**2>=0.000
     239 -> 247        0.25376
     240 -> 247        0.55818
     240 -> 249       -0.18016
     243 -> 247        0.15158
     246 -> 249        0.18631

 The electronic state is 1-A.
 Alpha  occ. eigenvalues --  -46.91510 -19.26047 -19.25860 -19.21376 -19.20317
 Alpha  occ. eigenvalues --  -19.20134 -19.19497 -14.41517 -14.40730 -14.39098
 Alpha  occ. eigenvalues --  -14.38497 -10.37577 -10.36426 -10.33304 -10.33114
 Alpha  occ. eigenvalues --  -10.30123 -10.28971 -10.28923 -10.28290 -10.28156
 Alpha  occ. eigenvalues --  -10.28065 -10.27443 -10.27440 -10.27428 -10.26730
 Alpha  occ. eigenvalues --  -10.26226 -10.26109 -10.25939 -10.25882 -10.25840
 Alpha  occ. eigenvalues --  -10.25581 -10.25522 -10.25019 -10.24952 -10.24868
 Alpha  occ. eigenvalues --  -10.24832 -10.24763 -10.24270 -10.24012 -10.23951
 Alpha  occ. eigenvalues --  -10.23925 -10.23904 -10.23847 -10.23656 -10.23430
 Alpha  occ. eigenvalues --  -10.23419 -10.23395 -10.23349 -10.23094 -10.22966
 Alpha  occ. eigenvalues --  -10.22948 -10.22928 -10.22869 -10.22784 -10.22783
 Alpha  occ. eigenvalues --  -10.22610 -10.22486 -10.22397 -10.22319 -10.22258
 Alpha  occ. eigenvalues --  -10.22096 -10.22079 -10.22001 -10.21982 -10.21701
 Alpha  occ. eigenvalues --  -10.21649  -3.13725  -1.86571  -1.86096  -1.85964
 Alpha  occ. eigenvalues --   -1.12639  -1.10407  -1.06198  -1.04472  -1.04126
 Alpha  occ. eigenvalues --   -1.02935  -0.99018  -0.98214  -0.97439  -0.95837
 Alpha  occ. eigenvalues --   -0.86768  -0.85272  -0.84033  -0.83713  -0.83274
 Alpha  occ. eigenvalues --   -0.82884  -0.82513  -0.81505  -0.81366  -0.80578
 Alpha  occ. eigenvalues --   -0.79582  -0.79523  -0.79108  -0.78243  -0.77432
 Alpha  occ. eigenvalues --   -0.76732  -0.75780  -0.75117  -0.74776  -0.74142
 Alpha  occ. eigenvalues --   -0.73803  -0.72301  -0.71951  -0.71326  -0.70522
 Alpha  occ. eigenvalues --   -0.70354  -0.69569  -0.69433  -0.69169  -0.68478
 Alpha  occ. eigenvalues --   -0.67853  -0.66645  -0.65816  -0.64808  -0.63263
 Alpha  occ. eigenvalues --   -0.62838  -0.62747  -0.61468  -0.61206  -0.59867
 Alpha  occ. eigenvalues --   -0.59680  -0.59379  -0.59041  -0.58635  -0.58365
 Alpha  occ. eigenvalues --   -0.57708  -0.57133  -0.56855  -0.56724  -0.54515
 Alpha  occ. eigenvalues --   -0.54221  -0.54024  -0.53832  -0.53383  -0.52693
 Alpha  occ. eigenvalues --   -0.52262  -0.51712  -0.50522  -0.50313  -0.50036
 Alpha  occ. eigenvalues --   -0.49827  -0.49522  -0.49269  -0.48978  -0.48773
 Alpha  occ. eigenvalues --   -0.48385  -0.48030  -0.47503  -0.47342  -0.47160
 Alpha  occ. eigenvalues --   -0.46994  -0.46850  -0.46759  -0.46225  -0.46101
 Alpha  occ. eigenvalues --   -0.46056  -0.45884  -0.45731  -0.45670  -0.45484
 Alpha  occ. eigenvalues --   -0.45259  -0.44900  -0.44585  -0.44433  -0.44301
 Alpha  occ. eigenvalues --   -0.44213  -0.44166  -0.43986  -0.43814  -0.43517
 Alpha  occ. eigenvalues --   -0.42986  -0.42853  -0.42640  -0.42613  -0.42502
 Alpha  occ. eigenvalues --   -0.42275  -0.42179  -0.41933  -0.41568  -0.41458
 Alpha  occ. eigenvalues --   -0.41182  -0.41113  -0.41073  -0.40763  -0.40587
 Alpha  occ. eigenvalues --   -0.40243  -0.40068  -0.40027  -0.39652  -0.39487
 Alpha  occ. eigenvalues --   -0.39447  -0.39349  -0.39169  -0.38613  -0.38523
 Alpha  occ. eigenvalues --   -0.38212  -0.38035  -0.37932  -0.37782  -0.37738
 Alpha  occ. eigenvalues --   -0.37652  -0.37420  -0.37068  -0.36824  -0.36725
 Alpha  occ. eigenvalues --   -0.36544  -0.36498  -0.36440  -0.36274  -0.35997
 Alpha  occ. eigenvalues --   -0.35786  -0.35568  -0.35476  -0.35021  -0.34984
 Alpha  occ. eigenvalues --   -0.34855  -0.34277  -0.34254  -0.33947  -0.33853
 Alpha  occ. eigenvalues --   -0.33269  -0.33217  -0.32677  -0.32457  -0.32209
 Alpha  occ. eigenvalues --   -0.31896  -0.31810  -0.31681  -0.31416  -0.31021
 Alpha  occ. eigenvalues --   -0.30781  -0.30492  -0.29941  -0.29452  -0.29320
 Alpha  occ. eigenvalues --   -0.28826  -0.28805  -0.28619  -0.26498  -0.26282
 Alpha  occ. eigenvalues --   -0.26080  -0.25652  -0.25567  -0.24974  -0.20800
 Alpha  occ. eigenvalues --   -0.18208
 Alpha virt. eigenvalues --   -0.10611  -0.05227  -0.04146  -0.02102  -0.00029
 Alpha virt. eigenvalues --    0.00107   0.01008   0.01927   0.02125   0.02994
 Alpha virt. eigenvalues --    0.03665   0.04702   0.05050   0.05528   0.06114

 Mulliken charges:
               1
     1  Mg   0.992081
     2  C   -0.048771
     3  C   -0.049384
     4  C   -0.056687
     5  C   -0.060678
     6  N   -0.341881
     7  C    0.016358
     8  C   -0.061885
     9  C   -0.185996
    10  C    0.076792
    11  C    0.043883
    12  C    0.006657
    13  C   -0.028299
    14  C    0.219282
    15  O   -0.222266
    16  O   -0.373806
    17  N   -0.571162
    18  C    0.176272
    19  C   -0.192445
    20  C   -0.082366
    21  C    0.145160
    22  C    0.023823
    23  C    0.070647
    24  O   -0.225782
    25  C   -0.038356
    26  N   -0.434433
    27  C    0.127212
    28  C   -0.131454
    29  C   -0.122141
    30  C    0.063452
    31  C    0.001574
    32  C   -0.022751
    33  C   -0.041489
    34  N   -0.410016
    35  C    0.153984
    36  C   -0.176381
    37  C   -0.077035
    38  C    0.164434
    39  C    0.042005
    40  C    0.213467
    41  O   -0.211200
    42  C   -0.105330
    43  C    0.294707
    44  O   -0.241568
    45  O   -0.382091
    46  C    0.124596
    47  C    0.228271
    48  C   -0.129442
    49  C   -0.224935
    50  C    0.018214
    51  C    0.004030
    52  C   -0.029025
    53  C   -0.019673
    54  C   -0.214484
    55  C    0.018065
    56  C   -0.027946
    57  C   -0.056781
    58  C    0.012223
    59  C   -0.243114
    60  C   -0.014394
    61  C    0.020866
    62  C   -0.070453
    63  C   -0.002546
    64  C   -0.289872
    65  C   -0.014325
    66  C   -0.000712
    67  H   -0.000588
    68  H    0.041527
    69  H   -0.001293
    70  H    0.045298
    71  H    0.038891
    72  H    0.043878
    73  H    0.048400
    74  H    0.059809
    75  H    0.045158
    76  H    0.055653
    77  H    0.062476
    78  H    0.074319
    79  H    0.075568
    80  H    0.051405
    81  H    0.056408
    82  H    0.069839
    83  H    0.066165
    84  H    0.021001
    85  H    0.049072
    86  H    0.043781
    87  H    0.053266
    88  H    0.028392
    89  H    0.039344
    90  H    0.042321
    91  H    0.030252
    92  H    0.064191
    93  H    0.026386
    94  H    0.037458
    95  H    0.043030
    96  H    0.064148
    97  H    0.050922
    98  H    0.068087
    99  H    0.062832
   100  H    0.057430
   101  H    0.040235
   102  H    0.065181
   103  H    0.070611
   104  H    0.017616
   105  H    0.028191
   106  H    0.064974
   107  H    0.047303
   108  H    0.060201
   109  H    0.025498
   110  H    0.020163
   111  H    0.026783
   112  H    0.019765
   113  H    0.027250
   114  H    0.027233
   115  H    0.039577
   116  H    0.022478
   117  H    0.036639
   118  H    0.020049
   119  H    0.035609
   120  H    0.011548
   121  H    0.021293
   122  H    0.024192
   123  H    0.033120
   124  H    0.030726
   125  H    0.040681
   126  H    0.038589
   127  H    0.039917
   128  H    0.014043
   129  H    0.016947
   130  H    0.039394
   131  H    0.029001
   132  H    0.030174
   133  H    0.032072
   134  H    0.041176
   135  H    0.033355
   136  H    0.040651
   137  H    0.029863
   138  H    0.038095
   139  H    0.044827
   140  H    0.035453
 Sum of Mulliken charges =  -0.00000

 Dipole moment (field-independent basis, Debye):
    X=              4.9694    Y=              1.8021    Z=             -3.6716  Tot=              6.4361
 Quadrupole moment (field-independent basis, Debye-Ang):
   XX=           -375.6955   YY=           -415.8083   ZZ=           -405.7855
   XY=            -17.9249   XZ=             14.4318   YZ=              4.7094

 Normal termination of Gaussian 16 at Wed May  4 22:22:52 2022.
