 Gaussian 16, Revision A.03,
 Gaussian 16:  ES64L-G16RevA.03 25-Dec-2016

 --------------------------------
 #p wB97XD/Def2SVP td=(nstates=5)
 --------------------------------

 ----------------------------------------------------
 step_451_chromophore_27 TDDFT with wB97XD functional
 ----------------------------------------------------
 Symbolic Z-matrix:
 Charge =  0 Multiplicity = 1

                         Standard orientation:
 ---------------------------------------------------------------------
 Center     Atomic      Atomic             Coordinates (Angstroms)
 Number     Number       Type             X           Y           Z
 ---------------------------------------------------------------------
      1         12           0       -4.647655    0.955853   -0.161681
      2          6           0       -4.005652   -2.611650    0.068174
      3          6           0       -1.228211    1.440864   -0.223154
      4          6           0       -5.378142    4.120027   -0.087208
      5          6           0       -8.050079    0.057575    0.192983
      6          7           0       -2.825537   -0.517890   -0.172561
      7          6           0       -2.772030   -1.878438   -0.050846
      8          6           0       -1.361683   -2.361237   -0.115647
      9          6           0       -0.540329   -1.004375    0.152946
     10          6           0       -1.592085    0.046892   -0.091426
     11          6           0        0.239058   -0.782282    1.477689
     12          6           0       -0.912622   -3.135708   -1.412484
     13          6           0        0.113127   -4.247616   -1.208711
     14          6           0        1.575096   -3.863693   -0.766670
     15          8           0        1.893515   -3.290182    0.220625
     16          8           0        2.524432   -4.229743   -1.702334
     17          7           0       -3.457568    2.535556   -0.182667
     18          6           0       -2.076111    2.556658   -0.208596
     19          6           0       -1.656096    3.968407   -0.043598
     20          6           0       -2.860692    4.800622   -0.047685
     21          6           0       -3.948598    3.842121   -0.038047
     22          6           0       -0.163889    4.456618    0.081529
     23          6           0       -3.026319    6.315748   -0.007623
     24          8           0       -4.128824    6.731278    0.240835
     25          6           0       -1.805236    7.336388   -0.225211
     26          7           0       -6.431775    1.908589   -0.048872
     27          6           0       -6.431395    3.269622    0.046415
     28          6           0       -7.880665    3.751520   -0.036202
     29          6           0       -8.747480    2.501482   -0.008106
     30          6           0       -7.634850    1.381606    0.018982
     31          6           0       -8.251838    4.790584    1.031179
     32          6           0       -9.679626    2.286831   -1.193551
     33          6           0      -11.076430    1.750099   -0.829035
     34          7           0       -5.839139   -0.900093    0.059926
     35          6           0       -7.202984   -1.050177    0.174220
     36          6           0       -7.527621   -2.485023    0.353443
     37          6           0       -6.300548   -3.141328    0.257777
     38          6           0       -5.298803   -2.122057    0.124728
     39          6           0       -8.859980   -3.116998    0.324448
     40          6           0       -5.622737   -4.492026    0.459583
     41          8           0       -6.086029   -5.609296    0.700500
     42          6           0       -4.133777   -4.144725    0.331562
     43          6           0       -3.523392   -4.599592    1.561446
     44          8           0       -3.700832   -4.066803    2.648276
     45          8           0       -2.721398   -5.707910    1.272241
     46          6           0       -1.801689   -6.180184    2.293356
     47          6           0        3.937164   -3.931313   -1.478328
     48          6           0        4.480969   -2.575639   -1.968608
     49          6           0        5.752804   -2.194057   -2.077985
     50          6           0        6.906657   -3.101933   -1.640769
     51          6           0        6.095163   -0.772583   -2.666179
     52          6           0        6.757806   -0.800889   -4.054440
     53          6           0        8.172018   -0.373736   -3.941259
     54          6           0        8.321521    1.118655   -4.172870
     55          6           0        8.675361    1.279951   -5.667136
     56          6           0        9.419588    1.718085   -3.169879
     57          6           0        8.860034    1.960436   -1.788438
     58          6           0        9.943302    2.217314   -0.712155
     59          6           0        9.644603    1.440197    0.605040
     60          6           0        9.627950   -0.087981    0.396551
     61          6           0       10.610336    1.822538    1.725917
     62          6           0        9.807687    2.182637    2.996191
     63          6           0        9.373004    0.926694    3.904810
     64          6           0        9.753462    1.216331    5.397015
     65          6           0       11.267444    1.010540    5.674699
     66          6           0        8.812604    0.446137    6.414688
     67          1           0       -0.168574    1.691204   -0.142204
     68          1           0       -5.618418    5.179726    0.019358
     69          1           0       -9.139540   -0.024780    0.178114
     70          1           0       -1.176413   -3.000009    0.748073
     71          1           0        0.222734   -0.929612   -0.621779
     72          1           0       -0.496900   -0.355208    2.158673
     73          1           0        1.071358   -0.114304    1.255316
     74          1           0        0.509330   -1.777689    1.827909
     75          1           0       -0.379437   -2.384223   -1.995305
     76          1           0       -1.788803   -3.480001   -1.961708
     77          1           0        0.114232   -4.667731   -2.214452
     78          1           0       -0.275571   -4.985305   -0.506830
     79          1           0        0.104225    4.866815   -0.891576
     80          1           0        0.583696    3.752568    0.447180
     81          1           0       -0.192686    5.255959    0.823288
     82          1           0       -1.548108    7.795482    0.729556
     83          1           0       -1.997503    8.104817   -0.974240
     84          1           0       -0.892286    6.847968   -0.565843
     85          1           0       -8.027006    4.310973   -0.960130
     86          1           0       -9.299283    2.512253    0.931374
     87          1           0       -7.388003    5.372452    1.351982
     88          1           0       -8.648114    4.218577    1.869907
     89          1           0       -9.007353    5.508896    0.712631
     90          1           0       -9.238048    1.584299   -1.899562
     91          1           0       -9.664232    3.223239   -1.750977
     92          1           0      -11.202392    1.433081    0.207068
     93          1           0      -11.268865    0.914451   -1.501576
     94          1           0      -11.773590    2.421357   -1.331013
     95          1           0       -9.534038   -2.724477   -0.436522
     96          1           0       -9.263231   -3.073436    1.335779
     97          1           0       -8.881460   -4.138548   -0.055964
     98          1           0       -3.583738   -4.590229   -0.497238
     99          1           0       -2.095925   -7.029183    2.911500
    100          1           0       -1.457953   -5.351069    2.910659
    101          1           0       -0.889349   -6.571329    1.843512
    102          1           0        4.502470   -4.643672   -2.079136
    103          1           0        4.162461   -3.985976   -0.412952
    104          1           0        3.727931   -1.852363   -2.282657
    105          1           0        6.529140   -4.059271   -1.281405
    106          1           0        7.543305   -2.585758   -0.922470
    107          1           0        7.461589   -3.431595   -2.519595
    108          1           0        6.674563   -0.302268   -1.872193
    109          1           0        5.217297   -0.160834   -2.873788
    110          1           0        6.190162   -0.183606   -4.750292
    111          1           0        6.751062   -1.743503   -4.602759
    112          1           0        8.784103   -0.930661   -4.649956
    113          1           0        8.498773   -0.684183   -2.949027
    114          1           0        7.412237    1.664385   -3.919055
    115          1           0        9.695014    1.641398   -5.797909
    116          1           0        8.034559    2.067868   -6.064533
    117          1           0        8.473498    0.428546   -6.316878
    118          1           0        9.461040    2.768701   -3.456817
    119          1           0       10.422770    1.302034   -3.073586
    120          1           0        8.182400    1.119551   -1.641906
    121          1           0        8.176139    2.803593   -1.886227
    122          1           0        9.762065    3.260752   -0.452985
    123          1           0       10.998529    2.243732   -0.981762
    124          1           0        8.616705    1.680998    0.878905
    125          1           0       10.033091   -0.199866   -0.610249
    126          1           0        8.581178   -0.389898    0.429004
    127          1           0       10.199756   -0.674790    1.115403
    128          1           0       11.270483    2.610001    1.360720
    129          1           0       11.316922    1.009456    1.895188
    130          1           0        8.962291    2.836779    2.783060
    131          1           0       10.525281    2.753901    3.585331
    132          1           0        9.969931    0.086131    3.550977
    133          1           0        8.308412    0.721559    3.791165
    134          1           0        9.598523    2.284006    5.556486
    135          1           0       11.397887    0.322854    6.510540
    136          1           0       11.848506    1.905665    5.897687
    137          1           0       11.664757    0.591911    4.750310
    138          1           0        7.931717    0.097602    5.875849
    139          1           0        8.593587    1.175928    7.193014
    140          1           0        9.443183   -0.365812    6.776644
 ---------------------------------------------------------------------

 SCF Done:  E(RwB97XD) =  -3007.85973006     A.U. after   17 cycles

 Excitation energies and oscillator strengths:

 Excited State   1:      Singlet-A      1.6714 eV  741.78 nm  f=0.3810  <S**2>=0.000
     245 -> 248       -0.19040
     246 -> 247        0.68144
     245 <- 248       -0.11532
 This state for optimization and/or second-order correction.
 Total Energy, E(TD-HF/TD-DFT) =  -3007.79830563
 Copying the excited state density for this state as the 1-particle RhoCI density.

 Excited State   2:      Singlet-A      2.2278 eV  556.52 nm  f=0.0676  <S**2>=0.000
     245 -> 247        0.61357
     246 -> 248        0.33933

 Excited State   3:      Singlet-A      3.4132 eV  363.25 nm  f=0.6061  <S**2>=0.000
     243 -> 247       -0.27240
     245 -> 247       -0.29297
     246 -> 248        0.57465
     245 <- 247        0.10728

 Excited State   4:      Singlet-A      3.5364 eV  350.59 nm  f=0.0257  <S**2>=0.000
     243 -> 247       -0.25006
     244 -> 247        0.62114
     246 -> 248       -0.12398

 Excited State   5:      Singlet-A      3.6407 eV  340.55 nm  f=0.0023  <S**2>=0.000
     239 -> 247        0.52461
     239 -> 248       -0.10137
     239 -> 249       -0.36235
     239 -> 250        0.20389

 The electronic state is 1-A.
 Alpha  occ. eigenvalues --  -46.94409 -19.30758 -19.30411 -19.26075 -19.25298
 Alpha  occ. eigenvalues --  -19.25216 -19.24086 -14.46695 -14.45695 -14.43891
 Alpha  occ. eigenvalues --  -14.43562 -10.44369 -10.43439 -10.40462 -10.39735
 Alpha  occ. eigenvalues --  -10.36607 -10.35538 -10.35415 -10.34531 -10.34343
 Alpha  occ. eigenvalues --  -10.34247 -10.34105 -10.33584 -10.33421 -10.32871
 Alpha  occ. eigenvalues --  -10.32668 -10.32665 -10.32414 -10.32275 -10.32265
 Alpha  occ. eigenvalues --  -10.32186 -10.32124 -10.31396 -10.31336 -10.31086
 Alpha  occ. eigenvalues --  -10.31026 -10.30882 -10.30496 -10.30399 -10.30292
 Alpha  occ. eigenvalues --  -10.30261 -10.30197 -10.30153 -10.30017 -10.30011
 Alpha  occ. eigenvalues --  -10.29809 -10.29710 -10.29666 -10.29621 -10.29331
 Alpha  occ. eigenvalues --  -10.29288 -10.29264 -10.29129 -10.29124 -10.29121
 Alpha  occ. eigenvalues --  -10.28909 -10.28840 -10.28758 -10.28621 -10.28604
 Alpha  occ. eigenvalues --  -10.28517 -10.28419 -10.28402 -10.28388 -10.28120
 Alpha  occ. eigenvalues --  -10.27999  -3.20483  -1.94080  -1.93604  -1.93464
 Alpha  occ. eigenvalues --   -1.19999  -1.17979  -1.13454  -1.12275  -1.11457
 Alpha  occ. eigenvalues --   -1.10479  -1.06407  -1.05651  -1.04915  -1.02997
 Alpha  occ. eigenvalues --   -0.94595  -0.92929  -0.91692  -0.91375  -0.90833
 Alpha  occ. eigenvalues --   -0.90540  -0.90040  -0.89159  -0.89023  -0.88308
 Alpha  occ. eigenvalues --   -0.87196  -0.87024  -0.86713  -0.85925  -0.85014
 Alpha  occ. eigenvalues --   -0.84376  -0.83453  -0.82692  -0.82416  -0.81792
 Alpha  occ. eigenvalues --   -0.81473  -0.79996  -0.79516  -0.79009  -0.78187
 Alpha  occ. eigenvalues --   -0.78005  -0.77252  -0.77123  -0.76737  -0.76128
 Alpha  occ. eigenvalues --   -0.75428  -0.74220  -0.73309  -0.72428  -0.70876
 Alpha  occ. eigenvalues --   -0.70416  -0.70351  -0.68911  -0.68829  -0.67311
 Alpha  occ. eigenvalues --   -0.67180  -0.67004  -0.66485  -0.66117  -0.65968
 Alpha  occ. eigenvalues --   -0.65222  -0.64747  -0.64495  -0.64249  -0.61928
 Alpha  occ. eigenvalues --   -0.61746  -0.61444  -0.61350  -0.60827  -0.60352
 Alpha  occ. eigenvalues --   -0.59694  -0.59110  -0.57914  -0.57648  -0.57522
 Alpha  occ. eigenvalues --   -0.57284  -0.56971  -0.56677  -0.56438  -0.56224
 Alpha  occ. eigenvalues --   -0.55777  -0.55414  -0.54915  -0.54659  -0.54513
 Alpha  occ. eigenvalues --   -0.54399  -0.54168  -0.54068  -0.53651  -0.53608
 Alpha  occ. eigenvalues --   -0.53395  -0.53258  -0.53114  -0.53025  -0.52849
 Alpha  occ. eigenvalues --   -0.52645  -0.52288  -0.51881  -0.51786  -0.51649
 Alpha  occ. eigenvalues --   -0.51600  -0.51451  -0.51251  -0.51186  -0.50761
 Alpha  occ. eigenvalues --   -0.50250  -0.50096  -0.49912  -0.49841  -0.49798
 Alpha  occ. eigenvalues --   -0.49505  -0.49406  -0.49214  -0.48804  -0.48680
 Alpha  occ. eigenvalues --   -0.48412  -0.48335  -0.48139  -0.48042  -0.47824
 Alpha  occ. eigenvalues --   -0.47455  -0.47386  -0.47223  -0.46860  -0.46784
 Alpha  occ. eigenvalues --   -0.46656  -0.46505  -0.46286  -0.45807  -0.45790
 Alpha  occ. eigenvalues --   -0.45269  -0.45157  -0.45062  -0.44933  -0.44826
 Alpha  occ. eigenvalues --   -0.44737  -0.44530  -0.44236  -0.43882  -0.43832
 Alpha  occ. eigenvalues --   -0.43802  -0.43559  -0.43504  -0.43299  -0.43078
 Alpha  occ. eigenvalues --   -0.42799  -0.42621  -0.42501  -0.42078  -0.41989
 Alpha  occ. eigenvalues --   -0.41871  -0.41290  -0.41105  -0.41002  -0.40752
 Alpha  occ. eigenvalues --   -0.40341  -0.40156  -0.39731  -0.39477  -0.39175
 Alpha  occ. eigenvalues --   -0.38992  -0.38844  -0.38725  -0.38493  -0.37987
 Alpha  occ. eigenvalues --   -0.37668  -0.37419  -0.37011  -0.36613  -0.36409
 Alpha  occ. eigenvalues --   -0.35637  -0.35630  -0.35316  -0.33704  -0.33035
 Alpha  occ. eigenvalues --   -0.32952  -0.32412  -0.32265  -0.31392  -0.25835
 Alpha  occ. eigenvalues --   -0.22335
 Alpha virt. eigenvalues --   -0.06405   0.00173   0.02138   0.04380   0.06651
 Alpha virt. eigenvalues --    0.06837   0.06987   0.08597   0.08725   0.09292
 Alpha virt. eigenvalues --    0.10291   0.11530   0.11747   0.12334   0.12915

 Mulliken charges:
               1
     1  Mg   0.981116
     2  C   -0.049822
     3  C   -0.061199
     4  C   -0.074701
     5  C   -0.085805
     6  N   -0.305015
     7  C   -0.017130
     8  C   -0.038129
     9  C   -0.157307
    10  C    0.055897
    11  C    0.056845
    12  C    0.018096
    13  C   -0.008045
    14  C    0.203705
    15  O   -0.217475
    16  O   -0.371940
    17  N   -0.539677
    18  C    0.163656
    19  C   -0.184640
    20  C   -0.077664
    21  C    0.135882
    22  C    0.037378
    23  C    0.064047
    24  O   -0.222306
    25  C   -0.024425
    26  N   -0.399935
    27  C    0.120010
    28  C   -0.105791
    29  C   -0.094183
    30  C    0.057943
    31  C    0.012437
    32  C   -0.011016
    33  C   -0.026863
    34  N   -0.372381
    35  C    0.151246
    36  C   -0.167556
    37  C   -0.076193
    38  C    0.150378
    39  C    0.049729
    40  C    0.198293
    41  O   -0.198832
    42  C   -0.064458
    43  C    0.268314
    44  O   -0.235208
    45  O   -0.379637
    46  C    0.139526
    47  C    0.243128
    48  C   -0.141061
    49  C   -0.212021
    50  C    0.033245
    51  C    0.030138
    52  C   -0.020928
    53  C    0.009089
    54  C   -0.185690
    55  C    0.026513
    56  C   -0.012626
    57  C   -0.025307
    58  C    0.027197
    59  C   -0.215419
    60  C    0.001585
    61  C    0.036106
    62  C   -0.050713
    63  C    0.013348
    64  C   -0.261117
    65  C   -0.002404
    66  C    0.014973
    67  H   -0.007831
    68  H    0.034011
    69  H   -0.011022
    70  H    0.027578
    71  H    0.025868
    72  H    0.036755
    73  H    0.043658
    74  H    0.052480
    75  H    0.036304
    76  H    0.048866
    77  H    0.058092
    78  H    0.066651
    79  H    0.069179
    80  H    0.047416
    81  H    0.048310
    82  H    0.066131
    83  H    0.063543
    84  H    0.013843
    85  H    0.038189
    86  H    0.030583
    87  H    0.047665
    88  H    0.020704
    89  H    0.033924
    90  H    0.033074
    91  H    0.022704
    92  H    0.059725
    93  H    0.020004
    94  H    0.032609
    95  H    0.039185
    96  H    0.060774
    97  H    0.048194
    98  H    0.060192
    99  H    0.059602
   100  H    0.053907
   101  H    0.036406
   102  H    0.059726
   103  H    0.065754
   104  H    0.014315
   105  H    0.022417
   106  H    0.059039
   107  H    0.041167
   108  H    0.046838
   109  H    0.019824
   110  H    0.011957
   111  H    0.019620
   112  H    0.011491
   113  H    0.007767
   114  H    0.014629
   115  H    0.034521
   116  H    0.016917
   117  H    0.030927
   118  H    0.009403
   119  H    0.027878
   120  H   -0.018532
   121  H    0.013808
   122  H    0.014213
   123  H    0.025921
   124  H    0.017014
   125  H    0.030480
   126  H    0.030803
   127  H    0.034229
   128  H    0.006719
   129  H    0.006044
   130  H    0.031890
   131  H    0.018362
   132  H    0.015693
   133  H    0.024587
   134  H    0.028198
   135  H    0.027223
   136  H    0.035996
   137  H    0.021238
   138  H    0.032166
   139  H    0.039541
   140  H    0.027743
 Sum of Mulliken charges =  -0.00000

 Dipole moment (field-independent basis, Debye):
    X=              4.7846    Y=              1.2735    Z=             -3.6617  Tot=              6.1581
 Quadrupole moment (field-independent basis, Debye-Ang):
   XX=           -374.4215   YY=           -414.5343   ZZ=           -405.3033
   XY=            -15.0001   XZ=             14.3244   YZ=              4.3998

 Normal termination of Gaussian 16 at Wed May  4 22:58:25 2022.
