 Gaussian 16, Revision A.03,
 Gaussian 16:  ES64L-G16RevA.03 25-Dec-2016

 --------------------
 #p ZINDO=(nstates=5)
 --------------------

 -----------------------------
 step_451_chromophore_27 ZINDO
 -----------------------------
 Symbolic Z-matrix:
 Charge =  0 Multiplicity = 1

                         Standard orientation:
 ---------------------------------------------------------------------
 Center     Atomic      Atomic             Coordinates (Angstroms)
 Number     Number       Type             X           Y           Z
 ---------------------------------------------------------------------
      1         12           0       -4.647655    0.955853   -0.161681
      2          6           0       -4.005652   -2.611650    0.068174
      3          6           0       -1.228211    1.440864   -0.223154
      4          6           0       -5.378142    4.120027   -0.087208
      5          6           0       -8.050079    0.057575    0.192983
      6          7           0       -2.825537   -0.517890   -0.172561
      7          6           0       -2.772030   -1.878438   -0.050846
      8          6           0       -1.361683   -2.361237   -0.115647
      9          6           0       -0.540329   -1.004375    0.152946
     10          6           0       -1.592085    0.046892   -0.091426
     11          6           0        0.239058   -0.782282    1.477689
     12          6           0       -0.912622   -3.135708   -1.412484
     13          6           0        0.113127   -4.247616   -1.208711
     14          6           0        1.575096   -3.863693   -0.766670
     15          8           0        1.893515   -3.290182    0.220625
     16          8           0        2.524432   -4.229743   -1.702334
     17          7           0       -3.457568    2.535556   -0.182667
     18          6           0       -2.076111    2.556658   -0.208596
     19          6           0       -1.656096    3.968407   -0.043598
     20          6           0       -2.860692    4.800622   -0.047685
     21          6           0       -3.948598    3.842121   -0.038047
     22          6           0       -0.163889    4.456618    0.081529
     23          6           0       -3.026319    6.315748   -0.007623
     24          8           0       -4.128824    6.731278    0.240835
     25          6           0       -1.805236    7.336388   -0.225211
     26          7           0       -6.431775    1.908589   -0.048872
     27          6           0       -6.431395    3.269622    0.046415
     28          6           0       -7.880665    3.751520   -0.036202
     29          6           0       -8.747480    2.501482   -0.008106
     30          6           0       -7.634850    1.381606    0.018982
     31          6           0       -8.251838    4.790584    1.031179
     32          6           0       -9.679626    2.286831   -1.193551
     33          6           0      -11.076430    1.750099   -0.829035
     34          7           0       -5.839139   -0.900093    0.059926
     35          6           0       -7.202984   -1.050177    0.174220
     36          6           0       -7.527621   -2.485023    0.353443
     37          6           0       -6.300548   -3.141328    0.257777
     38          6           0       -5.298803   -2.122057    0.124728
     39          6           0       -8.859980   -3.116998    0.324448
     40          6           0       -5.622737   -4.492026    0.459583
     41          8           0       -6.086029   -5.609296    0.700500
     42          6           0       -4.133777   -4.144725    0.331562
     43          6           0       -3.523392   -4.599592    1.561446
     44          8           0       -3.700832   -4.066803    2.648276
     45          8           0       -2.721398   -5.707910    1.272241
     46          6           0       -1.801689   -6.180184    2.293356
     47          6           0        3.937164   -3.931313   -1.478328
     48          6           0        4.480969   -2.575639   -1.968608
     49          6           0        5.752804   -2.194057   -2.077985
     50          6           0        6.906657   -3.101933   -1.640769
     51          6           0        6.095163   -0.772583   -2.666179
     52          6           0        6.757806   -0.800889   -4.054440
     53          6           0        8.172018   -0.373736   -3.941259
     54          6           0        8.321521    1.118655   -4.172870
     55          6           0        8.675361    1.279951   -5.667136
     56          6           0        9.419588    1.718085   -3.169879
     57          6           0        8.860034    1.960436   -1.788438
     58          6           0        9.943302    2.217314   -0.712155
     59          6           0        9.644603    1.440197    0.605040
     60          6           0        9.627950   -0.087981    0.396551
     61          6           0       10.610336    1.822538    1.725917
     62          6           0        9.807687    2.182637    2.996191
     63          6           0        9.373004    0.926694    3.904810
     64          6           0        9.753462    1.216331    5.397015
     65          6           0       11.267444    1.010540    5.674699
     66          6           0        8.812604    0.446137    6.414688
     67          1           0       -0.168574    1.691204   -0.142204
     68          1           0       -5.618418    5.179726    0.019358
     69          1           0       -9.139540   -0.024780    0.178114
     70          1           0       -1.176413   -3.000009    0.748073
     71          1           0        0.222734   -0.929612   -0.621779
     72          1           0       -0.496900   -0.355208    2.158673
     73          1           0        1.071358   -0.114304    1.255316
     74          1           0        0.509330   -1.777689    1.827909
     75          1           0       -0.379437   -2.384223   -1.995305
     76          1           0       -1.788803   -3.480001   -1.961708
     77          1           0        0.114232   -4.667731   -2.214452
     78          1           0       -0.275571   -4.985305   -0.506830
     79          1           0        0.104225    4.866815   -0.891576
     80          1           0        0.583696    3.752568    0.447180
     81          1           0       -0.192686    5.255959    0.823288
     82          1           0       -1.548108    7.795482    0.729556
     83          1           0       -1.997503    8.104817   -0.974240
     84          1           0       -0.892286    6.847968   -0.565843
     85          1           0       -8.027006    4.310973   -0.960130
     86          1           0       -9.299283    2.512253    0.931374
     87          1           0       -7.388003    5.372452    1.351982
     88          1           0       -8.648114    4.218577    1.869907
     89          1           0       -9.007353    5.508896    0.712631
     90          1           0       -9.238048    1.584299   -1.899562
     91          1           0       -9.664232    3.223239   -1.750977
     92          1           0      -11.202392    1.433081    0.207068
     93          1           0      -11.268865    0.914451   -1.501576
     94          1           0      -11.773590    2.421357   -1.331013
     95          1           0       -9.534038   -2.724477   -0.436522
     96          1           0       -9.263231   -3.073436    1.335779
     97          1           0       -8.881460   -4.138548   -0.055964
     98          1           0       -3.583738   -4.590229   -0.497238
     99          1           0       -2.095925   -7.029183    2.911500
    100          1           0       -1.457953   -5.351069    2.910659
    101          1           0       -0.889349   -6.571329    1.843512
    102          1           0        4.502470   -4.643672   -2.079136
    103          1           0        4.162461   -3.985976   -0.412952
    104          1           0        3.727931   -1.852363   -2.282657
    105          1           0        6.529140   -4.059271   -1.281405
    106          1           0        7.543305   -2.585758   -0.922470
    107          1           0        7.461589   -3.431595   -2.519595
    108          1           0        6.674563   -0.302268   -1.872193
    109          1           0        5.217297   -0.160834   -2.873788
    110          1           0        6.190162   -0.183606   -4.750292
    111          1           0        6.751062   -1.743503   -4.602759
    112          1           0        8.784103   -0.930661   -4.649956
    113          1           0        8.498773   -0.684183   -2.949027
    114          1           0        7.412237    1.664385   -3.919055
    115          1           0        9.695014    1.641398   -5.797909
    116          1           0        8.034559    2.067868   -6.064533
    117          1           0        8.473498    0.428546   -6.316878
    118          1           0        9.461040    2.768701   -3.456817
    119          1           0       10.422770    1.302034   -3.073586
    120          1           0        8.182400    1.119551   -1.641906
    121          1           0        8.176139    2.803593   -1.886227
    122          1           0        9.762065    3.260752   -0.452985
    123          1           0       10.998529    2.243732   -0.981762
    124          1           0        8.616705    1.680998    0.878905
    125          1           0       10.033091   -0.199866   -0.610249
    126          1           0        8.581178   -0.389898    0.429004
    127          1           0       10.199756   -0.674790    1.115403
    128          1           0       11.270483    2.610001    1.360720
    129          1           0       11.316922    1.009456    1.895188
    130          1           0        8.962291    2.836779    2.783060
    131          1           0       10.525281    2.753901    3.585331
    132          1           0        9.969931    0.086131    3.550977
    133          1           0        8.308412    0.721559    3.791165
    134          1           0        9.598523    2.284006    5.556486
    135          1           0       11.397887    0.322854    6.510540
    136          1           0       11.848506    1.905665    5.897687
    137          1           0       11.664757    0.591911    4.750310
    138          1           0        7.931717    0.097602    5.875849
    139          1           0        8.593587    1.175928    7.193014
    140          1           0        9.443183   -0.365812    6.776644
 ---------------------------------------------------------------------

 SCF Done:  E(RZINDO/S) =  -474.206856166     A.U. after   20 cycles

 Excitation energies and oscillator strengths:

 Excited State   1:      Singlet-A      1.2952 eV  957.28 nm  f=0.5777  <S**2>=0.000
     175 ->178        -0.17931
     176 ->177         0.66479
 This state for optimization and/or second-order correction.
 Total Energy, E(CIS/TDA) =  -474.159259487
 Copying the excited state density for this state as the 1-particle RhoCI density.

 Excited State   2:      Singlet-A      1.9424 eV  638.29 nm  f=0.0076  <S**2>=0.000
     175 ->177         0.49823
     176 ->178         0.46310
     176 ->179        -0.12383

 Excited State   3:      Singlet-A      2.8897 eV  429.06 nm  f=0.5460  <S**2>=0.000
     175 ->177        -0.30999
     176 ->178         0.44431
     176 ->179         0.39347
     176 ->180         0.10716

 Excited State   4:      Singlet-A      3.0393 eV  407.93 nm  f=0.2236  <S**2>=0.000
     167 ->177         0.18040
     167 ->178        -0.12563
     167 ->179        -0.23699
     167 ->185        -0.11101
     168 ->177         0.19724
     168 ->178        -0.12465
     168 ->179        -0.21063
     170 ->180        -0.13148
     175 ->177        -0.18490
     176 ->178         0.13905
     176 ->179        -0.26108
     176 ->180        -0.14673

 Excited State   5:      Singlet-A      3.0505 eV  406.44 nm  f=0.2031  <S**2>=0.000
     167 ->177         0.16616
     167 ->178        -0.11135
     167 ->179        -0.19798
     168 ->177         0.15712
     168 ->178        -0.10496
     168 ->179        -0.20098
     169 ->180         0.10935
     170 ->179         0.11065
     170 ->180         0.18869
     175 ->177         0.17810
     176 ->178        -0.14042
     176 ->179         0.22505
     176 ->180         0.16278

 The electronic state is 1-A.
 Alpha  occ. eigenvalues --   -1.84059  -1.81561  -1.77937  -1.72914  -1.71971
 Alpha  occ. eigenvalues --   -1.69669  -1.67733  -1.62095  -1.57830  -1.57719
 Alpha  occ. eigenvalues --   -1.54498  -1.51459  -1.48923  -1.48649  -1.47637
 Alpha  occ. eigenvalues --   -1.44433  -1.43514  -1.41018  -1.40337  -1.37138
 Alpha  occ. eigenvalues --   -1.35639  -1.33965  -1.32605  -1.30422  -1.28482
 Alpha  occ. eigenvalues --   -1.26815  -1.24696  -1.19745  -1.19341  -1.17771
 Alpha  occ. eigenvalues --   -1.17469  -1.16081  -1.15527  -1.14815  -1.13890
 Alpha  occ. eigenvalues --   -1.12124  -1.10910  -1.08885  -1.04932  -1.04026
 Alpha  occ. eigenvalues --   -1.02019  -1.00810  -0.98118  -0.97317  -0.97043
 Alpha  occ. eigenvalues --   -0.96110  -0.94996  -0.93640  -0.92066  -0.91619
 Alpha  occ. eigenvalues --   -0.91353  -0.90482  -0.88701  -0.88034  -0.86167
 Alpha  occ. eigenvalues --   -0.85867  -0.83980  -0.83164  -0.82403  -0.80436
 Alpha  occ. eigenvalues --   -0.79384  -0.79210  -0.77815  -0.76870  -0.76412
 Alpha  occ. eigenvalues --   -0.76014  -0.75082  -0.74564  -0.74140  -0.73353
 Alpha  occ. eigenvalues --   -0.72738  -0.71969  -0.71688  -0.71613  -0.70510
 Alpha  occ. eigenvalues --   -0.70427  -0.69537  -0.68445  -0.68276  -0.68073
 Alpha  occ. eigenvalues --   -0.67458  -0.66685  -0.66186  -0.66068  -0.65596
 Alpha  occ. eigenvalues --   -0.65298  -0.65114  -0.64586  -0.63818  -0.63544
 Alpha  occ. eigenvalues --   -0.63041  -0.62732  -0.62166  -0.62024  -0.61342
 Alpha  occ. eigenvalues --   -0.61240  -0.60939  -0.60786  -0.60310  -0.59627
 Alpha  occ. eigenvalues --   -0.59386  -0.58925  -0.58701  -0.58264  -0.57860
 Alpha  occ. eigenvalues --   -0.57526  -0.57415  -0.57158  -0.56971  -0.56786
 Alpha  occ. eigenvalues --   -0.56454  -0.55812  -0.55318  -0.54932  -0.54730
 Alpha  occ. eigenvalues --   -0.54351  -0.54032  -0.53560  -0.52989  -0.52609
 Alpha  occ. eigenvalues --   -0.52511  -0.52301  -0.51857  -0.51585  -0.51414
 Alpha  occ. eigenvalues --   -0.50900  -0.50442  -0.50401  -0.50231  -0.49923
 Alpha  occ. eigenvalues --   -0.49825  -0.49672  -0.49439  -0.49062  -0.48884
 Alpha  occ. eigenvalues --   -0.48689  -0.48508  -0.48405  -0.48279  -0.47794
 Alpha  occ. eigenvalues --   -0.47720  -0.47084  -0.46868  -0.46543  -0.46116
 Alpha  occ. eigenvalues --   -0.45836  -0.45815  -0.45576  -0.45271  -0.45166
 Alpha  occ. eigenvalues --   -0.44795  -0.44670  -0.44481  -0.44186  -0.43784
 Alpha  occ. eigenvalues --   -0.43424  -0.43254  -0.42279  -0.42008  -0.41962
 Alpha  occ. eigenvalues --   -0.41404  -0.41201  -0.40938  -0.39464  -0.39025
 Alpha  occ. eigenvalues --   -0.38400  -0.36771  -0.36218  -0.35010  -0.34145
 Alpha  occ. eigenvalues --   -0.33770  -0.32789  -0.32077  -0.31354  -0.26540
 Alpha  occ. eigenvalues --   -0.21179
 Alpha virt. eigenvalues --   -0.07794  -0.02115  -0.00554   0.01550   0.02017
 Alpha virt. eigenvalues --    0.02529   0.03320   0.03591   0.04871   0.05207
 Alpha virt. eigenvalues --    0.06425   0.06778   0.07151   0.07499   0.07949

 Mulliken charges:
               1
     1  Mg   0.427289
     2  C   -0.061546
     3  C   -0.070668
     4  C   -0.060857
     5  C   -0.088761
     6  N   -0.277276
     7  C    0.148456
     8  C    0.006937
     9  C   -0.004863
    10  C    0.105885
    11  C   -0.046919
    12  C   -0.015409
    13  C    0.008812
    14  C    0.470751
    15  O   -0.496914
    16  O   -0.284911
    17  N   -0.319918
    18  C    0.081247
    19  C   -0.028568
    20  C   -0.056728
    21  C    0.115462
    22  C   -0.047849
    23  C    0.326297
    24  O   -0.510847
    25  C   -0.036297
    26  N   -0.255795
    27  C    0.104487
    28  C    0.001883
    29  C   -0.003693
    30  C    0.166407
    31  C   -0.056292
    32  C   -0.027784
    33  C   -0.067079
    34  N   -0.336607
    35  C    0.132380
    36  C    0.050846
    37  C   -0.050931
    38  C    0.135697
    39  C   -0.036997
    40  C    0.348508
    41  O   -0.498157
    42  C    0.057217
    43  C    0.501256
    44  O   -0.516424
    45  O   -0.275173
    46  C    0.072914
    47  C    0.107108
    48  C   -0.079245
    49  C   -0.019890
    50  C   -0.044975
    51  C   -0.020374
    52  C   -0.025805
    53  C   -0.025132
    54  C   -0.007182
    55  C   -0.056843
    56  C   -0.053577
    57  C   -0.037956
    58  C   -0.035803
    59  C   -0.013926
    60  C   -0.063038
    61  C   -0.032803
    62  C   -0.040908
    63  C   -0.035954
    64  C   -0.021696
    65  C   -0.059427
    66  C   -0.065590
    67  H    0.029420
    68  H    0.049499
    69  H    0.029522
    70  H    0.031593
    71  H    0.021450
    72  H    0.025107
    73  H    0.032745
    74  H    0.032200
    75  H    0.026688
    76  H    0.029320
    77  H    0.029149
    78  H    0.044539
    79  H    0.030561
    80  H    0.029470
    81  H    0.020910
    82  H    0.040376
    83  H    0.039731
    84  H    0.022238
    85  H    0.027877
    86  H    0.033839
    87  H    0.028865
    88  H    0.014921
    89  H    0.017293
    90  H    0.017664
    91  H    0.021505
    92  H    0.040819
    93  H    0.009928
    94  H    0.026643
    95  H    0.025496
    96  H    0.041657
    97  H    0.029776
    98  H    0.047043
    99  H    0.049019
   100  H    0.043750
   101  H    0.022525
   102  H    0.039854
   103  H    0.056932
   104  H    0.028498
   105  H    0.021097
   106  H    0.035145
   107  H    0.025151
   108  H    0.032430
   109  H    0.019540
   110  H    0.013713
   111  H    0.014038
   112  H    0.011593
   113  H    0.012179
   114  H    0.028283
   115  H    0.021547
   116  H    0.006296
   117  H    0.024371
   118  H    0.006614
   119  H    0.035624
   120  H    0.018580
   121  H    0.013740
   122  H    0.002132
   123  H    0.034623
   124  H    0.018914
   125  H    0.018505
   126  H    0.015677
   127  H    0.023857
   128  H    0.013111
   129  H    0.017392
   130  H    0.026298
   131  H    0.009675
   132  H    0.022959
   133  H    0.023762
   134  H    0.014223
   135  H    0.019283
   136  H    0.020650
   137  H    0.017951
   138  H    0.026847
   139  H    0.024188
   140  H    0.025132
 Sum of Mulliken charges =  -0.00000

 Dipole moment (field-independent basis, Debye):
    X=              4.6255    Y=             -0.8168    Z=             -5.2052  Tot=              7.0111
 N-N= 4.384230691046D+03 E-N= 0.000000000000D+00  KE=-9.443089904911D+03
 Leave Link  601 at Wed May  4 23:14:05 2022, MaxMem=  6710886400 cpu:               3.7 elap:               0.2
 (Enter /sw/apps/gaussian-16.0/g16/l9999.exe)
 1\1\GINC-BP1-COMPUTE183\SP\RZINDO CIS\STO-3G\C55H74Mg1N4O6\OF15641\04-
 May-2022\0\\#p ZINDO=(nstates=5)\\step_451_chromophore_27 ZINDO\\0,1\M
 g,0,-6.029,24.614,27.109\C,0,-4.398,26.639,29.645\C,0,-7.171,22.573,29
 .651\C,0,-7.196,22.757,24.713\C,0,-4.455,26.782,24.8\N,0,-5.843,24.714
 ,29.443\C,0,-5.143,25.566,30.251\C,0,-5.342,25.217,31.688\C,0,-5.929,2
 3.723,31.582\C,0,-6.341,23.655,30.134\C,0,-5.092,22.494,32.03\C,0,-6.2
 21,26.19,32.562\C,0,-5.81,26.334,34.025\C,0,-5.976,25.099,34.988\O,0,-

 Normal termination of Gaussian 16 at Wed May  4 23:14:05 2022.
