 Gaussian 16, Revision A.03,
 Gaussian 16:  ES64L-G16RevA.03 25-Dec-2016

 ------------------------------
 #p blyp/Def2SVP td=(nstates=5)
 ------------------------------

 ---------------------------------------------------
 step_1301_chromophore_15 TDDFT with blyp functional
 ---------------------------------------------------
 Symbolic Z-matrix:
 Charge =  0 Multiplicity = 1

                         Standard orientation:
 ---------------------------------------------------------------------
 Center     Atomic      Atomic             Coordinates (Angstroms)
 Number     Number       Type             X           Y           Z
 ---------------------------------------------------------------------
      1         12           0       -4.652213    1.173227    0.186942
      2          6           0       -4.639834   -2.347489    0.566193
      3          6           0       -1.227580    1.014082   -0.034601
      4          6           0       -4.667254    4.461734   -0.198670
      5          6           0       -8.074979    1.135601    0.503182
      6          7           0       -3.164471   -0.501504    0.110066
      7          6           0       -3.361448   -1.872530    0.231749
      8          6           0       -2.046029   -2.685540    0.025893
      9          6           0       -1.101505   -1.572797    0.585992
     10          6           0       -1.828382   -0.285798    0.131777
     11          6           0       -0.853841   -1.716545    2.124497
     12          6           0       -1.969007   -3.026443   -1.519969
     13          6           0       -0.961922   -4.159368   -1.874386
     14          6           0        0.186241   -4.434769   -0.978823
     15          8           0        0.205532   -5.343719   -0.165135
     16          8           0        1.229521   -3.685277   -1.369760
     17          7           0       -3.159875    2.531646   -0.074467
     18          6           0       -1.811225    2.262344   -0.191816
     19          6           0       -1.150211    3.552904   -0.321279
     20          6           0       -2.129266    4.552295   -0.576967
     21          6           0       -3.401688    3.905652   -0.320517
     22          6           0        0.367591    3.592845   -0.355894
     23          6           0       -1.835970    5.964660   -0.881291
     24          8           0       -2.739159    6.729955   -1.245707
     25          6           0       -0.373353    6.600956   -0.793856
     26          7           0       -6.147813    2.606283    0.318452
     27          6           0       -5.936642    3.937050    0.069212
     28          6           0       -7.232410    4.668735   -0.111959
     29          6           0       -8.320255    3.571574    0.362580
     30          6           0       -7.491721    2.333503    0.264314
     31          6           0       -7.266583    5.940699    0.838891
     32          6           0       -9.651777    3.694599   -0.464848
     33          6           0      -10.950295    3.787362    0.293246
     34          7           0       -6.119047   -0.244629    0.358916
     35          6           0       -7.467912   -0.105113    0.609608
     36          6           0       -8.038077   -1.406812    0.808529
     37          6           0       -6.935574   -2.310285    0.996629
     38          6           0       -5.784570   -1.532060    0.607442
     39          6           0       -9.404803   -1.759540    0.817341
     40          6           0       -6.600901   -3.705383    1.164801
     41          8           0       -7.263689   -4.677024    1.367758
     42          6           0       -5.043073   -3.788767    1.024366
     43          6           0       -4.703876   -4.918366    0.146219
     44          8           0       -5.098223   -5.109066   -0.983156
     45          8           0       -3.720235   -5.716004    0.800230
     46          6           0       -3.369815   -7.006981    0.076878
     47          6           0        2.504321   -4.154850   -0.895151
     48          6           0        3.623342   -3.492913   -1.593183
     49          6           0        4.997521   -3.724011   -1.542988
     50          6           0        5.572747   -4.629728   -0.484129
     51          6           0        5.951222   -2.929894   -2.270167
     52          6           0        6.529148   -1.753975   -1.404334
     53          6           0        6.583683   -0.493476   -2.268298
     54          6           0        7.465073    0.557308   -1.633759
     55          6           0        7.099610    1.974746   -2.059223
     56          6           0        8.957338    0.333581   -1.974689
     57          6           0        9.884375    0.612362   -0.752754
     58          6           0       11.323926    0.922648   -1.133946
     59          6           0       11.792514    2.380140   -0.808284
     60          6           0       12.502244    3.244646   -1.939584
     61          6           0       12.732302    2.377607    0.436771
     62          6           0       11.877249    2.247079    1.748198
     63          6           0       12.167762    0.911503    2.520993
     64          6           0       11.617678    0.837656    3.905577
     65          6           0       12.668717    0.113901    4.838374
     66          6           0       10.255883    0.055685    3.898589
     67          1           0       -0.140344    0.916388   -0.063628
     68          1           0       -4.654317    5.525196   -0.449080
     69          1           0       -9.164274    1.151398    0.427611
     70          1           0       -1.924003   -3.508733    0.730451
     71          1           0       -0.178437   -1.675224    0.015039
     72          1           0       -0.726549   -0.735192    2.582504
     73          1           0        0.163457   -2.095803    2.213877
     74          1           0       -1.614806   -2.264880    2.679515
     75          1           0       -1.706582   -2.163144   -2.131219
     76          1           0       -2.953520   -3.347545   -1.861442
     77          1           0       -0.640427   -3.895159   -2.882033
     78          1           0       -1.633850   -5.017537   -1.902831
     79          1           0        0.835654    4.379304    0.236890
     80          1           0        0.743517    3.589436   -1.378370
     81          1           0        0.810349    2.667114    0.011421
     82          1           0        0.300242    6.127214   -1.507038
     83          1           0       -0.057115    6.432122    0.234785
     84          1           0       -0.394009    7.677749   -0.961594
     85          1           0       -7.482433    5.006598   -1.116940
     86          1           0       -8.596540    3.617183    1.416309
     87          1           0       -8.072701    5.842447    1.565202
     88          1           0       -7.368247    6.898118    0.326799
     89          1           0       -6.337026    6.069466    1.394411
     90          1           0       -9.744511    2.895210   -1.200598
     91          1           0       -9.487911    4.559386   -1.106758
     92          1           0      -11.767826    3.250596   -0.187253
     93          1           0      -11.312273    4.812308    0.373114
     94          1           0      -10.830908    3.405559    1.306904
     95          1           0       -9.864536   -1.834084   -0.167960
     96          1           0       -9.935099   -0.945986    1.312444
     97          1           0       -9.794827   -2.629682    1.346326
     98          1           0       -4.783905   -4.000225    2.061270
     99          1           0       -3.045504   -7.872813    0.654219
    100          1           0       -2.477803   -6.947023   -0.546837
    101          1           0       -4.086862   -7.287384   -0.695942
    102          1           0        2.704939   -5.221088   -0.992304
    103          1           0        2.452107   -4.069483    0.191164
    104          1           0        3.251267   -2.807191   -2.354231
    105          1           0        5.777192   -5.671082   -0.735107
    106          1           0        4.999415   -4.717974    0.438793
    107          1           0        6.580505   -4.277499   -0.265707
    108          1           0        5.508585   -2.592968   -3.208268
    109          1           0        6.831819   -3.512739   -2.539889
    110          1           0        7.491708   -2.095610   -1.023787
    111          1           0        5.901964   -1.488358   -0.553109
    112          1           0        5.621294    0.016181   -2.308942
    113          1           0        6.921790   -0.747866   -3.273352
    114          1           0        7.263630    0.613945   -0.564632
    115          1           0        6.473284    2.350033   -1.250056
    116          1           0        6.537640    1.938751   -2.992672
    117          1           0        7.965591    2.612719   -2.236043
    118          1           0        9.417856    0.959947   -2.737683
    119          1           0        9.029261   -0.689443   -2.343989
    120          1           0        9.947730   -0.378903   -0.302854
    121          1           0        9.469360    1.344654   -0.060212
    122          1           0       11.500658    0.863799   -2.207375
    123          1           0       11.906571    0.172802   -0.598506
    124          1           0       10.886301    2.908864   -0.511419
    125          1           0       11.917400    4.111079   -2.248724
    126          1           0       12.545261    2.683938   -2.872878
    127          1           0       13.492535    3.588293   -1.642205
    128          1           0       13.207019    3.348696    0.577573
    129          1           0       13.547141    1.655891    0.477250
    130          1           0       10.813933    2.162994    1.524770
    131          1           0       11.998055    3.116699    2.393722
    132          1           0       13.256284    0.960863    2.492618
    133          1           0       11.776468    0.085947    1.926238
    134          1           0       11.328448    1.837771    4.224758
    135          1           0       12.339701   -0.804872    5.324137
    136          1           0       12.841532    0.881662    5.592530
    137          1           0       13.634158   -0.161761    4.412569
    138          1           0        9.831564   -0.163754    2.919229
    139          1           0        9.549983    0.682302    4.442270
    140          1           0       10.286759   -0.904005    4.413988
 ---------------------------------------------------------------------

 SCF Done:  E(RB-LYP) =  -3007.36132642     A.U. after   21 cycles

 Excitation energies and oscillator strengths:

 Excited State   1:      Singlet-A      1.7953 eV  690.59 nm  f=0.2749  <S**2>=0.000
     245 -> 248       -0.19412
     246 -> 247        0.68324
     246 <- 247       -0.14345
 This state for optimization and/or second-order correction.
 Total Energy, E(TD-HF/TD-DFT) =  -3007.29534896
 Copying the excited state density for this state as the 1-particle RhoCI density.

 Excited State   2:      Singlet-A      1.8869 eV  657.09 nm  f=0.0035  <S**2>=0.000
     243 -> 247       -0.10518
     244 -> 247        0.68112
     245 -> 247       -0.14107

 Excited State   3:      Singlet-A      1.9169 eV  646.81 nm  f=0.0207  <S**2>=0.000
     243 -> 247        0.57041
     244 -> 247        0.17325
     245 -> 247        0.35880
     246 -> 248        0.10250

 Excited State   4:      Singlet-A      2.0627 eV  601.09 nm  f=0.0437  <S**2>=0.000
     243 -> 247       -0.38938
     245 -> 247        0.50937
     246 -> 248        0.26638

 Excited State   5:      Singlet-A      2.1244 eV  583.62 nm  f=0.0002  <S**2>=0.000
     242 -> 247        0.70675

 The electronic state is 1-A.
 Alpha  occ. eigenvalues --  -46.25931 -18.83512 -18.81699 -18.77416 -18.77187
 Alpha  occ. eigenvalues --  -18.75483 -18.75466 -14.03286 -14.02883 -14.01054
 Alpha  occ. eigenvalues --  -14.00921 -10.04430 -10.03880 -10.00067  -9.99125
 Alpha  occ. eigenvalues --   -9.98337  -9.96775  -9.96723  -9.96530  -9.96497
 Alpha  occ. eigenvalues --   -9.96252  -9.95781  -9.95522  -9.95108  -9.94698
 Alpha  occ. eigenvalues --   -9.94354  -9.94295  -9.94273  -9.94234  -9.94056
 Alpha  occ. eigenvalues --   -9.93775  -9.93737  -9.93624  -9.93418  -9.93226
 Alpha  occ. eigenvalues --   -9.93167  -9.93154  -9.93096  -9.92962  -9.92880
 Alpha  occ. eigenvalues --   -9.92687  -9.92457  -9.92454  -9.92317  -9.92287
 Alpha  occ. eigenvalues --   -9.92267  -9.92237  -9.92189  -9.92061  -9.92040
 Alpha  occ. eigenvalues --   -9.91971  -9.91969  -9.91720  -9.91654  -9.91525
 Alpha  occ. eigenvalues --   -9.91308  -9.91245  -9.91130  -9.91071  -9.91065
 Alpha  occ. eigenvalues --   -9.90972  -9.90902  -9.90832  -9.90828  -9.90795
 Alpha  occ. eigenvalues --   -9.90474  -2.90763  -1.71200  -1.70635  -1.70479
 Alpha  occ. eigenvalues --   -1.00118  -0.96048  -0.92608  -0.91226  -0.90680
 Alpha  occ. eigenvalues --   -0.88880  -0.86501  -0.85882  -0.85293  -0.84297
 Alpha  occ. eigenvalues --   -0.75086  -0.74842  -0.73476  -0.72726  -0.72523
 Alpha  occ. eigenvalues --   -0.72384  -0.71495  -0.71021  -0.70782  -0.70520
 Alpha  occ. eigenvalues --   -0.70127  -0.69993  -0.68438  -0.67518  -0.67386
 Alpha  occ. eigenvalues --   -0.66827  -0.65744  -0.65317  -0.64817  -0.64323
 Alpha  occ. eigenvalues --   -0.63661  -0.62731  -0.62484  -0.62009  -0.61165
 Alpha  occ. eigenvalues --   -0.60698  -0.60071  -0.59768  -0.59700  -0.58893
 Alpha  occ. eigenvalues --   -0.58764  -0.57511  -0.57037  -0.55927  -0.54887
 Alpha  occ. eigenvalues --   -0.54215  -0.53758  -0.53319  -0.52813  -0.51799
 Alpha  occ. eigenvalues --   -0.51589  -0.51201  -0.50957  -0.50676  -0.50240
 Alpha  occ. eigenvalues --   -0.50235  -0.49722  -0.48945  -0.48260  -0.47388
 Alpha  occ. eigenvalues --   -0.46754  -0.46364  -0.45528  -0.45346  -0.44568
 Alpha  occ. eigenvalues --   -0.44197  -0.43702  -0.43383  -0.43138  -0.42894
 Alpha  occ. eigenvalues --   -0.42276  -0.42149  -0.41535  -0.41331  -0.41014
 Alpha  occ. eigenvalues --   -0.40816  -0.40622  -0.40445  -0.40337  -0.39866
 Alpha  occ. eigenvalues --   -0.39809  -0.39566  -0.39472  -0.39374  -0.39083
 Alpha  occ. eigenvalues --   -0.38834  -0.38735  -0.38562  -0.38487  -0.38142
 Alpha  occ. eigenvalues --   -0.37898  -0.37803  -0.37415  -0.37342  -0.37292
 Alpha  occ. eigenvalues --   -0.37120  -0.37086  -0.36931  -0.36725  -0.36593
 Alpha  occ. eigenvalues --   -0.36405  -0.36314  -0.36178  -0.36096  -0.35470
 Alpha  occ. eigenvalues --   -0.35430  -0.35289  -0.35245  -0.34980  -0.34866
 Alpha  occ. eigenvalues --   -0.34629  -0.34325  -0.34145  -0.34056  -0.33895
 Alpha  occ. eigenvalues --   -0.33856  -0.33590  -0.33467  -0.33242  -0.33191
 Alpha  occ. eigenvalues --   -0.32966  -0.32758  -0.32688  -0.32491  -0.32289
 Alpha  occ. eigenvalues --   -0.31860  -0.31793  -0.31664  -0.31449  -0.31406
 Alpha  occ. eigenvalues --   -0.31336  -0.31255  -0.31211  -0.31120  -0.30895
 Alpha  occ. eigenvalues --   -0.30795  -0.30703  -0.30621  -0.30318  -0.30208
 Alpha  occ. eigenvalues --   -0.30089  -0.29859  -0.29826  -0.29206  -0.29158
 Alpha  occ. eigenvalues --   -0.28971  -0.28958  -0.28723  -0.28184  -0.27829
 Alpha  occ. eigenvalues --   -0.27795  -0.27475  -0.27419  -0.26951  -0.26918
 Alpha  occ. eigenvalues --   -0.26589  -0.26255  -0.26013  -0.25855  -0.25797
 Alpha  occ. eigenvalues --   -0.25313  -0.24363  -0.24191  -0.24140  -0.23499
 Alpha  occ. eigenvalues --   -0.23454  -0.22648  -0.22386  -0.21953  -0.20776
 Alpha  occ. eigenvalues --   -0.20271  -0.19372  -0.18636  -0.18423  -0.17442
 Alpha  occ. eigenvalues --   -0.15874
 Alpha virt. eigenvalues --   -0.11566  -0.07321  -0.06269  -0.04654  -0.03927
 Alpha virt. eigenvalues --   -0.03237  -0.02817  -0.02291  -0.00538  -0.00145
 Alpha virt. eigenvalues --    0.01136   0.01265   0.01910   0.02794   0.02908

 Mulliken charges:
               1
     1  Mg   0.692979
     2  C   -0.038933
     3  C   -0.068115
     4  C   -0.041894
     5  C   -0.119638
     6  N   -0.200401
     7  C   -0.086582
     8  C   -0.017830
     9  C    0.004952
    10  C   -0.026311
    11  C    0.161289
    12  C    0.093436
    13  C    0.167492
    14  C    0.083165
    15  O   -0.193130
    16  O   -0.249099
    17  N   -0.344424
    18  C    0.198485
    19  C   -0.143578
    20  C    0.105700
    21  C    0.115901
    22  C    0.157315
    23  C   -0.109460
    24  O   -0.181121
    25  C    0.120142
    26  N   -0.250157
    27  C    0.060469
    28  C    0.014597
    29  C   -0.000121
    30  C    0.061248
    31  C    0.104124
    32  C    0.097001
    33  C    0.069516
    34  N   -0.275197
    35  C    0.172356
    36  C   -0.116055
    37  C    0.026732
    38  C    0.136593
    39  C    0.153219
    40  C   -0.073706
    41  O   -0.093974
    42  C    0.102992
    43  C    0.125838
    44  O   -0.159249
    45  O   -0.305339
    46  C    0.212055
    47  C    0.313151
    48  C   -0.129443
    49  C   -0.112920
    50  C    0.123333
    51  C    0.168617
    52  C    0.058768
    53  C    0.116441
    54  C   -0.095333
    55  C    0.121414
    56  C    0.102996
    57  C    0.032853
    58  C    0.124269
    59  C   -0.079308
    60  C    0.110896
    61  C    0.117133
    62  C    0.014932
    63  C    0.062252
    64  C   -0.050489
    65  C    0.094169
    66  C    0.080692
    67  H   -0.064207
    68  H   -0.050592
    69  H   -0.059440
    70  H   -0.009841
    71  H   -0.048268
    72  H   -0.020167
    73  H   -0.006029
    74  H    0.016216
    75  H   -0.015258
    76  H    0.006433
    77  H   -0.009228
    78  H   -0.000358
    79  H   -0.001273
    80  H    0.006300
    81  H   -0.026395
    82  H    0.011902
    83  H    0.005465
    84  H   -0.007006
    85  H   -0.001902
    86  H   -0.010211
    87  H   -0.012600
    88  H   -0.008562
    89  H   -0.003335
    90  H   -0.023697
    91  H   -0.033412
    92  H   -0.010538
    93  H   -0.008105
    94  H   -0.007665
    95  H    0.001022
    96  H   -0.021226
    97  H   -0.002163
    98  H    0.002838
    99  H    0.012016
   100  H   -0.001655
   101  H    0.017285
   102  H    0.002427
   103  H   -0.009992
   104  H   -0.037545
   105  H   -0.005642
   106  H   -0.007561
   107  H   -0.022896
   108  H   -0.024331
   109  H   -0.035272
   110  H   -0.015275
   111  H   -0.022886
   112  H   -0.039687
   113  H   -0.027185
   114  H   -0.041552
   115  H   -0.021543
   116  H   -0.024545
   117  H   -0.015077
   118  H   -0.034983
   119  H   -0.043221
   120  H   -0.030856
   121  H    0.000245
   122  H   -0.036542
   123  H   -0.027469
   124  H   -0.034796
   125  H   -0.020358
   126  H   -0.029964
   127  H   -0.007483
   128  H   -0.043616
   129  H   -0.025616
   130  H   -0.041961
   131  H   -0.032362
   132  H   -0.031434
   133  H   -0.022690
   134  H   -0.028995
   135  H   -0.015692
   136  H   -0.012284
   137  H   -0.011301
   138  H   -0.013852
   139  H   -0.020460
   140  H   -0.019798
 Sum of Mulliken charges =  -0.00000

 Dipole moment (field-independent basis, Debye):
    X=              4.5236    Y=              2.1926    Z=              0.2332  Tot=              5.0324
 Quadrupole moment (field-independent basis, Debye-Ang):
   XX=           -387.1478   YY=           -436.4163   ZZ=           -406.3532
   XY=            -37.4800   XZ=             -2.8262   YZ=             13.6862

 Normal termination of Gaussian 16 at Wed May  4 03:26:07 2022.
