 Gaussian 16, Revision A.03,
 Gaussian 16:  ES64L-G16RevA.03 25-Dec-2016

 -----------------------------------
 #p cam-b3lyp/Def2SVP td=(nstates=5)
 -----------------------------------

 --------------------------------------------------------
 step_1301_chromophore_15 TDDFT with cam-b3lyp functional
 --------------------------------------------------------
 Symbolic Z-matrix:
 Charge =  0 Multiplicity = 1

                         Standard orientation:
 ---------------------------------------------------------------------
 Center     Atomic      Atomic             Coordinates (Angstroms)
 Number     Number       Type             X           Y           Z
 ---------------------------------------------------------------------
      1         12           0       -4.652213    1.173227    0.186942
      2          6           0       -4.639834   -2.347489    0.566193
      3          6           0       -1.227580    1.014082   -0.034601
      4          6           0       -4.667254    4.461734   -0.198670
      5          6           0       -8.074979    1.135601    0.503182
      6          7           0       -3.164471   -0.501504    0.110066
      7          6           0       -3.361448   -1.872530    0.231749
      8          6           0       -2.046029   -2.685540    0.025893
      9          6           0       -1.101505   -1.572797    0.585992
     10          6           0       -1.828382   -0.285798    0.131777
     11          6           0       -0.853841   -1.716545    2.124497
     12          6           0       -1.969007   -3.026443   -1.519969
     13          6           0       -0.961922   -4.159368   -1.874386
     14          6           0        0.186241   -4.434769   -0.978823
     15          8           0        0.205532   -5.343719   -0.165135
     16          8           0        1.229521   -3.685277   -1.369760
     17          7           0       -3.159875    2.531646   -0.074467
     18          6           0       -1.811225    2.262344   -0.191816
     19          6           0       -1.150211    3.552904   -0.321279
     20          6           0       -2.129266    4.552295   -0.576967
     21          6           0       -3.401688    3.905652   -0.320517
     22          6           0        0.367591    3.592845   -0.355894
     23          6           0       -1.835970    5.964660   -0.881291
     24          8           0       -2.739159    6.729955   -1.245707
     25          6           0       -0.373353    6.600956   -0.793856
     26          7           0       -6.147813    2.606283    0.318452
     27          6           0       -5.936642    3.937050    0.069212
     28          6           0       -7.232410    4.668735   -0.111959
     29          6           0       -8.320255    3.571574    0.362580
     30          6           0       -7.491721    2.333503    0.264314
     31          6           0       -7.266583    5.940699    0.838891
     32          6           0       -9.651777    3.694599   -0.464848
     33          6           0      -10.950295    3.787362    0.293246
     34          7           0       -6.119047   -0.244629    0.358916
     35          6           0       -7.467912   -0.105113    0.609608
     36          6           0       -8.038077   -1.406812    0.808529
     37          6           0       -6.935574   -2.310285    0.996629
     38          6           0       -5.784570   -1.532060    0.607442
     39          6           0       -9.404803   -1.759540    0.817341
     40          6           0       -6.600901   -3.705383    1.164801
     41          8           0       -7.263689   -4.677024    1.367758
     42          6           0       -5.043073   -3.788767    1.024366
     43          6           0       -4.703876   -4.918366    0.146219
     44          8           0       -5.098223   -5.109066   -0.983156
     45          8           0       -3.720235   -5.716004    0.800230
     46          6           0       -3.369815   -7.006981    0.076878
     47          6           0        2.504321   -4.154850   -0.895151
     48          6           0        3.623342   -3.492913   -1.593183
     49          6           0        4.997521   -3.724011   -1.542988
     50          6           0        5.572747   -4.629728   -0.484129
     51          6           0        5.951222   -2.929894   -2.270167
     52          6           0        6.529148   -1.753975   -1.404334
     53          6           0        6.583683   -0.493476   -2.268298
     54          6           0        7.465073    0.557308   -1.633759
     55          6           0        7.099610    1.974746   -2.059223
     56          6           0        8.957338    0.333581   -1.974689
     57          6           0        9.884375    0.612362   -0.752754
     58          6           0       11.323926    0.922648   -1.133946
     59          6           0       11.792514    2.380140   -0.808284
     60          6           0       12.502244    3.244646   -1.939584
     61          6           0       12.732302    2.377607    0.436771
     62          6           0       11.877249    2.247079    1.748198
     63          6           0       12.167762    0.911503    2.520993
     64          6           0       11.617678    0.837656    3.905577
     65          6           0       12.668717    0.113901    4.838374
     66          6           0       10.255883    0.055685    3.898589
     67          1           0       -0.140344    0.916388   -0.063628
     68          1           0       -4.654317    5.525196   -0.449080
     69          1           0       -9.164274    1.151398    0.427611
     70          1           0       -1.924003   -3.508733    0.730451
     71          1           0       -0.178437   -1.675224    0.015039
     72          1           0       -0.726549   -0.735192    2.582504
     73          1           0        0.163457   -2.095803    2.213877
     74          1           0       -1.614806   -2.264880    2.679515
     75          1           0       -1.706582   -2.163144   -2.131219
     76          1           0       -2.953520   -3.347545   -1.861442
     77          1           0       -0.640427   -3.895159   -2.882033
     78          1           0       -1.633850   -5.017537   -1.902831
     79          1           0        0.835654    4.379304    0.236890
     80          1           0        0.743517    3.589436   -1.378370
     81          1           0        0.810349    2.667114    0.011421
     82          1           0        0.300242    6.127214   -1.507038
     83          1           0       -0.057115    6.432122    0.234785
     84          1           0       -0.394009    7.677749   -0.961594
     85          1           0       -7.482433    5.006598   -1.116940
     86          1           0       -8.596540    3.617183    1.416309
     87          1           0       -8.072701    5.842447    1.565202
     88          1           0       -7.368247    6.898118    0.326799
     89          1           0       -6.337026    6.069466    1.394411
     90          1           0       -9.744511    2.895210   -1.200598
     91          1           0       -9.487911    4.559386   -1.106758
     92          1           0      -11.767826    3.250596   -0.187253
     93          1           0      -11.312273    4.812308    0.373114
     94          1           0      -10.830908    3.405559    1.306904
     95          1           0       -9.864536   -1.834084   -0.167960
     96          1           0       -9.935099   -0.945986    1.312444
     97          1           0       -9.794827   -2.629682    1.346326
     98          1           0       -4.783905   -4.000225    2.061270
     99          1           0       -3.045504   -7.872813    0.654219
    100          1           0       -2.477803   -6.947023   -0.546837
    101          1           0       -4.086862   -7.287384   -0.695942
    102          1           0        2.704939   -5.221088   -0.992304
    103          1           0        2.452107   -4.069483    0.191164
    104          1           0        3.251267   -2.807191   -2.354231
    105          1           0        5.777192   -5.671082   -0.735107
    106          1           0        4.999415   -4.717974    0.438793
    107          1           0        6.580505   -4.277499   -0.265707
    108          1           0        5.508585   -2.592968   -3.208268
    109          1           0        6.831819   -3.512739   -2.539889
    110          1           0        7.491708   -2.095610   -1.023787
    111          1           0        5.901964   -1.488358   -0.553109
    112          1           0        5.621294    0.016181   -2.308942
    113          1           0        6.921790   -0.747866   -3.273352
    114          1           0        7.263630    0.613945   -0.564632
    115          1           0        6.473284    2.350033   -1.250056
    116          1           0        6.537640    1.938751   -2.992672
    117          1           0        7.965591    2.612719   -2.236043
    118          1           0        9.417856    0.959947   -2.737683
    119          1           0        9.029261   -0.689443   -2.343989
    120          1           0        9.947730   -0.378903   -0.302854
    121          1           0        9.469360    1.344654   -0.060212
    122          1           0       11.500658    0.863799   -2.207375
    123          1           0       11.906571    0.172802   -0.598506
    124          1           0       10.886301    2.908864   -0.511419
    125          1           0       11.917400    4.111079   -2.248724
    126          1           0       12.545261    2.683938   -2.872878
    127          1           0       13.492535    3.588293   -1.642205
    128          1           0       13.207019    3.348696    0.577573
    129          1           0       13.547141    1.655891    0.477250
    130          1           0       10.813933    2.162994    1.524770
    131          1           0       11.998055    3.116699    2.393722
    132          1           0       13.256284    0.960863    2.492618
    133          1           0       11.776468    0.085947    1.926238
    134          1           0       11.328448    1.837771    4.224758
    135          1           0       12.339701   -0.804872    5.324137
    136          1           0       12.841532    0.881662    5.592530
    137          1           0       13.634158   -0.161761    4.412569
    138          1           0        9.831564   -0.163754    2.919229
    139          1           0        9.549983    0.682302    4.442270
    140          1           0       10.286759   -0.904005    4.413988
 ---------------------------------------------------------------------

 SCF Done:  E(RCAM-B3LYP) =  -3007.15633829     A.U. after   19 cycles

 Excitation energies and oscillator strengths:

 Excited State   1:      Singlet-A      1.7017 eV  728.59 nm  f=0.3513  <S**2>=0.000
     245 -> 248        0.18419
     246 -> 247        0.68402
     245 <- 248        0.10846
 This state for optimization and/or second-order correction.
 Total Energy, E(TD-HF/TD-DFT) =  -3007.09380186
 Copying the excited state density for this state as the 1-particle RhoCI density.

 Excited State   2:      Singlet-A      2.2443 eV  552.43 nm  f=0.0759  <S**2>=0.000
     245 -> 247        0.61877
     246 -> 248       -0.32884

 Excited State   3:      Singlet-A      3.3721 eV  367.68 nm  f=0.0959  <S**2>=0.000
     241 -> 247       -0.17603
     242 -> 247        0.31969
     243 -> 247        0.53663
     245 -> 247       -0.11477
     246 -> 248       -0.21858

 Excited State   4:      Singlet-A      3.4201 eV  362.52 nm  f=0.3586  <S**2>=0.000
     241 -> 247        0.18976
     242 -> 247       -0.13374
     243 -> 247        0.36832
     245 -> 247        0.22049
     246 -> 248        0.49439

 Excited State   5:      Singlet-A      3.5231 eV  351.92 nm  f=0.0066  <S**2>=0.000
     240 -> 247        0.51834
     240 -> 248       -0.16783
     240 -> 249        0.35970
     240 -> 250        0.17677
     240 -> 258       -0.11748

 The electronic state is 1-A.
 Alpha  occ. eigenvalues --  -46.87343 -19.26425 -19.24540 -19.20397 -19.20255
 Alpha  occ. eigenvalues --  -19.18947 -19.18390 -14.42228 -14.41743 -14.39587
 Alpha  occ. eigenvalues --  -14.39152 -10.39645 -10.39339 -10.35574 -10.34113
 Alpha  occ. eigenvalues --  -10.32347 -10.31531 -10.31172 -10.30996 -10.30866
 Alpha  occ. eigenvalues --  -10.30743 -10.30441 -10.29528 -10.29429 -10.28863
 Alpha  occ. eigenvalues --  -10.28733 -10.28383 -10.28338 -10.28271 -10.28195
 Alpha  occ. eigenvalues --  -10.27827 -10.27799 -10.27657 -10.27654 -10.27562
 Alpha  occ. eigenvalues --  -10.27407 -10.27316 -10.27217 -10.26792 -10.26678
 Alpha  occ. eigenvalues --  -10.26612 -10.26362 -10.26319 -10.26177 -10.26161
 Alpha  occ. eigenvalues --  -10.26146 -10.26133 -10.26000 -10.25930 -10.25807
 Alpha  occ. eigenvalues --  -10.25777 -10.25499 -10.25403 -10.25377 -10.25017
 Alpha  occ. eigenvalues --  -10.24967 -10.24865 -10.24839 -10.24808 -10.24751
 Alpha  occ. eigenvalues --  -10.24600 -10.24579 -10.24544 -10.24540 -10.24461
 Alpha  occ. eigenvalues --  -10.24157  -3.16092  -1.91004  -1.90542  -1.90412
 Alpha  occ. eigenvalues --   -1.18609  -1.14540  -1.10820  -1.09310  -1.09151
 Alpha  occ. eigenvalues --   -1.06634  -1.04146  -1.03559  -1.02724  -1.01947
 Alpha  occ. eigenvalues --   -0.92033  -0.91821  -0.90323  -0.89474  -0.89205
 Alpha  occ. eigenvalues --   -0.89145  -0.88094  -0.87628  -0.87225  -0.87122
 Alpha  occ. eigenvalues --   -0.86909  -0.86346  -0.84719  -0.83657  -0.83486
 Alpha  occ. eigenvalues --   -0.82928  -0.81745  -0.81218  -0.80725  -0.80228
 Alpha  occ. eigenvalues --   -0.79826  -0.78602  -0.78053  -0.77497  -0.76601
 Alpha  occ. eigenvalues --   -0.76011  -0.75437  -0.75048  -0.75012  -0.74106
 Alpha  occ. eigenvalues --   -0.73865  -0.72410  -0.71969  -0.70762  -0.69428
 Alpha  occ. eigenvalues --   -0.68884  -0.68294  -0.67983  -0.67245  -0.65841
 Alpha  occ. eigenvalues --   -0.65631  -0.65486  -0.65020  -0.64787  -0.64330
 Alpha  occ. eigenvalues --   -0.64080  -0.63773  -0.62885  -0.61846  -0.60912
 Alpha  occ. eigenvalues --   -0.60514  -0.60025  -0.58843  -0.58586  -0.57974
 Alpha  occ. eigenvalues --   -0.57525  -0.56976  -0.56572  -0.56335  -0.55978
 Alpha  occ. eigenvalues --   -0.55491  -0.55209  -0.54755  -0.54151  -0.53965
 Alpha  occ. eigenvalues --   -0.53822  -0.53358  -0.53116  -0.53001  -0.52676
 Alpha  occ. eigenvalues --   -0.52516  -0.52472  -0.52356  -0.52119  -0.51796
 Alpha  occ. eigenvalues --   -0.51537  -0.51253  -0.50957  -0.50844  -0.50526
 Alpha  occ. eigenvalues --   -0.50403  -0.50078  -0.50049  -0.49847  -0.49610
 Alpha  occ. eigenvalues --   -0.49590  -0.49358  -0.49193  -0.48981  -0.48876
 Alpha  occ. eigenvalues --   -0.48783  -0.48439  -0.48434  -0.48175  -0.47815
 Alpha  occ. eigenvalues --   -0.47585  -0.47393  -0.47280  -0.47040  -0.46735
 Alpha  occ. eigenvalues --   -0.46653  -0.46209  -0.46041  -0.45885  -0.45852
 Alpha  occ. eigenvalues --   -0.45646  -0.45398  -0.45346  -0.45108  -0.44850
 Alpha  occ. eigenvalues --   -0.44704  -0.44518  -0.44356  -0.44199  -0.43849
 Alpha  occ. eigenvalues --   -0.43566  -0.43303  -0.43213  -0.43000  -0.42826
 Alpha  occ. eigenvalues --   -0.42802  -0.42718  -0.42617  -0.42576  -0.42454
 Alpha  occ. eigenvalues --   -0.42156  -0.42043  -0.41950  -0.41932  -0.41671
 Alpha  occ. eigenvalues --   -0.41553  -0.41433  -0.40996  -0.40418  -0.40270
 Alpha  occ. eigenvalues --   -0.40090  -0.39944  -0.39763  -0.39128  -0.39057
 Alpha  occ. eigenvalues --   -0.38690  -0.38439  -0.38309  -0.37801  -0.37714
 Alpha  occ. eigenvalues --   -0.37516  -0.37334  -0.37010  -0.36736  -0.36628
 Alpha  occ. eigenvalues --   -0.35918  -0.35802  -0.34735  -0.34662  -0.34631
 Alpha  occ. eigenvalues --   -0.34415  -0.33935  -0.33326  -0.31539  -0.30939
 Alpha  occ. eigenvalues --   -0.30430  -0.30158  -0.29073  -0.28771  -0.24273
 Alpha  occ. eigenvalues --   -0.21132
 Alpha virt. eigenvalues --   -0.08542  -0.02248   0.00165   0.02354   0.03518
 Alpha virt. eigenvalues --    0.04055   0.04556   0.04791   0.04998   0.06098
 Alpha virt. eigenvalues --    0.07977   0.08131   0.08519   0.09069   0.09214

 Mulliken charges:
               1
     1  Mg   0.829601
     2  C   -0.061007
     3  C   -0.090101
     4  C   -0.064541
     5  C   -0.116210
     6  N   -0.263933
     7  C   -0.050905
     8  C   -0.073162
     9  C   -0.049389
    10  C   -0.003795
    11  C    0.102598
    12  C    0.051845
    13  C    0.101220
    14  C    0.154050
    15  O   -0.232412
    16  O   -0.312105
    17  N   -0.434336
    18  C    0.210224
    19  C   -0.144927
    20  C    0.034689
    21  C    0.146461
    22  C    0.096475
    23  C   -0.036709
    24  O   -0.220560
    25  C    0.049656
    26  N   -0.324445
    27  C    0.083079
    28  C   -0.045276
    29  C   -0.056877
    30  C    0.081838
    31  C    0.049885
    32  C    0.037891
    33  C    0.007893
    34  N   -0.362392
    35  C    0.166054
    36  C   -0.113911
    37  C   -0.045874
    38  C    0.164896
    39  C    0.090839
    40  C    0.027645
    41  O   -0.135700
    42  C    0.024905
    43  C    0.212069
    44  O   -0.196039
    45  O   -0.371156
    46  C    0.175798
    47  C    0.278424
    48  C   -0.143826
    49  C   -0.136658
    50  C    0.057769
    51  C    0.101125
    52  C    0.010399
    53  C    0.057505
    54  C   -0.150944
    55  C    0.064012
    56  C    0.055665
    57  C   -0.019517
    58  C    0.071863
    59  C   -0.136291
    60  C    0.054217
    61  C    0.057458
    62  C   -0.029256
    63  C    0.014608
    64  C   -0.114099
    65  C    0.035225
    66  C    0.026580
    67  H   -0.028720
    68  H   -0.010076
    69  H   -0.025882
    70  H    0.027785
    71  H   -0.011780
    72  H    0.006644
    73  H    0.018835
    74  H    0.040342
    75  H    0.014286
    76  H    0.038015
    77  H    0.025455
    78  H    0.028443
    79  H    0.026431
    80  H    0.035182
    81  H    0.004325
    82  H    0.038656
    83  H    0.031401
    84  H    0.028971
    85  H    0.032140
    86  H    0.022960
    87  H    0.011949
    88  H    0.016379
    89  H    0.021857
    90  H    0.006863
    91  H   -0.004374
    92  H    0.014568
    93  H    0.015209
    94  H    0.014042
    95  H    0.027398
    96  H    0.001858
    97  H    0.026818
    98  H    0.046038
    99  H    0.036180
   100  H    0.017176
   101  H    0.043093
   102  H    0.030573
   103  H    0.018444
   104  H   -0.002826
   105  H    0.021590
   106  H    0.017285
   107  H    0.002365
   108  H    0.006793
   109  H   -0.003290
   110  H    0.009209
   111  H    0.005857
   112  H   -0.009539
   113  H    0.000928
   114  H   -0.009143
   115  H    0.001979
   116  H    0.000356
   117  H    0.008521
   118  H   -0.007536
   119  H   -0.014862
   120  H   -0.003675
   121  H    0.021534
   122  H   -0.008255
   123  H    0.001014
   124  H   -0.002350
   125  H    0.003963
   126  H   -0.006113
   127  H    0.016503
   128  H   -0.011815
   129  H    0.002814
   130  H   -0.018805
   131  H   -0.003724
   132  H   -0.004188
   133  H    0.000167
   134  H    0.002771
   135  H    0.008011
   136  H    0.011101
   137  H    0.013003
   138  H    0.007252
   139  H    0.003260
   140  H    0.004252
 Sum of Mulliken charges =  -0.00000

 Dipole moment (field-independent basis, Debye):
    X=              5.5059    Y=              2.9634    Z=              0.0963  Tot=              6.2534
 Quadrupole moment (field-independent basis, Debye-Ang):
   XX=           -391.0355   YY=           -431.7816   ZZ=           -406.4578
   XY=            -39.0420   XZ=             -2.6486   YZ=             13.7136

 Normal termination of Gaussian 16 at Wed May  4 02:25:04 2022.
