 Gaussian 16, Revision A.03,
 Gaussian 16:  ES64L-G16RevA.03 25-Dec-2016

 ---------------------------------
 #p PBE1PBE/Def2SVP td=(nstates=5)
 ---------------------------------

 ------------------------------------------------------
 step_1301_chromophore_15 TDDFT with PBE1PBE functional
 ------------------------------------------------------
 Symbolic Z-matrix:
 Charge =  0 Multiplicity = 1

                         Standard orientation:
 ---------------------------------------------------------------------
 Center     Atomic      Atomic             Coordinates (Angstroms)
 Number     Number       Type             X           Y           Z
 ---------------------------------------------------------------------
      1         12           0       -4.652213    1.173227    0.186942
      2          6           0       -4.639834   -2.347489    0.566193
      3          6           0       -1.227580    1.014082   -0.034601
      4          6           0       -4.667254    4.461734   -0.198670
      5          6           0       -8.074979    1.135601    0.503182
      6          7           0       -3.164471   -0.501504    0.110066
      7          6           0       -3.361448   -1.872530    0.231749
      8          6           0       -2.046029   -2.685540    0.025893
      9          6           0       -1.101505   -1.572797    0.585992
     10          6           0       -1.828382   -0.285798    0.131777
     11          6           0       -0.853841   -1.716545    2.124497
     12          6           0       -1.969007   -3.026443   -1.519969
     13          6           0       -0.961922   -4.159368   -1.874386
     14          6           0        0.186241   -4.434769   -0.978823
     15          8           0        0.205532   -5.343719   -0.165135
     16          8           0        1.229521   -3.685277   -1.369760
     17          7           0       -3.159875    2.531646   -0.074467
     18          6           0       -1.811225    2.262344   -0.191816
     19          6           0       -1.150211    3.552904   -0.321279
     20          6           0       -2.129266    4.552295   -0.576967
     21          6           0       -3.401688    3.905652   -0.320517
     22          6           0        0.367591    3.592845   -0.355894
     23          6           0       -1.835970    5.964660   -0.881291
     24          8           0       -2.739159    6.729955   -1.245707
     25          6           0       -0.373353    6.600956   -0.793856
     26          7           0       -6.147813    2.606283    0.318452
     27          6           0       -5.936642    3.937050    0.069212
     28          6           0       -7.232410    4.668735   -0.111959
     29          6           0       -8.320255    3.571574    0.362580
     30          6           0       -7.491721    2.333503    0.264314
     31          6           0       -7.266583    5.940699    0.838891
     32          6           0       -9.651777    3.694599   -0.464848
     33          6           0      -10.950295    3.787362    0.293246
     34          7           0       -6.119047   -0.244629    0.358916
     35          6           0       -7.467912   -0.105113    0.609608
     36          6           0       -8.038077   -1.406812    0.808529
     37          6           0       -6.935574   -2.310285    0.996629
     38          6           0       -5.784570   -1.532060    0.607442
     39          6           0       -9.404803   -1.759540    0.817341
     40          6           0       -6.600901   -3.705383    1.164801
     41          8           0       -7.263689   -4.677024    1.367758
     42          6           0       -5.043073   -3.788767    1.024366
     43          6           0       -4.703876   -4.918366    0.146219
     44          8           0       -5.098223   -5.109066   -0.983156
     45          8           0       -3.720235   -5.716004    0.800230
     46          6           0       -3.369815   -7.006981    0.076878
     47          6           0        2.504321   -4.154850   -0.895151
     48          6           0        3.623342   -3.492913   -1.593183
     49          6           0        4.997521   -3.724011   -1.542988
     50          6           0        5.572747   -4.629728   -0.484129
     51          6           0        5.951222   -2.929894   -2.270167
     52          6           0        6.529148   -1.753975   -1.404334
     53          6           0        6.583683   -0.493476   -2.268298
     54          6           0        7.465073    0.557308   -1.633759
     55          6           0        7.099610    1.974746   -2.059223
     56          6           0        8.957338    0.333581   -1.974689
     57          6           0        9.884375    0.612362   -0.752754
     58          6           0       11.323926    0.922648   -1.133946
     59          6           0       11.792514    2.380140   -0.808284
     60          6           0       12.502244    3.244646   -1.939584
     61          6           0       12.732302    2.377607    0.436771
     62          6           0       11.877249    2.247079    1.748198
     63          6           0       12.167762    0.911503    2.520993
     64          6           0       11.617678    0.837656    3.905577
     65          6           0       12.668717    0.113901    4.838374
     66          6           0       10.255883    0.055685    3.898589
     67          1           0       -0.140344    0.916388   -0.063628
     68          1           0       -4.654317    5.525196   -0.449080
     69          1           0       -9.164274    1.151398    0.427611
     70          1           0       -1.924003   -3.508733    0.730451
     71          1           0       -0.178437   -1.675224    0.015039
     72          1           0       -0.726549   -0.735192    2.582504
     73          1           0        0.163457   -2.095803    2.213877
     74          1           0       -1.614806   -2.264880    2.679515
     75          1           0       -1.706582   -2.163144   -2.131219
     76          1           0       -2.953520   -3.347545   -1.861442
     77          1           0       -0.640427   -3.895159   -2.882033
     78          1           0       -1.633850   -5.017537   -1.902831
     79          1           0        0.835654    4.379304    0.236890
     80          1           0        0.743517    3.589436   -1.378370
     81          1           0        0.810349    2.667114    0.011421
     82          1           0        0.300242    6.127214   -1.507038
     83          1           0       -0.057115    6.432122    0.234785
     84          1           0       -0.394009    7.677749   -0.961594
     85          1           0       -7.482433    5.006598   -1.116940
     86          1           0       -8.596540    3.617183    1.416309
     87          1           0       -8.072701    5.842447    1.565202
     88          1           0       -7.368247    6.898118    0.326799
     89          1           0       -6.337026    6.069466    1.394411
     90          1           0       -9.744511    2.895210   -1.200598
     91          1           0       -9.487911    4.559386   -1.106758
     92          1           0      -11.767826    3.250596   -0.187253
     93          1           0      -11.312273    4.812308    0.373114
     94          1           0      -10.830908    3.405559    1.306904
     95          1           0       -9.864536   -1.834084   -0.167960
     96          1           0       -9.935099   -0.945986    1.312444
     97          1           0       -9.794827   -2.629682    1.346326
     98          1           0       -4.783905   -4.000225    2.061270
     99          1           0       -3.045504   -7.872813    0.654219
    100          1           0       -2.477803   -6.947023   -0.546837
    101          1           0       -4.086862   -7.287384   -0.695942
    102          1           0        2.704939   -5.221088   -0.992304
    103          1           0        2.452107   -4.069483    0.191164
    104          1           0        3.251267   -2.807191   -2.354231
    105          1           0        5.777192   -5.671082   -0.735107
    106          1           0        4.999415   -4.717974    0.438793
    107          1           0        6.580505   -4.277499   -0.265707
    108          1           0        5.508585   -2.592968   -3.208268
    109          1           0        6.831819   -3.512739   -2.539889
    110          1           0        7.491708   -2.095610   -1.023787
    111          1           0        5.901964   -1.488358   -0.553109
    112          1           0        5.621294    0.016181   -2.308942
    113          1           0        6.921790   -0.747866   -3.273352
    114          1           0        7.263630    0.613945   -0.564632
    115          1           0        6.473284    2.350033   -1.250056
    116          1           0        6.537640    1.938751   -2.992672
    117          1           0        7.965591    2.612719   -2.236043
    118          1           0        9.417856    0.959947   -2.737683
    119          1           0        9.029261   -0.689443   -2.343989
    120          1           0        9.947730   -0.378903   -0.302854
    121          1           0        9.469360    1.344654   -0.060212
    122          1           0       11.500658    0.863799   -2.207375
    123          1           0       11.906571    0.172802   -0.598506
    124          1           0       10.886301    2.908864   -0.511419
    125          1           0       11.917400    4.111079   -2.248724
    126          1           0       12.545261    2.683938   -2.872878
    127          1           0       13.492535    3.588293   -1.642205
    128          1           0       13.207019    3.348696    0.577573
    129          1           0       13.547141    1.655891    0.477250
    130          1           0       10.813933    2.162994    1.524770
    131          1           0       11.998055    3.116699    2.393722
    132          1           0       13.256284    0.960863    2.492618
    133          1           0       11.776468    0.085947    1.926238
    134          1           0       11.328448    1.837771    4.224758
    135          1           0       12.339701   -0.804872    5.324137
    136          1           0       12.841532    0.881662    5.592530
    137          1           0       13.634158   -0.161761    4.412569
    138          1           0        9.831564   -0.163754    2.919229
    139          1           0        9.549983    0.682302    4.442270
    140          1           0       10.286759   -0.904005    4.413988
 ---------------------------------------------------------------------

 SCF Done:  E(RPBE1PBE) =  -3005.34530528     A.U. after   16 cycles

 Excitation energies and oscillator strengths:

 Excited State   1:      Singlet-A      1.8443 eV  672.26 nm  f=0.3426  <S**2>=0.000
     245 -> 248       -0.17815
     246 -> 247        0.69068
     246 <- 247       -0.10192
 This state for optimization and/or second-order correction.
 Total Energy, E(TD-HF/TD-DFT) =  -3005.27752892
 Copying the excited state density for this state as the 1-particle RhoCI density.

 Excited State   2:      Singlet-A      2.2488 eV  551.33 nm  f=0.0777  <S**2>=0.000
     245 -> 247        0.63289
     246 -> 248        0.30283

 Excited State   3:      Singlet-A      2.9475 eV  420.65 nm  f=0.0003  <S**2>=0.000
     241 -> 247       -0.13124
     242 -> 247        0.13489
     243 -> 247        0.66658

 Excited State   4:      Singlet-A      3.0251 eV  409.85 nm  f=0.0000  <S**2>=0.000
     241 -> 247        0.48026
     241 -> 249        0.14137
     242 -> 247        0.45984
     242 -> 249        0.12486

 Excited State   5:      Singlet-A      3.1292 eV  396.21 nm  f=0.0353  <S**2>=0.000
     240 -> 247        0.34548
     241 -> 247       -0.37050
     242 -> 247        0.38780
     243 -> 247       -0.17724
     246 -> 248       -0.17242

 The electronic state is 1-A.
 Alpha  occ. eigenvalues --  -46.90757 -19.27072 -19.25278 -19.20664 -19.20509
 Alpha  occ. eigenvalues --  -19.18991 -19.18790 -14.41713 -14.41267 -14.39220
 Alpha  occ. eigenvalues --  -14.38943 -10.36663 -10.36395 -10.32555 -10.31420
 Alpha  occ. eigenvalues --  -10.29711 -10.29091 -10.28784 -10.28717 -10.28455
 Alpha  occ. eigenvalues --  -10.28042 -10.27863 -10.27432 -10.26865 -10.26801
 Alpha  occ. eigenvalues --  -10.26640 -10.26189 -10.26145 -10.26127 -10.26023
 Alpha  occ. eigenvalues --  -10.25536 -10.25491 -10.25317 -10.25274 -10.25253
 Alpha  occ. eigenvalues --  -10.25144 -10.24966 -10.24555 -10.24322 -10.24035
 Alpha  occ. eigenvalues --  -10.24013 -10.23882 -10.23864 -10.23794 -10.23741
 Alpha  occ. eigenvalues --  -10.23720 -10.23589 -10.23529 -10.23515 -10.23496
 Alpha  occ. eigenvalues --  -10.23256 -10.23059 -10.22972 -10.22953 -10.22590
 Alpha  occ. eigenvalues --  -10.22553 -10.22526 -10.22454 -10.22389 -10.22384
 Alpha  occ. eigenvalues --  -10.22152 -10.22094 -10.22004 -10.21912 -10.21855
 Alpha  occ. eigenvalues --  -10.21688  -3.13081  -1.85936  -1.85450  -1.85326
 Alpha  occ. eigenvalues --   -1.13430  -1.09313  -1.05763  -1.04002  -1.03861
 Alpha  occ. eigenvalues --   -1.01529  -0.98798  -0.98147  -0.97470  -0.96490
 Alpha  occ. eigenvalues --   -0.86497  -0.85927  -0.84431  -0.83644  -0.83535
 Alpha  occ. eigenvalues --   -0.83264  -0.82379  -0.81742  -0.81614  -0.81389
 Alpha  occ. eigenvalues --   -0.81130  -0.80596  -0.78903  -0.77969  -0.77755
 Alpha  occ. eigenvalues --   -0.77178  -0.76022  -0.75430  -0.75018  -0.74330
 Alpha  occ. eigenvalues --   -0.73913  -0.72798  -0.72332  -0.71826  -0.70734
 Alpha  occ. eigenvalues --   -0.70358  -0.69511  -0.69359  -0.69176  -0.68281
 Alpha  occ. eigenvalues --   -0.68149  -0.66917  -0.66386  -0.65049  -0.63826
 Alpha  occ. eigenvalues --   -0.63298  -0.62589  -0.62363  -0.61478  -0.60307
 Alpha  occ. eigenvalues --   -0.60086  -0.59697  -0.59575  -0.59199  -0.58700
 Alpha  occ. eigenvalues --   -0.58415  -0.57886  -0.57067  -0.56512  -0.55316
 Alpha  occ. eigenvalues --   -0.54941  -0.54505  -0.53502  -0.53312  -0.52502
 Alpha  occ. eigenvalues --   -0.52107  -0.51486  -0.51042  -0.50872  -0.50448
 Alpha  occ. eigenvalues --   -0.49941  -0.49831  -0.49330  -0.48605  -0.48477
 Alpha  occ. eigenvalues --   -0.48346  -0.48025  -0.47624  -0.47412  -0.47358
 Alpha  occ. eigenvalues --   -0.46989  -0.46963  -0.46690  -0.46591  -0.46309
 Alpha  occ. eigenvalues --   -0.46037  -0.45948  -0.45551  -0.45390  -0.45121
 Alpha  occ. eigenvalues --   -0.44988  -0.44726  -0.44616  -0.44238  -0.44203
 Alpha  occ. eigenvalues --   -0.44139  -0.43912  -0.43739  -0.43590  -0.43452
 Alpha  occ. eigenvalues --   -0.43316  -0.43131  -0.43007  -0.42770  -0.42424
 Alpha  occ. eigenvalues --   -0.42276  -0.42031  -0.41847  -0.41630  -0.41353
 Alpha  occ. eigenvalues --   -0.41324  -0.40952  -0.40769  -0.40598  -0.40529
 Alpha  occ. eigenvalues --   -0.40254  -0.40237  -0.40127  -0.39786  -0.39646
 Alpha  occ. eigenvalues --   -0.39482  -0.39161  -0.39079  -0.38846  -0.38529
 Alpha  occ. eigenvalues --   -0.38285  -0.38091  -0.37894  -0.37761  -0.37660
 Alpha  occ. eigenvalues --   -0.37590  -0.37502  -0.37383  -0.37327  -0.37215
 Alpha  occ. eigenvalues --   -0.37001  -0.36874  -0.36809  -0.36649  -0.36568
 Alpha  occ. eigenvalues --   -0.36468  -0.36230  -0.35725  -0.35329  -0.34972
 Alpha  occ. eigenvalues --   -0.34953  -0.34817  -0.34703  -0.33938  -0.33894
 Alpha  occ. eigenvalues --   -0.33466  -0.33439  -0.33165  -0.32710  -0.32559
 Alpha  occ. eigenvalues --   -0.32523  -0.32158  -0.32031  -0.31717  -0.31581
 Alpha  occ. eigenvalues --   -0.30773  -0.30759  -0.29752  -0.29581  -0.29561
 Alpha  occ. eigenvalues --   -0.29444  -0.28873  -0.28838  -0.27128  -0.25788
 Alpha  occ. eigenvalues --   -0.25536  -0.25502  -0.24838  -0.24123  -0.21163
 Alpha  occ. eigenvalues --   -0.18769
 Alpha virt. eigenvalues --   -0.11079  -0.05704  -0.04011  -0.02066  -0.00846
 Alpha virt. eigenvalues --   -0.00175   0.00103   0.00583   0.01668   0.02612
 Alpha virt. eigenvalues --    0.03969   0.04356   0.04792   0.05712   0.05866

 Mulliken charges:
               1
     1  Mg   0.987937
     2  C   -0.061102
     3  C   -0.092729
     4  C   -0.054724
     5  C   -0.107128
     6  N   -0.358338
     7  C    0.021468
     8  C   -0.142943
     9  C   -0.131973
    10  C    0.037865
    11  C    0.046775
    12  C    0.011022
    13  C    0.022496
    14  C    0.218856
    15  O   -0.267018
    16  O   -0.344663
    17  N   -0.547293
    18  C    0.234209
    19  C   -0.172223
    20  C   -0.023673
    21  C    0.173817
    22  C    0.039391
    23  C    0.015834
    24  O   -0.256046
    25  C   -0.024424
    26  N   -0.431601
    27  C    0.116557
    28  C   -0.131520
    29  C   -0.133220
    30  C    0.125041
    31  C   -0.000760
    32  C   -0.020252
    33  C   -0.063905
    34  N   -0.490891
    35  C    0.187163
    36  C   -0.143223
    37  C   -0.081247
    38  C    0.202741
    39  C    0.042298
    40  C    0.124609
    41  O   -0.182180
    42  C   -0.087480
    43  C    0.301722
    44  O   -0.232910
    45  O   -0.400434
    46  C    0.119043
    47  C    0.240665
    48  C   -0.146638
    49  C   -0.191443
    50  C   -0.000774
    51  C    0.031509
    52  C   -0.045381
    53  C   -0.005705
    54  C   -0.235309
    55  C    0.006281
    56  C    0.004683
    57  C   -0.087067
    58  C    0.023265
    59  C   -0.223730
    60  C   -0.005269
    61  C   -0.000329
    62  C   -0.087894
    63  C   -0.044238
    64  C   -0.208130
    65  C   -0.023269
    66  C   -0.030354
    67  H    0.003559
    68  H    0.022455
    69  H    0.006869
    70  H    0.064880
    71  H    0.027458
    72  H    0.035783
    73  H    0.046764
    74  H    0.064953
    75  H    0.046284
    76  H    0.070984
    77  H    0.058449
    78  H    0.064443
    79  H    0.052268
    80  H    0.061897
    81  H    0.030974
    82  H    0.064457
    83  H    0.057962
    84  H    0.055691
    85  H    0.066351
    86  H    0.060323
    87  H    0.038896
    88  H    0.043529
    89  H    0.049273
    90  H    0.038610
    91  H    0.029639
    92  H    0.042248
    93  H    0.043464
    94  H    0.040445
    95  H    0.056564
    96  H    0.030112
    97  H    0.054317
    98  H    0.083136
    99  H    0.058614
   100  H    0.039908
   101  H    0.064131
   102  H    0.057149
   103  H    0.044193
   104  H    0.027694
   105  H    0.049042
   106  H    0.043533
   107  H    0.030187
   108  H    0.037934
   109  H    0.031527
   110  H    0.040193
   111  H    0.039068
   112  H    0.025176
   113  H    0.033513
   114  H    0.027664
   115  H    0.029944
   116  H    0.028241
   117  H    0.036273
   118  H    0.025355
   119  H    0.018138
   120  H    0.031058
   121  H    0.051013
   122  H    0.023484
   123  H    0.032878
   124  H    0.036730
   125  H    0.031479
   126  H    0.020955
   127  H    0.042641
   128  H    0.022380
   129  H    0.033653
   130  H    0.018122
   131  H    0.028169
   132  H    0.029891
   133  H    0.034634
   134  H    0.038848
   135  H    0.034245
   136  H    0.038785
   137  H    0.038908
   138  H    0.033863
   139  H    0.030914
   140  H    0.031018
 Sum of Mulliken charges =  -0.00000

 Dipole moment (field-independent basis, Debye):
    X=              5.0351    Y=              2.6590    Z=              0.1719  Tot=              5.6967
 Quadrupole moment (field-independent basis, Debye-Ang):
   XX=           -381.6806   YY=           -429.6303   ZZ=           -404.0457
   XY=            -39.0508   XZ=             -2.9301   YZ=             13.6667

 Normal termination of Gaussian 16 at Wed May  4 02:47:32 2022.
