 Gaussian 16, Revision A.03,
 Gaussian 16:  ES64L-G16RevA.03 25-Dec-2016

 --------------------------------
 #p wB97XD/Def2SVP td=(nstates=5)
 --------------------------------

 -----------------------------------------------------
 step_1301_chromophore_15 TDDFT with wB97XD functional
 -----------------------------------------------------
 Symbolic Z-matrix:
 Charge =  0 Multiplicity = 1

                         Standard orientation:
 ---------------------------------------------------------------------
 Center     Atomic      Atomic             Coordinates (Angstroms)
 Number     Number       Type             X           Y           Z
 ---------------------------------------------------------------------
      1         12           0       -4.652213    1.173227    0.186942
      2          6           0       -4.639834   -2.347489    0.566193
      3          6           0       -1.227580    1.014082   -0.034601
      4          6           0       -4.667254    4.461734   -0.198670
      5          6           0       -8.074979    1.135601    0.503182
      6          7           0       -3.164471   -0.501504    0.110066
      7          6           0       -3.361448   -1.872530    0.231749
      8          6           0       -2.046029   -2.685540    0.025893
      9          6           0       -1.101505   -1.572797    0.585992
     10          6           0       -1.828382   -0.285798    0.131777
     11          6           0       -0.853841   -1.716545    2.124497
     12          6           0       -1.969007   -3.026443   -1.519969
     13          6           0       -0.961922   -4.159368   -1.874386
     14          6           0        0.186241   -4.434769   -0.978823
     15          8           0        0.205532   -5.343719   -0.165135
     16          8           0        1.229521   -3.685277   -1.369760
     17          7           0       -3.159875    2.531646   -0.074467
     18          6           0       -1.811225    2.262344   -0.191816
     19          6           0       -1.150211    3.552904   -0.321279
     20          6           0       -2.129266    4.552295   -0.576967
     21          6           0       -3.401688    3.905652   -0.320517
     22          6           0        0.367591    3.592845   -0.355894
     23          6           0       -1.835970    5.964660   -0.881291
     24          8           0       -2.739159    6.729955   -1.245707
     25          6           0       -0.373353    6.600956   -0.793856
     26          7           0       -6.147813    2.606283    0.318452
     27          6           0       -5.936642    3.937050    0.069212
     28          6           0       -7.232410    4.668735   -0.111959
     29          6           0       -8.320255    3.571574    0.362580
     30          6           0       -7.491721    2.333503    0.264314
     31          6           0       -7.266583    5.940699    0.838891
     32          6           0       -9.651777    3.694599   -0.464848
     33          6           0      -10.950295    3.787362    0.293246
     34          7           0       -6.119047   -0.244629    0.358916
     35          6           0       -7.467912   -0.105113    0.609608
     36          6           0       -8.038077   -1.406812    0.808529
     37          6           0       -6.935574   -2.310285    0.996629
     38          6           0       -5.784570   -1.532060    0.607442
     39          6           0       -9.404803   -1.759540    0.817341
     40          6           0       -6.600901   -3.705383    1.164801
     41          8           0       -7.263689   -4.677024    1.367758
     42          6           0       -5.043073   -3.788767    1.024366
     43          6           0       -4.703876   -4.918366    0.146219
     44          8           0       -5.098223   -5.109066   -0.983156
     45          8           0       -3.720235   -5.716004    0.800230
     46          6           0       -3.369815   -7.006981    0.076878
     47          6           0        2.504321   -4.154850   -0.895151
     48          6           0        3.623342   -3.492913   -1.593183
     49          6           0        4.997521   -3.724011   -1.542988
     50          6           0        5.572747   -4.629728   -0.484129
     51          6           0        5.951222   -2.929894   -2.270167
     52          6           0        6.529148   -1.753975   -1.404334
     53          6           0        6.583683   -0.493476   -2.268298
     54          6           0        7.465073    0.557308   -1.633759
     55          6           0        7.099610    1.974746   -2.059223
     56          6           0        8.957338    0.333581   -1.974689
     57          6           0        9.884375    0.612362   -0.752754
     58          6           0       11.323926    0.922648   -1.133946
     59          6           0       11.792514    2.380140   -0.808284
     60          6           0       12.502244    3.244646   -1.939584
     61          6           0       12.732302    2.377607    0.436771
     62          6           0       11.877249    2.247079    1.748198
     63          6           0       12.167762    0.911503    2.520993
     64          6           0       11.617678    0.837656    3.905577
     65          6           0       12.668717    0.113901    4.838374
     66          6           0       10.255883    0.055685    3.898589
     67          1           0       -0.140344    0.916388   -0.063628
     68          1           0       -4.654317    5.525196   -0.449080
     69          1           0       -9.164274    1.151398    0.427611
     70          1           0       -1.924003   -3.508733    0.730451
     71          1           0       -0.178437   -1.675224    0.015039
     72          1           0       -0.726549   -0.735192    2.582504
     73          1           0        0.163457   -2.095803    2.213877
     74          1           0       -1.614806   -2.264880    2.679515
     75          1           0       -1.706582   -2.163144   -2.131219
     76          1           0       -2.953520   -3.347545   -1.861442
     77          1           0       -0.640427   -3.895159   -2.882033
     78          1           0       -1.633850   -5.017537   -1.902831
     79          1           0        0.835654    4.379304    0.236890
     80          1           0        0.743517    3.589436   -1.378370
     81          1           0        0.810349    2.667114    0.011421
     82          1           0        0.300242    6.127214   -1.507038
     83          1           0       -0.057115    6.432122    0.234785
     84          1           0       -0.394009    7.677749   -0.961594
     85          1           0       -7.482433    5.006598   -1.116940
     86          1           0       -8.596540    3.617183    1.416309
     87          1           0       -8.072701    5.842447    1.565202
     88          1           0       -7.368247    6.898118    0.326799
     89          1           0       -6.337026    6.069466    1.394411
     90          1           0       -9.744511    2.895210   -1.200598
     91          1           0       -9.487911    4.559386   -1.106758
     92          1           0      -11.767826    3.250596   -0.187253
     93          1           0      -11.312273    4.812308    0.373114
     94          1           0      -10.830908    3.405559    1.306904
     95          1           0       -9.864536   -1.834084   -0.167960
     96          1           0       -9.935099   -0.945986    1.312444
     97          1           0       -9.794827   -2.629682    1.346326
     98          1           0       -4.783905   -4.000225    2.061270
     99          1           0       -3.045504   -7.872813    0.654219
    100          1           0       -2.477803   -6.947023   -0.546837
    101          1           0       -4.086862   -7.287384   -0.695942
    102          1           0        2.704939   -5.221088   -0.992304
    103          1           0        2.452107   -4.069483    0.191164
    104          1           0        3.251267   -2.807191   -2.354231
    105          1           0        5.777192   -5.671082   -0.735107
    106          1           0        4.999415   -4.717974    0.438793
    107          1           0        6.580505   -4.277499   -0.265707
    108          1           0        5.508585   -2.592968   -3.208268
    109          1           0        6.831819   -3.512739   -2.539889
    110          1           0        7.491708   -2.095610   -1.023787
    111          1           0        5.901964   -1.488358   -0.553109
    112          1           0        5.621294    0.016181   -2.308942
    113          1           0        6.921790   -0.747866   -3.273352
    114          1           0        7.263630    0.613945   -0.564632
    115          1           0        6.473284    2.350033   -1.250056
    116          1           0        6.537640    1.938751   -2.992672
    117          1           0        7.965591    2.612719   -2.236043
    118          1           0        9.417856    0.959947   -2.737683
    119          1           0        9.029261   -0.689443   -2.343989
    120          1           0        9.947730   -0.378903   -0.302854
    121          1           0        9.469360    1.344654   -0.060212
    122          1           0       11.500658    0.863799   -2.207375
    123          1           0       11.906571    0.172802   -0.598506
    124          1           0       10.886301    2.908864   -0.511419
    125          1           0       11.917400    4.111079   -2.248724
    126          1           0       12.545261    2.683938   -2.872878
    127          1           0       13.492535    3.588293   -1.642205
    128          1           0       13.207019    3.348696    0.577573
    129          1           0       13.547141    1.655891    0.477250
    130          1           0       10.813933    2.162994    1.524770
    131          1           0       11.998055    3.116699    2.393722
    132          1           0       13.256284    0.960863    2.492618
    133          1           0       11.776468    0.085947    1.926238
    134          1           0       11.328448    1.837771    4.224758
    135          1           0       12.339701   -0.804872    5.324137
    136          1           0       12.841532    0.881662    5.592530
    137          1           0       13.634158   -0.161761    4.412569
    138          1           0        9.831564   -0.163754    2.919229
    139          1           0        9.549983    0.682302    4.442270
    140          1           0       10.286759   -0.904005    4.413988
 ---------------------------------------------------------------------

 SCF Done:  E(RwB97XD) =  -3007.85374320     A.U. after   20 cycles

 Excitation energies and oscillator strengths:

 Excited State   1:      Singlet-A      1.6541 eV  749.54 nm  f=0.3499  <S**2>=0.000
     245 -> 248        0.18873
     246 -> 247        0.68199
     245 <- 248        0.11708
 This state for optimization and/or second-order correction.
 Total Energy, E(TD-HF/TD-DFT) =  -3007.79295477
 Copying the excited state density for this state as the 1-particle RhoCI density.

 Excited State   2:      Singlet-A      2.1901 eV  566.12 nm  f=0.0750  <S**2>=0.000
     245 -> 247        0.61763
     246 -> 248       -0.32835

 Excited State   3:      Singlet-A      3.3914 eV  365.58 nm  f=0.2232  <S**2>=0.000
     241 -> 247        0.40157
     242 -> 247       -0.20674
     243 -> 247       -0.34670
     245 -> 247        0.16854
     246 -> 248        0.36379

 Excited State   4:      Singlet-A      3.4496 eV  359.41 nm  f=0.2333  <S**2>=0.000
     243 -> 247        0.52455
     243 -> 249       -0.11164
     245 -> 247        0.17361
     246 -> 248        0.39957

 Excited State   5:      Singlet-A      3.5294 eV  351.29 nm  f=0.0039  <S**2>=0.000
     240 -> 247        0.50839
     240 -> 248       -0.16869
     240 -> 249        0.38336
     240 -> 250        0.18060
     240 -> 257        0.11481

 The electronic state is 1-A.
 Alpha  occ. eigenvalues --  -46.93705 -19.31639 -19.29758 -19.25313 -19.25155
 Alpha  occ. eigenvalues --  -19.24022 -19.23376 -14.46843 -14.46361 -14.44256
 Alpha  occ. eigenvalues --  -14.43737 -10.43442 -10.43166 -10.39602 -10.38064
 Alpha  occ. eigenvalues --  -10.36217 -10.35615 -10.35245 -10.35121 -10.34884
 Alpha  occ. eigenvalues --  -10.34549 -10.34504 -10.33669 -10.33472 -10.32799
 Alpha  occ. eigenvalues --  -10.32688 -10.32445 -10.32425 -10.32389 -10.32261
 Alpha  occ. eigenvalues --  -10.31978 -10.31815 -10.31659 -10.31630 -10.31616
 Alpha  occ. eigenvalues --  -10.31498 -10.31318 -10.31244 -10.30685 -10.30584
 Alpha  occ. eigenvalues --  -10.30475 -10.30322 -10.30254 -10.30200 -10.30155
 Alpha  occ. eigenvalues --  -10.30141 -10.29993 -10.29932 -10.29888 -10.29777
 Alpha  occ. eigenvalues --  -10.29663 -10.29369 -10.29351 -10.29307 -10.28957
 Alpha  occ. eigenvalues --  -10.28922 -10.28778 -10.28761 -10.28665 -10.28595
 Alpha  occ. eigenvalues --  -10.28584 -10.28478 -10.28432 -10.28376 -10.28284
 Alpha  occ. eigenvalues --  -10.28082  -3.19857  -1.93465  -1.92982  -1.92855
 Alpha  occ. eigenvalues --   -1.20790  -1.16654  -1.13012  -1.11567  -1.11325
 Alpha  occ. eigenvalues --   -1.08825  -1.06137  -1.05566  -1.04750  -1.04027
 Alpha  occ. eigenvalues --   -0.93974  -0.93626  -0.92121  -0.91295  -0.91123
 Alpha  occ. eigenvalues --   -0.90942  -0.89990  -0.89420  -0.89199  -0.89059
 Alpha  occ. eigenvalues --   -0.88855  -0.88227  -0.86577  -0.85561  -0.85361
 Alpha  occ. eigenvalues --   -0.84825  -0.83659  -0.83097  -0.82672  -0.82040
 Alpha  occ. eigenvalues --   -0.81778  -0.80587  -0.79935  -0.79412  -0.78442
 Alpha  occ. eigenvalues --   -0.77913  -0.77228  -0.76956  -0.76881  -0.75954
 Alpha  occ. eigenvalues --   -0.75781  -0.74385  -0.73948  -0.72687  -0.71335
 Alpha  occ. eigenvalues --   -0.70880  -0.70198  -0.70010  -0.69133  -0.67765
 Alpha  occ. eigenvalues --   -0.67574  -0.67355  -0.67010  -0.66746  -0.66142
 Alpha  occ. eigenvalues --   -0.66092  -0.65592  -0.64728  -0.63836  -0.62833
 Alpha  occ. eigenvalues --   -0.62558  -0.61973  -0.60829  -0.60577  -0.59901
 Alpha  occ. eigenvalues --   -0.59492  -0.58900  -0.58459  -0.58315  -0.57893
 Alpha  occ. eigenvalues --   -0.57392  -0.57153  -0.56779  -0.56027  -0.55877
 Alpha  occ. eigenvalues --   -0.55735  -0.55289  -0.55024  -0.54883  -0.54635
 Alpha  occ. eigenvalues --   -0.54441  -0.54428  -0.54271  -0.54050  -0.53702
 Alpha  occ. eigenvalues --   -0.53432  -0.53183  -0.52857  -0.52736  -0.52430
 Alpha  occ. eigenvalues --   -0.52310  -0.51984  -0.51947  -0.51822  -0.51508
 Alpha  occ. eigenvalues --   -0.51463  -0.51276  -0.51092  -0.50912  -0.50793
 Alpha  occ. eigenvalues --   -0.50724  -0.50344  -0.50313  -0.50060  -0.49763
 Alpha  occ. eigenvalues --   -0.49525  -0.49323  -0.49219  -0.48890  -0.48632
 Alpha  occ. eigenvalues --   -0.48573  -0.48134  -0.47972  -0.47790  -0.47758
 Alpha  occ. eigenvalues --   -0.47506  -0.47323  -0.47250  -0.47000  -0.46787
 Alpha  occ. eigenvalues --   -0.46640  -0.46384  -0.46258  -0.46054  -0.45733
 Alpha  occ. eigenvalues --   -0.45527  -0.45243  -0.45086  -0.44932  -0.44787
 Alpha  occ. eigenvalues --   -0.44715  -0.44627  -0.44520  -0.44463  -0.44379
 Alpha  occ. eigenvalues --   -0.44055  -0.43993  -0.43869  -0.43816  -0.43595
 Alpha  occ. eigenvalues --   -0.43495  -0.43323  -0.42859  -0.42315  -0.42123
 Alpha  occ. eigenvalues --   -0.41947  -0.41889  -0.41678  -0.40988  -0.40960
 Alpha  occ. eigenvalues --   -0.40541  -0.40381  -0.40166  -0.39738  -0.39641
 Alpha  occ. eigenvalues --   -0.39589  -0.39192  -0.38988  -0.38592  -0.38537
 Alpha  occ. eigenvalues --   -0.37769  -0.37764  -0.36688  -0.36537  -0.36516
 Alpha  occ. eigenvalues --   -0.36405  -0.35781  -0.35531  -0.33757  -0.32915
 Alpha  occ. eigenvalues --   -0.32540  -0.32257  -0.31190  -0.30815  -0.26215
 Alpha  occ. eigenvalues --   -0.22953
 Alpha virt. eigenvalues --   -0.06876  -0.00332   0.02207   0.04495   0.05864
 Alpha virt. eigenvalues --    0.06636   0.06736   0.07238   0.07564   0.08871
 Alpha virt. eigenvalues --    0.10522   0.11245   0.11496   0.12457   0.12550

 Mulliken charges:
               1
     1  Mg   0.974641
     2  C   -0.068950
     3  C   -0.106353
     4  C   -0.076556
     5  C   -0.118565
     6  N   -0.328763
     7  C   -0.012343
     8  C   -0.114795
     9  C   -0.102426
    10  C    0.022848
    11  C    0.054169
    12  C    0.016398
    13  C    0.043010
    14  C    0.203171
    15  O   -0.262433
    16  O   -0.341744
    17  N   -0.518642
    18  C    0.229148
    19  C   -0.160837
    20  C   -0.012165
    21  C    0.170806
    22  C    0.049745
    23  C    0.008290
    24  O   -0.250286
    25  C   -0.008862
    26  N   -0.399592
    27  C    0.109196
    28  C   -0.104360
    29  C   -0.104693
    30  C    0.107874
    31  C    0.007683
    32  C   -0.008999
    33  C   -0.047682
    34  N   -0.452138
    35  C    0.176406
    36  C   -0.134182
    37  C   -0.081871
    38  C    0.189370
    39  C    0.047579
    40  C    0.106575
    41  O   -0.174685
    42  C   -0.045981
    43  C    0.275938
    44  O   -0.226273
    45  O   -0.400102
    46  C    0.136844
    47  C    0.253082
    48  C   -0.159743
    49  C   -0.169674
    50  C    0.008411
    51  C    0.051815
    52  C   -0.034317
    53  C    0.014916
    54  C   -0.206204
    55  C    0.016032
    56  C    0.020874
    57  C   -0.065176
    58  C    0.035611
    59  C   -0.190765
    60  C    0.008207
    61  C    0.013071
    62  C   -0.067102
    63  C   -0.020853
    64  C   -0.180019
    65  C   -0.011530
    66  C   -0.018281
    67  H   -0.002987
    68  H    0.017083
    69  H   -0.002101
    70  H    0.052903
    71  H    0.016130
    72  H    0.028922
    73  H    0.041748
    74  H    0.060968
    75  H    0.038773
    76  H    0.063384
    77  H    0.053650
    78  H    0.054657
    79  H    0.048432
    80  H    0.058784
    81  H    0.027495
    82  H    0.059527
    83  H    0.051594
    84  H    0.055510
    85  H    0.058142
    86  H    0.046613
    87  H    0.033447
    88  H    0.038887
    89  H    0.042311
    90  H    0.031346
    91  H    0.020276
    92  H    0.037296
    93  H    0.037300
    94  H    0.033751
    95  H    0.050999
    96  H    0.022143
    97  H    0.051140
    98  H    0.076936
    99  H    0.055451
   100  H    0.033883
   101  H    0.059946
   102  H    0.051283
   103  H    0.039034
   104  H    0.024330
   105  H    0.044731
   106  H    0.038746
   107  H    0.023759
   108  H    0.030135
   109  H    0.023836
   110  H    0.030871
   111  H    0.029543
   112  H    0.015704
   113  H    0.023797
   114  H    0.015308
   115  H    0.024633
   116  H    0.021950
   117  H    0.029829
   118  H    0.013725
   119  H    0.008551
   120  H    0.020950
   121  H    0.037890
   122  H    0.012785
   123  H    0.024189
   124  H    0.021707
   125  H    0.025977
   126  H    0.014464
   127  H    0.036995
   128  H    0.013894
   129  H    0.025134
   130  H    0.000355
   131  H    0.021083
   132  H    0.017133
   133  H    0.019496
   134  H    0.028481
   135  H    0.028573
   136  H    0.032779
   137  H    0.033417
   138  H    0.026685
   139  H    0.025317
   140  H    0.024824
 Sum of Mulliken charges =  -0.00000

 Dipole moment (field-independent basis, Debye):
    X=              5.6581    Y=              3.1311    Z=              0.0923  Tot=              6.4674
 Quadrupole moment (field-independent basis, Debye-Ang):
   XX=           -386.7343   YY=           -427.5124   ZZ=           -403.6780
   XY=            -39.6086   XZ=             -2.6187   YZ=             13.4790

 Normal termination of Gaussian 16 at Wed May  4 03:13:40 2022.
