 Gaussian 16, Revision A.03,
 Gaussian 16:  ES64L-G16RevA.03 25-Dec-2016

 --------------------
 #p ZINDO=(nstates=5)
 --------------------

 ------------------------------
 step_1301_chromophore_15 ZINDO
 ------------------------------
 Symbolic Z-matrix:
 Charge =  0 Multiplicity = 1

                         Standard orientation:
 ---------------------------------------------------------------------
 Center     Atomic      Atomic             Coordinates (Angstroms)
 Number     Number       Type             X           Y           Z
 ---------------------------------------------------------------------
      1         12           0       -4.652213    1.173227    0.186942
      2          6           0       -4.639834   -2.347489    0.566193
      3          6           0       -1.227580    1.014082   -0.034601
      4          6           0       -4.667254    4.461734   -0.198670
      5          6           0       -8.074979    1.135601    0.503182
      6          7           0       -3.164471   -0.501504    0.110066
      7          6           0       -3.361448   -1.872530    0.231749
      8          6           0       -2.046029   -2.685540    0.025893
      9          6           0       -1.101505   -1.572797    0.585992
     10          6           0       -1.828382   -0.285798    0.131777
     11          6           0       -0.853841   -1.716545    2.124497
     12          6           0       -1.969007   -3.026443   -1.519969
     13          6           0       -0.961922   -4.159368   -1.874386
     14          6           0        0.186241   -4.434769   -0.978823
     15          8           0        0.205532   -5.343719   -0.165135
     16          8           0        1.229521   -3.685277   -1.369760
     17          7           0       -3.159875    2.531646   -0.074467
     18          6           0       -1.811225    2.262344   -0.191816
     19          6           0       -1.150211    3.552904   -0.321279
     20          6           0       -2.129266    4.552295   -0.576967
     21          6           0       -3.401688    3.905652   -0.320517
     22          6           0        0.367591    3.592845   -0.355894
     23          6           0       -1.835970    5.964660   -0.881291
     24          8           0       -2.739159    6.729955   -1.245707
     25          6           0       -0.373353    6.600956   -0.793856
     26          7           0       -6.147813    2.606283    0.318452
     27          6           0       -5.936642    3.937050    0.069212
     28          6           0       -7.232410    4.668735   -0.111959
     29          6           0       -8.320255    3.571574    0.362580
     30          6           0       -7.491721    2.333503    0.264314
     31          6           0       -7.266583    5.940699    0.838891
     32          6           0       -9.651777    3.694599   -0.464848
     33          6           0      -10.950295    3.787362    0.293246
     34          7           0       -6.119047   -0.244629    0.358916
     35          6           0       -7.467912   -0.105113    0.609608
     36          6           0       -8.038077   -1.406812    0.808529
     37          6           0       -6.935574   -2.310285    0.996629
     38          6           0       -5.784570   -1.532060    0.607442
     39          6           0       -9.404803   -1.759540    0.817341
     40          6           0       -6.600901   -3.705383    1.164801
     41          8           0       -7.263689   -4.677024    1.367758
     42          6           0       -5.043073   -3.788767    1.024366
     43          6           0       -4.703876   -4.918366    0.146219
     44          8           0       -5.098223   -5.109066   -0.983156
     45          8           0       -3.720235   -5.716004    0.800230
     46          6           0       -3.369815   -7.006981    0.076878
     47          6           0        2.504321   -4.154850   -0.895151
     48          6           0        3.623342   -3.492913   -1.593183
     49          6           0        4.997521   -3.724011   -1.542988
     50          6           0        5.572747   -4.629728   -0.484129
     51          6           0        5.951222   -2.929894   -2.270167
     52          6           0        6.529148   -1.753975   -1.404334
     53          6           0        6.583683   -0.493476   -2.268298
     54          6           0        7.465073    0.557308   -1.633759
     55          6           0        7.099610    1.974746   -2.059223
     56          6           0        8.957338    0.333581   -1.974689
     57          6           0        9.884375    0.612362   -0.752754
     58          6           0       11.323926    0.922648   -1.133946
     59          6           0       11.792514    2.380140   -0.808284
     60          6           0       12.502244    3.244646   -1.939584
     61          6           0       12.732302    2.377607    0.436771
     62          6           0       11.877249    2.247079    1.748198
     63          6           0       12.167762    0.911503    2.520993
     64          6           0       11.617678    0.837656    3.905577
     65          6           0       12.668717    0.113901    4.838374
     66          6           0       10.255883    0.055685    3.898589
     67          1           0       -0.140344    0.916388   -0.063628
     68          1           0       -4.654317    5.525196   -0.449080
     69          1           0       -9.164274    1.151398    0.427611
     70          1           0       -1.924003   -3.508733    0.730451
     71          1           0       -0.178437   -1.675224    0.015039
     72          1           0       -0.726549   -0.735192    2.582504
     73          1           0        0.163457   -2.095803    2.213877
     74          1           0       -1.614806   -2.264880    2.679515
     75          1           0       -1.706582   -2.163144   -2.131219
     76          1           0       -2.953520   -3.347545   -1.861442
     77          1           0       -0.640427   -3.895159   -2.882033
     78          1           0       -1.633850   -5.017537   -1.902831
     79          1           0        0.835654    4.379304    0.236890
     80          1           0        0.743517    3.589436   -1.378370
     81          1           0        0.810349    2.667114    0.011421
     82          1           0        0.300242    6.127214   -1.507038
     83          1           0       -0.057115    6.432122    0.234785
     84          1           0       -0.394009    7.677749   -0.961594
     85          1           0       -7.482433    5.006598   -1.116940
     86          1           0       -8.596540    3.617183    1.416309
     87          1           0       -8.072701    5.842447    1.565202
     88          1           0       -7.368247    6.898118    0.326799
     89          1           0       -6.337026    6.069466    1.394411
     90          1           0       -9.744511    2.895210   -1.200598
     91          1           0       -9.487911    4.559386   -1.106758
     92          1           0      -11.767826    3.250596   -0.187253
     93          1           0      -11.312273    4.812308    0.373114
     94          1           0      -10.830908    3.405559    1.306904
     95          1           0       -9.864536   -1.834084   -0.167960
     96          1           0       -9.935099   -0.945986    1.312444
     97          1           0       -9.794827   -2.629682    1.346326
     98          1           0       -4.783905   -4.000225    2.061270
     99          1           0       -3.045504   -7.872813    0.654219
    100          1           0       -2.477803   -6.947023   -0.546837
    101          1           0       -4.086862   -7.287384   -0.695942
    102          1           0        2.704939   -5.221088   -0.992304
    103          1           0        2.452107   -4.069483    0.191164
    104          1           0        3.251267   -2.807191   -2.354231
    105          1           0        5.777192   -5.671082   -0.735107
    106          1           0        4.999415   -4.717974    0.438793
    107          1           0        6.580505   -4.277499   -0.265707
    108          1           0        5.508585   -2.592968   -3.208268
    109          1           0        6.831819   -3.512739   -2.539889
    110          1           0        7.491708   -2.095610   -1.023787
    111          1           0        5.901964   -1.488358   -0.553109
    112          1           0        5.621294    0.016181   -2.308942
    113          1           0        6.921790   -0.747866   -3.273352
    114          1           0        7.263630    0.613945   -0.564632
    115          1           0        6.473284    2.350033   -1.250056
    116          1           0        6.537640    1.938751   -2.992672
    117          1           0        7.965591    2.612719   -2.236043
    118          1           0        9.417856    0.959947   -2.737683
    119          1           0        9.029261   -0.689443   -2.343989
    120          1           0        9.947730   -0.378903   -0.302854
    121          1           0        9.469360    1.344654   -0.060212
    122          1           0       11.500658    0.863799   -2.207375
    123          1           0       11.906571    0.172802   -0.598506
    124          1           0       10.886301    2.908864   -0.511419
    125          1           0       11.917400    4.111079   -2.248724
    126          1           0       12.545261    2.683938   -2.872878
    127          1           0       13.492535    3.588293   -1.642205
    128          1           0       13.207019    3.348696    0.577573
    129          1           0       13.547141    1.655891    0.477250
    130          1           0       10.813933    2.162994    1.524770
    131          1           0       11.998055    3.116699    2.393722
    132          1           0       13.256284    0.960863    2.492618
    133          1           0       11.776468    0.085947    1.926238
    134          1           0       11.328448    1.837771    4.224758
    135          1           0       12.339701   -0.804872    5.324137
    136          1           0       12.841532    0.881662    5.592530
    137          1           0       13.634158   -0.161761    4.412569
    138          1           0        9.831564   -0.163754    2.919229
    139          1           0        9.549983    0.682302    4.442270
    140          1           0       10.286759   -0.904005    4.413988
 ---------------------------------------------------------------------

 SCF Done:  E(RZINDO/S) =  -474.401576940     A.U. after   19 cycles

 Excitation energies and oscillator strengths:

 Excited State   1:      Singlet-A      1.2650 eV  980.09 nm  f=0.5531  <S**2>=0.000
     175 ->178         0.18141
     176 ->177         0.66604
 This state for optimization and/or second-order correction.
 Total Energy, E(CIS/TDA) =  -474.355088148
 Copying the excited state density for this state as the 1-particle RhoCI density.

 Excited State   2:      Singlet-A      1.9338 eV  641.15 nm  f=0.0099  <S**2>=0.000
     175 ->177         0.50462
     176 ->178        -0.46938

 Excited State   3:      Singlet-A      2.9181 eV  424.88 nm  f=0.0046  <S**2>=0.000
     167 ->179        -0.11917
     168 ->177         0.31605
     168 ->178        -0.15020
     168 ->179        -0.44531
     168 ->180        -0.10729
     168 ->181         0.17825
     168 ->186        -0.24756

 Excited State   4:      Singlet-A      2.9972 eV  413.67 nm  f=0.0421  <S**2>=0.000
     176 ->179         0.60823
     176 ->180        -0.11142
     176 ->181         0.19761

 Excited State   5:      Singlet-A      3.0087 eV  412.09 nm  f=1.1501  <S**2>=0.000
     171 ->177        -0.13488
     175 ->177         0.42292
     176 ->178         0.48584

 The electronic state is 1-A.
 Alpha  occ. eigenvalues --   -1.83811  -1.81390  -1.80524  -1.76465  -1.71170
 Alpha  occ. eigenvalues --   -1.69018  -1.67306  -1.62574  -1.58164  -1.57575
 Alpha  occ. eigenvalues --   -1.55897  -1.52153  -1.49557  -1.47815  -1.46498
 Alpha  occ. eigenvalues --   -1.43875  -1.43094  -1.40656  -1.38855  -1.38513
 Alpha  occ. eigenvalues --   -1.36136  -1.34681  -1.33168  -1.32216  -1.29424
 Alpha  occ. eigenvalues --   -1.28611  -1.25484  -1.22304  -1.20794  -1.18637
 Alpha  occ. eigenvalues --   -1.17371  -1.15864  -1.15072  -1.14813  -1.13183
 Alpha  occ. eigenvalues --   -1.12835  -1.11228  -1.10585  -1.05212  -1.04091
 Alpha  occ. eigenvalues --   -1.03879  -1.00404  -0.98587  -0.98273  -0.97118
 Alpha  occ. eigenvalues --   -0.96208  -0.94927  -0.93982  -0.93943  -0.93691
 Alpha  occ. eigenvalues --   -0.91038  -0.90068  -0.89732  -0.88117  -0.87910
 Alpha  occ. eigenvalues --   -0.86956  -0.85752  -0.83686  -0.82425  -0.81434
 Alpha  occ. eigenvalues --   -0.80675  -0.79628  -0.79334  -0.76801  -0.76560
 Alpha  occ. eigenvalues --   -0.75266  -0.74949  -0.74418  -0.73916  -0.73381
 Alpha  occ. eigenvalues --   -0.73028  -0.72223  -0.71808  -0.71005  -0.70261
 Alpha  occ. eigenvalues --   -0.69834  -0.69038  -0.68558  -0.68152  -0.67399
 Alpha  occ. eigenvalues --   -0.67305  -0.66690  -0.66510  -0.66247  -0.65878
 Alpha  occ. eigenvalues --   -0.65096  -0.64453  -0.64383  -0.63818  -0.63528
 Alpha  occ. eigenvalues --   -0.63297  -0.63006  -0.62783  -0.62298  -0.62047
 Alpha  occ. eigenvalues --   -0.61713  -0.61575  -0.61195  -0.60727  -0.60193
 Alpha  occ. eigenvalues --   -0.59990  -0.59153  -0.59034  -0.58681  -0.58401
 Alpha  occ. eigenvalues --   -0.58040  -0.57833  -0.57361  -0.57077  -0.56564
 Alpha  occ. eigenvalues --   -0.55819  -0.54900  -0.54832  -0.54653  -0.54471
 Alpha  occ. eigenvalues --   -0.53731  -0.53555  -0.53418  -0.52914  -0.52505
 Alpha  occ. eigenvalues --   -0.52279  -0.52144  -0.52042  -0.51797  -0.51761
 Alpha  occ. eigenvalues --   -0.51215  -0.51012  -0.50838  -0.50703  -0.50613
 Alpha  occ. eigenvalues --   -0.50175  -0.49961  -0.49608  -0.49247  -0.49131
 Alpha  occ. eigenvalues --   -0.49045  -0.48790  -0.48270  -0.48005  -0.47816
 Alpha  occ. eigenvalues --   -0.47571  -0.47508  -0.47261  -0.46637  -0.46599
 Alpha  occ. eigenvalues --   -0.46405  -0.46130  -0.46026  -0.45815  -0.45761
 Alpha  occ. eigenvalues --   -0.45521  -0.45409  -0.44872  -0.44517  -0.44365
 Alpha  occ. eigenvalues --   -0.43920  -0.43395  -0.42642  -0.42393  -0.42189
 Alpha  occ. eigenvalues --   -0.41644  -0.41580  -0.40440  -0.39563  -0.39018
 Alpha  occ. eigenvalues --   -0.38317  -0.37013  -0.36055  -0.35262  -0.33981
 Alpha  occ. eigenvalues --   -0.33646  -0.32662  -0.31226  -0.31101  -0.27009
 Alpha  occ. eigenvalues --   -0.21714
 Alpha virt. eigenvalues --   -0.08309  -0.02450  -0.00787   0.01417   0.01701
 Alpha virt. eigenvalues --    0.02525   0.02767   0.03571   0.03747   0.04703
 Alpha virt. eigenvalues --    0.06443   0.06583   0.06750   0.07744   0.08092

 Mulliken charges:
               1
     1  Mg   0.421272
     2  C   -0.035721
     3  C   -0.085738
     4  C   -0.061253
     5  C   -0.049355
     6  N   -0.286047
     7  C    0.101469
     8  C   -0.003612
     9  C    0.011463
    10  C    0.154699
    11  C   -0.044739
    12  C   -0.014061
    13  C   -0.003318
    14  C    0.481511
    15  O   -0.524796
    16  O   -0.260563
    17  N   -0.350568
    18  C    0.133730
    19  C    0.026196
    20  C   -0.018205
    21  C    0.149402
    22  C   -0.047543
    23  C    0.318282
    24  O   -0.522896
    25  C   -0.030271
    26  N   -0.272609
    27  C    0.168151
    28  C    0.003811
    29  C   -0.007737
    30  C    0.095192
    31  C   -0.059229
    32  C   -0.030729
    33  C   -0.051098
    34  N   -0.314940
    35  C    0.073142
    36  C    0.043135
    37  C   -0.090922
    38  C    0.109298
    39  C   -0.031690
    40  C    0.339563
    41  O   -0.516493
    42  C    0.049164
    43  C    0.495969
    44  O   -0.501575
    45  O   -0.281621
    46  C    0.057746
    47  C    0.111243
    48  C   -0.102329
    49  C    0.000130
    50  C   -0.048241
    51  C   -0.010002
    52  C   -0.027971
    53  C   -0.027836
    54  C   -0.016135
    55  C   -0.061306
    56  C   -0.039121
    57  C   -0.040929
    58  C   -0.033322
    59  C   -0.013929
    60  C   -0.063663
    61  C   -0.038847
    62  C   -0.053711
    63  C   -0.036618
    64  C   -0.005430
    65  C   -0.061263
    66  C   -0.063006
    67  H    0.022609
    68  H    0.034893
    69  H    0.021517
    70  H    0.046506
    71  H    0.020729
    72  H    0.016054
    73  H    0.024102
    74  H    0.039991
    75  H    0.026546
    76  H    0.036895
    77  H    0.034819
    78  H    0.042375
    79  H    0.031091
    80  H    0.033597
    81  H    0.019249
    82  H    0.038870
    83  H    0.031563
    84  H    0.040842
    85  H    0.049388
    86  H    0.039776
    87  H    0.020663
    88  H    0.021470
    89  H    0.021963
    90  H    0.019369
    91  H    0.014846
    92  H    0.019269
    93  H    0.016302
    94  H    0.019662
    95  H    0.033841
    96  H    0.008874
    97  H    0.032027
    98  H    0.057151
    99  H    0.046122
   100  H    0.029399
   101  H    0.050530
   102  H    0.050278
   103  H    0.045930
   104  H    0.022887
   105  H    0.029535
   106  H    0.023788
   107  H    0.015596
   108  H    0.020399
   109  H    0.018309
   110  H    0.026137
   111  H    0.022352
   112  H    0.017517
   113  H    0.023595
   114  H    0.021820
   115  H    0.013835
   116  H    0.015210
   117  H    0.020341
   118  H    0.023690
   119  H    0.013857
   120  H    0.010706
   121  H    0.033190
   122  H    0.020824
   123  H    0.021641
   124  H    0.021640
   125  H    0.016421
   126  H    0.014900
   127  H    0.026433
   128  H    0.008861
   129  H    0.029246
   130  H    0.012531
   131  H    0.020537
   132  H    0.013995
   133  H    0.023162
   134  H    0.029028
   135  H    0.021470
   136  H    0.012991
   137  H    0.022752
   138  H    0.019092
   139  H    0.010952
   140  H    0.018072
 Sum of Mulliken charges =  -0.00000

 Dipole moment (field-independent basis, Debye):
    X=              9.1582    Y=              5.0120    Z=              0.5497  Tot=             10.4544
 N-N= 4.363238964649D+03 E-N= 0.000000000000D+00  KE=-9.400555684460D+03
 Leave Link  601 at Wed May  4 03:26:14 2022, MaxMem=  6710886400 cpu:               0.8 elap:               0.1
 (Enter /sw/apps/gaussian-16.0/g16/l9999.exe)
 1\1\GINC-BP1-COMPUTE092\SP\RZINDO CIS\STO-3G\C55H74Mg1N4O6\OF15641\04-
 May-2022\0\\#p ZINDO=(nstates=5)\\step_1301_chromophore_15 ZINDO\\0,1\
 Mg,0,44.953,34.848,28.139\C,0,43.501,32.599,30.457\C,0,45.17,37.122,30
 .705\C,0,46.339,36.939,25.978\C,0,44.585,32.466,25.688\N,0,44.531,34.7
 71,30.339\C,0,43.987,33.746,31.105\C,0,43.952,34.091,32.626\C,0,43.78,
 35.631,32.419\C,0,44.599,35.868,31.129\C,0,42.277,36.064,32.369\C,0,45
 .317,33.564,33.235\C,0,45.319,33.443,34.787\C,0,44.401,34.28,35.595\O,

 Normal termination of Gaussian 16 at Wed May  4 03:26:14 2022.
