 Gaussian 16, Revision A.03,
 Gaussian 16:  ES64L-G16RevA.03 25-Dec-2016

 ------------------------------
 #p blyp/Def2SVP td=(nstates=5)
 ------------------------------

 -------------------------------------------------
 step_801_chromophore_6 TDDFT with blyp functional
 -------------------------------------------------
 Symbolic Z-matrix:
 Charge =  0 Multiplicity = 1

                         Standard orientation:
 ---------------------------------------------------------------------
 Center     Atomic      Atomic             Coordinates (Angstroms)
 Number     Number       Type             X           Y           Z
 ---------------------------------------------------------------------
      1         12           0        5.113619    1.024298    0.112233
      2          6           0        4.298306   -2.479977    0.311980
      3          6           0        1.889855    1.787658   -0.227286
      4          6           0        6.053066    4.216521    0.123406
      5          6           0        8.358076   -0.026372   -0.190030
      6          7           0        3.367561   -0.270791   -0.205507
      7          6           0        3.233841   -1.616963   -0.031831
      8          6           0        1.744350   -1.936648   -0.021117
      9          6           0        1.013586   -0.617378   -0.305357
     10          6           0        2.165945    0.398429   -0.126107
     11          6           0        0.277333   -0.624690   -1.736412
     12          6           0        1.268782   -2.642228    1.276960
     13          6           0        0.356983   -3.865306    1.202285
     14          6           0       -0.707609   -3.934284    0.198810
     15          8           0       -0.599888   -4.118501   -0.997130
     16          8           0       -1.977199   -3.868954    0.816731
     17          7           0        4.030077    2.779164    0.103879
     18          6           0        2.723241    2.885914   -0.106387
     19          6           0        2.341115    4.302923   -0.124322
     20          6           0        3.530513    5.078513   -0.076521
     21          6           0        4.625178    4.046595    0.112485
     22          6           0        0.916836    4.713834    0.003783
     23          6           0        3.771586    6.658478   -0.142446
     24          8           0        4.878461    7.177815   -0.015057
     25          6           0        2.563723    7.548276   -0.290692
     26          7           0        6.954571    1.970014   -0.105950
     27          6           0        7.096838    3.292926   -0.007887
     28          6           0        8.582860    3.746877   -0.267964
     29          6           0        9.344210    2.351036   -0.270743
     30          6           0        8.173252    1.347633   -0.274422
     31          6           0        8.916563    4.728423   -1.354818
     32          6           0       10.438352    2.127026    0.840868
     33          6           0       11.853349    2.348897    0.352208
     34          7           0        6.225706   -0.865007    0.035400
     35          6           0        7.538624   -1.061343    0.034317
     36          6           0        7.872300   -2.427770    0.227260
     37          6           0        6.629890   -3.074262    0.283029
     38          6           0        5.601804   -2.051194    0.184261
     39          6           0        9.308659   -2.942048    0.314121
     40          6           0        5.939973   -4.333679    0.394004
     41          8           0        6.306453   -5.499078    0.565491
     42          6           0        4.417602   -3.941903    0.466119
     43          6           0        3.665579   -4.676123   -0.602464
     44          8           0        3.465831   -4.295164   -1.777136
     45          8           0        3.403314   -5.915687   -0.142159
     46          6           0        2.854780   -6.807202   -1.256211
     47          6           0       -3.131163   -3.859056   -0.074303
     48          6           0       -4.265378   -3.295522    0.678964
     49          6           0       -5.578903   -3.314884    0.418569
     50          6           0       -6.087603   -3.952191   -0.851147
     51          6           0       -6.615073   -2.690644    1.363887
     52          6           0       -6.921977   -1.228440    0.923010
     53          6           0       -7.699636   -0.530089    2.054971
     54          6           0       -7.482262    0.965818    2.101285
     55          6           0       -8.116878    1.539717    3.429960
     56          6           0       -7.961218    1.721107    0.782647
     57          6           0       -9.399388    1.367468    0.367937
     58          6           0       -9.510086    1.027147   -1.096695
     59          6           0      -10.827996    0.167150   -1.365873
     60          6           0      -10.734548   -1.080927   -2.263896
     61          6           0      -11.847275    1.256496   -2.025458
     62          6           0      -13.337753    0.957669   -1.655989
     63          6           0      -13.666890    1.322660   -0.152256
     64          6           0      -14.587961    2.594265   -0.084761
     65          6           0      -15.998484    2.248302   -0.618865
     66          6           0      -14.713277    3.271827    1.327773
     67          1           0        0.819222    2.002428   -0.205624
     68          1           0        6.441509    5.233502    0.035490
     69          1           0        9.410690   -0.282225   -0.326720
     70          1           0        1.741396   -2.595221   -0.889931
     71          1           0        0.273974   -0.518528    0.490116
     72          1           0       -0.744391   -1.006413   -1.735380
     73          1           0        0.779197   -1.269249   -2.459052
     74          1           0        0.250849    0.395605   -2.119194
     75          1           0        0.578063   -1.949293    1.758315
     76          1           0        2.121637   -2.797994    1.936871
     77          1           0       -0.181450   -4.097592    2.120871
     78          1           0        0.994936   -4.748914    1.235226
     79          1           0        0.464108    4.431983   -0.947211
     80          1           0        0.608359    5.757514    0.066113
     81          1           0        0.329748    4.125817    0.708730
     82          1           0        2.820541    8.601294   -0.408956
     83          1           0        2.010101    7.381110    0.632643
     84          1           0        2.028577    7.159481   -1.156100
     85          1           0        8.853806    4.271818    0.647790
     86          1           0        9.929928    2.319497   -1.189581
     87          1           0        8.031463    4.936770   -1.955972
     88          1           0        9.583843    4.287810   -2.095484
     89          1           0        9.299305    5.646171   -0.910103
     90          1           0       10.275539    1.115617    1.210816
     91          1           0       10.285434    2.749646    1.722268
     92          1           0       11.929034    2.758927   -0.654951
     93          1           0       12.385546    1.399068    0.297328
     94          1           0       12.278501    3.092514    1.025979
     95          1           0        9.792272   -3.084828   -0.651418
     96          1           0        9.127321   -3.944014    0.702742
     97          1           0        9.996393   -2.421555    0.981055
     98          1           0        4.169313   -4.327800    1.454887
     99          1           0        3.577050   -7.599159   -1.450212
    100          1           0        2.579246   -6.344874   -2.203664
    101          1           0        2.009250   -7.386835   -0.886189
    102          1           0       -3.269794   -4.900507   -0.365406
    103          1           0       -2.987209   -3.231034   -0.953615
    104          1           0       -3.917084   -2.794049    1.582533
    105          1           0       -5.257032   -4.318351   -1.454342
    106          1           0       -6.638985   -3.142215   -1.329238
    107          1           0       -6.663510   -4.843379   -0.602385
    108          1           0       -6.326566   -2.766687    2.412377
    109          1           0       -7.448002   -3.370212    1.183527
    110          1           0       -7.499449   -1.091272    0.008500
    111          1           0       -5.989683   -0.710385    0.697200
    112          1           0       -7.345018   -0.865741    3.030423
    113          1           0       -8.755121   -0.779806    1.948786
    114          1           0       -6.421203    1.196281    2.188836
    115          1           0       -7.475732    1.344574    4.289201
    116          1           0       -9.056132    1.003371    3.562356
    117          1           0       -8.159668    2.623399    3.324186
    118          1           0       -7.364458    1.336149   -0.043596
    119          1           0       -7.878971    2.804567    0.863803
    120          1           0      -10.084881    2.211336    0.448458
    121          1           0       -9.890371    0.591986    0.955522
    122          1           0       -8.636546    0.443437   -1.386197
    123          1           0       -9.497341    1.967682   -1.646896
    124          1           0      -11.300937   -0.199321   -0.454444
    125          1           0      -11.417093   -1.131568   -3.112637
    126          1           0      -10.805342   -1.920426   -1.572867
    127          1           0       -9.768268   -1.111322   -2.766872
    128          1           0      -11.669263    1.160596   -3.095802
    129          1           0      -11.692039    2.298812   -1.746167
    130          1           0      -13.687764   -0.043898   -1.905396
    131          1           0      -13.900944    1.604911   -2.328863
    132          1           0      -12.724201    1.459772    0.376685
    133          1           0      -14.122894    0.437236    0.290204
    134          1           0      -14.334057    3.362308   -0.814839
    135          1           0      -15.990335    1.224961   -0.995224
    136          1           0      -16.360475    2.890564   -1.421384
    137          1           0      -16.712183    2.150565    0.199660
    138          1           0      -13.897399    2.920140    1.958609
    139          1           0      -15.655713    3.071409    1.837887
    140          1           0      -14.526800    4.344563    1.272584
 ---------------------------------------------------------------------

 SCF Done:  E(RB-LYP) =  -3007.37893806     A.U. after   21 cycles

 Excitation energies and oscillator strengths:

 Excited State   1:      Singlet-A      1.7876 eV  693.59 nm  f=0.3223  <S**2>=0.000
     245 -> 248        0.18972
     246 -> 247        0.69008
     246 <- 247       -0.15190
 This state for optimization and/or second-order correction.
 Total Energy, E(TD-HF/TD-DFT) =  -3007.31324578
 Copying the excited state density for this state as the 1-particle RhoCI density.

 Excited State   2:      Singlet-A      1.9380 eV  639.77 nm  f=0.0504  <S**2>=0.000
     244 -> 247        0.27045
     245 -> 247        0.61294
     246 -> 248       -0.20056

 Excited State   3:      Singlet-A      2.1150 eV  586.20 nm  f=0.0096  <S**2>=0.000
     244 -> 247        0.64673
     245 -> 247       -0.22659
     246 -> 248        0.15822

 Excited State   4:      Singlet-A      2.1976 eV  564.17 nm  f=0.0001  <S**2>=0.000
     243 -> 247        0.70599

 Excited State   5:      Singlet-A      2.2924 eV  540.86 nm  f=0.0001  <S**2>=0.000
     242 -> 247        0.70704

 The electronic state is 1-A.
 Alpha  occ. eigenvalues --  -46.27041 -18.82555 -18.81484 -18.77136 -18.76528
 Alpha  occ. eigenvalues --  -18.75930 -18.75689 -14.03172 -14.03042 -14.01353
 Alpha  occ. eigenvalues --  -13.99789 -10.04056 -10.03407 -10.01080  -9.99564
 Alpha  occ. eigenvalues --   -9.97493  -9.96918  -9.96726  -9.96676  -9.96587
 Alpha  occ. eigenvalues --   -9.96243  -9.96135  -9.95437  -9.94393  -9.93966
 Alpha  occ. eigenvalues --   -9.93884  -9.93713  -9.93695  -9.93689  -9.93616
 Alpha  occ. eigenvalues --   -9.93600  -9.93446  -9.93334  -9.93245  -9.93195
 Alpha  occ. eigenvalues --   -9.92865  -9.92713  -9.92629  -9.92607  -9.92477
 Alpha  occ. eigenvalues --   -9.92441  -9.92365  -9.92358  -9.92355  -9.92325
 Alpha  occ. eigenvalues --   -9.92242  -9.92236  -9.92154  -9.92041  -9.91949
 Alpha  occ. eigenvalues --   -9.91917  -9.91783  -9.91620  -9.91545  -9.91471
 Alpha  occ. eigenvalues --   -9.91454  -9.91274  -9.91270  -9.91203  -9.91194
 Alpha  occ. eigenvalues --   -9.91185  -9.91124  -9.90841  -9.90803  -9.90701
 Alpha  occ. eigenvalues --   -9.90424  -2.91649  -1.72088  -1.71500  -1.71384
 Alpha  occ. eigenvalues --   -0.97218  -0.97082  -0.91780  -0.90634  -0.89862
 Alpha  occ. eigenvalues --   -0.87995  -0.86856  -0.85922  -0.85648  -0.84929
 Alpha  occ. eigenvalues --   -0.76174  -0.73880  -0.73111  -0.72601  -0.72182
 Alpha  occ. eigenvalues --   -0.71698  -0.71533  -0.70667  -0.70503  -0.70499
 Alpha  occ. eigenvalues --   -0.69758  -0.69140  -0.67917  -0.67887  -0.67184
 Alpha  occ. eigenvalues --   -0.66398  -0.66224  -0.65282  -0.64785  -0.64716
 Alpha  occ. eigenvalues --   -0.64283  -0.62564  -0.62089  -0.61905  -0.60515
 Alpha  occ. eigenvalues --   -0.60296  -0.59926  -0.59875  -0.59641  -0.58535
 Alpha  occ. eigenvalues --   -0.58158  -0.57580  -0.56941  -0.55679  -0.54370
 Alpha  occ. eigenvalues --   -0.54275  -0.53600  -0.53097  -0.52513  -0.51524
 Alpha  occ. eigenvalues --   -0.51419  -0.51146  -0.50895  -0.50392  -0.50119
 Alpha  occ. eigenvalues --   -0.49537  -0.48571  -0.48198  -0.47682  -0.46570
 Alpha  occ. eigenvalues --   -0.46483  -0.45793  -0.45489  -0.44992  -0.44459
 Alpha  occ. eigenvalues --   -0.44382  -0.43526  -0.43024  -0.42887  -0.42333
 Alpha  occ. eigenvalues --   -0.42223  -0.41529  -0.41266  -0.41116  -0.41004
 Alpha  occ. eigenvalues --   -0.40846  -0.40532  -0.40340  -0.40288  -0.39899
 Alpha  occ. eigenvalues --   -0.39800  -0.39582  -0.39476  -0.39239  -0.39076
 Alpha  occ. eigenvalues --   -0.38917  -0.38651  -0.38338  -0.38269  -0.38199
 Alpha  occ. eigenvalues --   -0.37936  -0.37853  -0.37693  -0.37186  -0.37059
 Alpha  occ. eigenvalues --   -0.36867  -0.36842  -0.36739  -0.36394  -0.36320
 Alpha  occ. eigenvalues --   -0.36264  -0.36143  -0.35935  -0.35560  -0.35472
 Alpha  occ. eigenvalues --   -0.35157  -0.35131  -0.35019  -0.34913  -0.34881
 Alpha  occ. eigenvalues --   -0.34665  -0.34265  -0.34059  -0.33895  -0.33873
 Alpha  occ. eigenvalues --   -0.33507  -0.33315  -0.33211  -0.33138  -0.33000
 Alpha  occ. eigenvalues --   -0.32828  -0.32679  -0.32567  -0.32364  -0.32123
 Alpha  occ. eigenvalues --   -0.31994  -0.31810  -0.31647  -0.31615  -0.31497
 Alpha  occ. eigenvalues --   -0.31167  -0.31046  -0.30854  -0.30712  -0.30614
 Alpha  occ. eigenvalues --   -0.30485  -0.30298  -0.30228  -0.30147  -0.29981
 Alpha  occ. eigenvalues --   -0.29822  -0.29520  -0.29225  -0.29066  -0.28926
 Alpha  occ. eigenvalues --   -0.28719  -0.28443  -0.28089  -0.28057  -0.27663
 Alpha  occ. eigenvalues --   -0.27420  -0.27226  -0.27151  -0.26632  -0.26420
 Alpha  occ. eigenvalues --   -0.26394  -0.26261  -0.25878  -0.25801  -0.25555
 Alpha  occ. eigenvalues --   -0.25236  -0.25022  -0.24529  -0.23938  -0.23209
 Alpha  occ. eigenvalues --   -0.22760  -0.22107  -0.21779  -0.21255  -0.20998
 Alpha  occ. eigenvalues --   -0.20420  -0.19764  -0.19331  -0.18838  -0.17143
 Alpha  occ. eigenvalues --   -0.15539
 Alpha virt. eigenvalues --   -0.11340  -0.06788  -0.06511  -0.04899  -0.03683
 Alpha virt. eigenvalues --   -0.02381  -0.01910  -0.01648  -0.00812   0.00419
 Alpha virt. eigenvalues --    0.01472   0.01744   0.01808   0.02777   0.03008

 Mulliken charges:
               1
     1  Mg   0.679071
     2  C    0.016607
     3  C   -0.058984
     4  C   -0.023287
     5  C   -0.096367
     6  N   -0.228082
     7  C   -0.070152
     8  C    0.022934
     9  C    0.023394
    10  C    0.020915
    11  C    0.110827
    12  C    0.123658
    13  C    0.133664
    14  C    0.086086
    15  O   -0.181363
    16  O   -0.304251
    17  N   -0.293386
    18  C    0.139451
    19  C   -0.108328
    20  C   -0.010901
    21  C    0.089554
    22  C    0.155849
    23  C   -0.047499
    24  O   -0.153620
    25  C    0.128036
    26  N   -0.230935
    27  C    0.000840
    28  C    0.007266
    29  C    0.027734
    30  C    0.016481
    31  C    0.156939
    32  C    0.080979
    33  C    0.067816
    34  N   -0.184436
    35  C    0.143139
    36  C   -0.166140
    37  C    0.092850
    38  C    0.025230
    39  C    0.160781
    40  C   -0.057724
    41  O   -0.133709
    42  C    0.055892
    43  C    0.127372
    44  O   -0.216376
    45  O   -0.252660
    46  C    0.198419
    47  C    0.327830
    48  C   -0.119763
    49  C   -0.185494
    50  C    0.148323
    51  C    0.174081
    52  C    0.062679
    53  C    0.109075
    54  C   -0.073822
    55  C    0.102518
    56  C    0.130991
    57  C    0.033061
    58  C    0.100520
    59  C   -0.096195
    60  C    0.120338
    61  C    0.057730
    62  C    0.055567
    63  C    0.100797
    64  C   -0.093417
    65  C    0.091851
    66  C    0.113158
    67  H   -0.059884
    68  H   -0.048304
    69  H   -0.067751
    70  H    0.012333
    71  H   -0.032480
    72  H   -0.004845
    73  H    0.009107
    74  H   -0.018087
    75  H   -0.021994
    76  H   -0.015703
    77  H   -0.020472
    78  H   -0.000986
    79  H   -0.011882
    80  H   -0.019564
    81  H    0.004839
    82  H    0.000815
    83  H    0.026188
    84  H    0.013756
    85  H   -0.025273
    86  H   -0.029821
    87  H   -0.009631
    88  H   -0.018027
    89  H    0.001398
    90  H   -0.027711
    91  H   -0.025515
    92  H   -0.010971
    93  H   -0.001312
    94  H   -0.003603
    95  H    0.003753
    96  H    0.003009
    97  H    0.000421
    98  H    0.001008
    99  H    0.015740
   100  H    0.048342
   101  H    0.007255
   102  H    0.000381
   103  H    0.010917
   104  H   -0.045788
   105  H   -0.018125
   106  H    0.004804
   107  H    0.002661
   108  H   -0.021771
   109  H   -0.039129
   110  H   -0.024405
   111  H   -0.028298
   112  H   -0.036397
   113  H   -0.030964
   114  H   -0.045213
   115  H   -0.015461
   116  H   -0.009459
   117  H   -0.018662
   118  H   -0.033116
   119  H   -0.029602
   120  H   -0.036277
   121  H   -0.026522
   122  H   -0.040659
   123  H   -0.023979
   124  H   -0.028678
   125  H   -0.009954
   126  H   -0.010016
   127  H   -0.027799
   128  H   -0.032404
   129  H   -0.025204
   130  H   -0.034571
   131  H   -0.032504
   132  H   -0.023574
   133  H   -0.030651
   134  H   -0.029350
   135  H   -0.028868
   136  H   -0.007468
   137  H   -0.026306
   138  H   -0.028977
   139  H   -0.009332
   140  H   -0.016843
 Sum of Mulliken charges =  -0.00000

 Dipole moment (field-independent basis, Debye):
    X=             -3.1714    Y=              2.5803    Z=              1.3267  Tot=              4.2984
 Quadrupole moment (field-independent basis, Debye-Ang):
   XX=           -382.5897   YY=           -424.3741   ZZ=           -408.1669
   XY=             19.2419   XZ=              4.7596   YZ=             -4.2727

 Normal termination of Gaussian 16 at Thu May  5 10:59:44 2022.
