 Gaussian 16, Revision A.03,
 Gaussian 16:  ES64L-G16RevA.03 25-Dec-2016

 -----------------------------------
 #p cam-b3lyp/Def2SVP td=(nstates=5)
 -----------------------------------

 ------------------------------------------------------
 step_801_chromophore_6 TDDFT with cam-b3lyp functional
 ------------------------------------------------------
 Symbolic Z-matrix:
 Charge =  0 Multiplicity = 1

                         Standard orientation:
 ---------------------------------------------------------------------
 Center     Atomic      Atomic             Coordinates (Angstroms)
 Number     Number       Type             X           Y           Z
 ---------------------------------------------------------------------
      1         12           0        5.113619    1.024298    0.112233
      2          6           0        4.298306   -2.479977    0.311980
      3          6           0        1.889855    1.787658   -0.227286
      4          6           0        6.053066    4.216521    0.123406
      5          6           0        8.358076   -0.026372   -0.190030
      6          7           0        3.367561   -0.270791   -0.205507
      7          6           0        3.233841   -1.616963   -0.031831
      8          6           0        1.744350   -1.936648   -0.021117
      9          6           0        1.013586   -0.617378   -0.305357
     10          6           0        2.165945    0.398429   -0.126107
     11          6           0        0.277333   -0.624690   -1.736412
     12          6           0        1.268782   -2.642228    1.276960
     13          6           0        0.356983   -3.865306    1.202285
     14          6           0       -0.707609   -3.934284    0.198810
     15          8           0       -0.599888   -4.118501   -0.997130
     16          8           0       -1.977199   -3.868954    0.816731
     17          7           0        4.030077    2.779164    0.103879
     18          6           0        2.723241    2.885914   -0.106387
     19          6           0        2.341115    4.302923   -0.124322
     20          6           0        3.530513    5.078513   -0.076521
     21          6           0        4.625178    4.046595    0.112485
     22          6           0        0.916836    4.713834    0.003783
     23          6           0        3.771586    6.658478   -0.142446
     24          8           0        4.878461    7.177815   -0.015057
     25          6           0        2.563723    7.548276   -0.290692
     26          7           0        6.954571    1.970014   -0.105950
     27          6           0        7.096838    3.292926   -0.007887
     28          6           0        8.582860    3.746877   -0.267964
     29          6           0        9.344210    2.351036   -0.270743
     30          6           0        8.173252    1.347633   -0.274422
     31          6           0        8.916563    4.728423   -1.354818
     32          6           0       10.438352    2.127026    0.840868
     33          6           0       11.853349    2.348897    0.352208
     34          7           0        6.225706   -0.865007    0.035400
     35          6           0        7.538624   -1.061343    0.034317
     36          6           0        7.872300   -2.427770    0.227260
     37          6           0        6.629890   -3.074262    0.283029
     38          6           0        5.601804   -2.051194    0.184261
     39          6           0        9.308659   -2.942048    0.314121
     40          6           0        5.939973   -4.333679    0.394004
     41          8           0        6.306453   -5.499078    0.565491
     42          6           0        4.417602   -3.941903    0.466119
     43          6           0        3.665579   -4.676123   -0.602464
     44          8           0        3.465831   -4.295164   -1.777136
     45          8           0        3.403314   -5.915687   -0.142159
     46          6           0        2.854780   -6.807202   -1.256211
     47          6           0       -3.131163   -3.859056   -0.074303
     48          6           0       -4.265378   -3.295522    0.678964
     49          6           0       -5.578903   -3.314884    0.418569
     50          6           0       -6.087603   -3.952191   -0.851147
     51          6           0       -6.615073   -2.690644    1.363887
     52          6           0       -6.921977   -1.228440    0.923010
     53          6           0       -7.699636   -0.530089    2.054971
     54          6           0       -7.482262    0.965818    2.101285
     55          6           0       -8.116878    1.539717    3.429960
     56          6           0       -7.961218    1.721107    0.782647
     57          6           0       -9.399388    1.367468    0.367937
     58          6           0       -9.510086    1.027147   -1.096695
     59          6           0      -10.827996    0.167150   -1.365873
     60          6           0      -10.734548   -1.080927   -2.263896
     61          6           0      -11.847275    1.256496   -2.025458
     62          6           0      -13.337753    0.957669   -1.655989
     63          6           0      -13.666890    1.322660   -0.152256
     64          6           0      -14.587961    2.594265   -0.084761
     65          6           0      -15.998484    2.248302   -0.618865
     66          6           0      -14.713277    3.271827    1.327773
     67          1           0        0.819222    2.002428   -0.205624
     68          1           0        6.441509    5.233502    0.035490
     69          1           0        9.410690   -0.282225   -0.326720
     70          1           0        1.741396   -2.595221   -0.889931
     71          1           0        0.273974   -0.518528    0.490116
     72          1           0       -0.744391   -1.006413   -1.735380
     73          1           0        0.779197   -1.269249   -2.459052
     74          1           0        0.250849    0.395605   -2.119194
     75          1           0        0.578063   -1.949293    1.758315
     76          1           0        2.121637   -2.797994    1.936871
     77          1           0       -0.181450   -4.097592    2.120871
     78          1           0        0.994936   -4.748914    1.235226
     79          1           0        0.464108    4.431983   -0.947211
     80          1           0        0.608359    5.757514    0.066113
     81          1           0        0.329748    4.125817    0.708730
     82          1           0        2.820541    8.601294   -0.408956
     83          1           0        2.010101    7.381110    0.632643
     84          1           0        2.028577    7.159481   -1.156100
     85          1           0        8.853806    4.271818    0.647790
     86          1           0        9.929928    2.319497   -1.189581
     87          1           0        8.031463    4.936770   -1.955972
     88          1           0        9.583843    4.287810   -2.095484
     89          1           0        9.299305    5.646171   -0.910103
     90          1           0       10.275539    1.115617    1.210816
     91          1           0       10.285434    2.749646    1.722268
     92          1           0       11.929034    2.758927   -0.654951
     93          1           0       12.385546    1.399068    0.297328
     94          1           0       12.278501    3.092514    1.025979
     95          1           0        9.792272   -3.084828   -0.651418
     96          1           0        9.127321   -3.944014    0.702742
     97          1           0        9.996393   -2.421555    0.981055
     98          1           0        4.169313   -4.327800    1.454887
     99          1           0        3.577050   -7.599159   -1.450212
    100          1           0        2.579246   -6.344874   -2.203664
    101          1           0        2.009250   -7.386835   -0.886189
    102          1           0       -3.269794   -4.900507   -0.365406
    103          1           0       -2.987209   -3.231034   -0.953615
    104          1           0       -3.917084   -2.794049    1.582533
    105          1           0       -5.257032   -4.318351   -1.454342
    106          1           0       -6.638985   -3.142215   -1.329238
    107          1           0       -6.663510   -4.843379   -0.602385
    108          1           0       -6.326566   -2.766687    2.412377
    109          1           0       -7.448002   -3.370212    1.183527
    110          1           0       -7.499449   -1.091272    0.008500
    111          1           0       -5.989683   -0.710385    0.697200
    112          1           0       -7.345018   -0.865741    3.030423
    113          1           0       -8.755121   -0.779806    1.948786
    114          1           0       -6.421203    1.196281    2.188836
    115          1           0       -7.475732    1.344574    4.289201
    116          1           0       -9.056132    1.003371    3.562356
    117          1           0       -8.159668    2.623399    3.324186
    118          1           0       -7.364458    1.336149   -0.043596
    119          1           0       -7.878971    2.804567    0.863803
    120          1           0      -10.084881    2.211336    0.448458
    121          1           0       -9.890371    0.591986    0.955522
    122          1           0       -8.636546    0.443437   -1.386197
    123          1           0       -9.497341    1.967682   -1.646896
    124          1           0      -11.300937   -0.199321   -0.454444
    125          1           0      -11.417093   -1.131568   -3.112637
    126          1           0      -10.805342   -1.920426   -1.572867
    127          1           0       -9.768268   -1.111322   -2.766872
    128          1           0      -11.669263    1.160596   -3.095802
    129          1           0      -11.692039    2.298812   -1.746167
    130          1           0      -13.687764   -0.043898   -1.905396
    131          1           0      -13.900944    1.604911   -2.328863
    132          1           0      -12.724201    1.459772    0.376685
    133          1           0      -14.122894    0.437236    0.290204
    134          1           0      -14.334057    3.362308   -0.814839
    135          1           0      -15.990335    1.224961   -0.995224
    136          1           0      -16.360475    2.890564   -1.421384
    137          1           0      -16.712183    2.150565    0.199660
    138          1           0      -13.897399    2.920140    1.958609
    139          1           0      -15.655713    3.071409    1.837887
    140          1           0      -14.526800    4.344563    1.272584
 ---------------------------------------------------------------------

 SCF Done:  E(RCAM-B3LYP) =  -3007.17056885     A.U. after   17 cycles

 Excitation energies and oscillator strengths:

 Excited State   1:      Singlet-A      1.7012 eV  728.82 nm  f=0.3985  <S**2>=0.000
     245 -> 248        0.18456
     246 -> 247        0.68491
     245 <- 248        0.10921
 This state for optimization and/or second-order correction.
 Total Energy, E(TD-HF/TD-DFT) =  -3007.10805252
 Copying the excited state density for this state as the 1-particle RhoCI density.

 Excited State   2:      Singlet-A      2.2339 eV  555.01 nm  f=0.0693  <S**2>=0.000
     245 -> 247        0.62532
     246 -> 248       -0.32065

 Excited State   3:      Singlet-A      3.3978 eV  364.90 nm  f=0.3813  <S**2>=0.000
     241 -> 247        0.26251
     242 -> 247        0.11804
     243 -> 247        0.22250
     245 -> 247        0.23694
     246 -> 248        0.51105

 Excited State   4:      Singlet-A      3.5237 eV  351.86 nm  f=0.1272  <S**2>=0.000
     240 -> 247        0.15830
     241 -> 247        0.24269
     241 -> 249        0.19021
     241 -> 250        0.12515
     242 -> 247        0.42824
     242 -> 249        0.16491
     242 -> 250        0.12354
     243 -> 247       -0.11797
     245 -> 247       -0.13422
     246 -> 248       -0.26715

 Excited State   5:      Singlet-A      3.5406 eV  350.18 nm  f=0.0791  <S**2>=0.000
     241 -> 247       -0.20167
     242 -> 247        0.17132
     243 -> 247        0.61426
     246 -> 248       -0.16081

 The electronic state is 1-A.
 Alpha  occ. eigenvalues --  -46.88589 -19.25521 -19.24334 -19.20217 -19.19900
 Alpha  occ. eigenvalues --  -19.18984 -19.18699 -14.41988 -14.41950 -14.39942
 Alpha  occ. eigenvalues --  -14.38059 -10.39439 -10.38916 -10.36491 -10.34844
 Alpha  occ. eigenvalues --  -10.31461 -10.31383 -10.31316 -10.31046 -10.30995
 Alpha  occ. eigenvalues --  -10.30720 -10.30332 -10.29937 -10.29203 -10.28664
 Alpha  occ. eigenvalues --  -10.28121 -10.27849 -10.27726 -10.27688 -10.27566
 Alpha  occ. eigenvalues --  -10.27543 -10.27535 -10.27357 -10.27203 -10.27163
 Alpha  occ. eigenvalues --  -10.26911 -10.26795 -10.26757 -10.26567 -10.26510
 Alpha  occ. eigenvalues --  -10.26371 -10.26235 -10.26231 -10.26106 -10.26079
 Alpha  occ. eigenvalues --  -10.26033 -10.25939 -10.25899 -10.25752 -10.25665
 Alpha  occ. eigenvalues --  -10.25560 -10.25550 -10.25355 -10.25326 -10.25243
 Alpha  occ. eigenvalues --  -10.25209 -10.25194 -10.24944 -10.24923 -10.24922
 Alpha  occ. eigenvalues --  -10.24798 -10.24773 -10.24748 -10.24459 -10.24373
 Alpha  occ. eigenvalues --  -10.24034  -3.17101  -1.92017  -1.91535  -1.91420
 Alpha  occ. eigenvalues --   -1.15708  -1.15582  -1.10320  -1.08861  -1.07726
 Alpha  occ. eigenvalues --   -1.05881  -1.04487  -1.03604  -1.03299  -1.02483
 Alpha  occ. eigenvalues --   -0.93286  -0.90798  -0.89933  -0.89403  -0.88837
 Alpha  occ. eigenvalues --   -0.88418  -0.88196  -0.87369  -0.87153  -0.87062
 Alpha  occ. eigenvalues --   -0.86228  -0.85501  -0.84154  -0.84060  -0.83386
 Alpha  occ. eigenvalues --   -0.82567  -0.82460  -0.81263  -0.80598  -0.80554
 Alpha  occ. eigenvalues --   -0.80065  -0.78331  -0.77734  -0.77394  -0.75891
 Alpha  occ. eigenvalues --   -0.75657  -0.75233  -0.75204  -0.74963  -0.73752
 Alpha  occ. eigenvalues --   -0.73218  -0.72585  -0.71840  -0.70501  -0.68904
 Alpha  occ. eigenvalues --   -0.68876  -0.68201  -0.67523  -0.67054  -0.65881
 Alpha  occ. eigenvalues --   -0.65511  -0.65286  -0.64886  -0.64412  -0.64216
 Alpha  occ. eigenvalues --   -0.63329  -0.62424  -0.61944  -0.61435  -0.60226
 Alpha  occ. eigenvalues --   -0.60176  -0.59361  -0.58963  -0.58282  -0.57987
 Alpha  occ. eigenvalues --   -0.57782  -0.56757  -0.56285  -0.56131  -0.55509
 Alpha  occ. eigenvalues --   -0.55329  -0.54656  -0.54267  -0.53992  -0.53930
 Alpha  occ. eigenvalues --   -0.53744  -0.53325  -0.53217  -0.53013  -0.52685
 Alpha  occ. eigenvalues --   -0.52626  -0.52294  -0.52168  -0.51905  -0.51627
 Alpha  occ. eigenvalues --   -0.51493  -0.51160  -0.50930  -0.50807  -0.50602
 Alpha  occ. eigenvalues --   -0.50578  -0.50406  -0.50180  -0.49411  -0.49342
 Alpha  occ. eigenvalues --   -0.49251  -0.49233  -0.48872  -0.48852  -0.48728
 Alpha  occ. eigenvalues --   -0.48442  -0.48353  -0.48220  -0.47837  -0.47543
 Alpha  occ. eigenvalues --   -0.47399  -0.47100  -0.46973  -0.46955  -0.46709
 Alpha  occ. eigenvalues --   -0.46511  -0.46180  -0.45915  -0.45807  -0.45599
 Alpha  occ. eigenvalues --   -0.45224  -0.44991  -0.44931  -0.44845  -0.44647
 Alpha  occ. eigenvalues --   -0.44566  -0.44364  -0.44249  -0.44040  -0.43876
 Alpha  occ. eigenvalues --   -0.43864  -0.43538  -0.43262  -0.43100  -0.42965
 Alpha  occ. eigenvalues --   -0.42906  -0.42746  -0.42504  -0.42307  -0.42100
 Alpha  occ. eigenvalues --   -0.42088  -0.41813  -0.41537  -0.41469  -0.41039
 Alpha  occ. eigenvalues --   -0.41013  -0.40820  -0.40471  -0.40278  -0.39960
 Alpha  occ. eigenvalues --   -0.39797  -0.39587  -0.39024  -0.38996  -0.38541
 Alpha  occ. eigenvalues --   -0.38487  -0.38257  -0.37963  -0.37368  -0.37138
 Alpha  occ. eigenvalues --   -0.37102  -0.36916  -0.36902  -0.36797  -0.36393
 Alpha  occ. eigenvalues --   -0.36189  -0.35924  -0.35874  -0.34122  -0.33770
 Alpha  occ. eigenvalues --   -0.33620  -0.33513  -0.33230  -0.31710  -0.31298
 Alpha  occ. eigenvalues --   -0.30527  -0.30317  -0.29630  -0.29436  -0.24022
 Alpha  occ. eigenvalues --   -0.20715
 Alpha virt. eigenvalues --   -0.08297  -0.01754  -0.00013   0.02076   0.03051
 Alpha virt. eigenvalues --    0.04050   0.05221   0.05362   0.06630   0.06713
 Alpha virt. eigenvalues --    0.07816   0.08198   0.08821   0.09151   0.09313

 Mulliken charges:
               1
     1  Mg   0.813172
     2  C   -0.006731
     3  C   -0.078216
     4  C   -0.044403
     5  C   -0.108391
     6  N   -0.299477
     7  C   -0.007621
     8  C   -0.047489
     9  C   -0.031482
    10  C    0.047018
    11  C    0.060315
    12  C    0.067488
    13  C    0.063027
    14  C    0.167220
    15  O   -0.218782
    16  O   -0.371058
    17  N   -0.382390
    18  C    0.150514
    19  C   -0.113319
    20  C   -0.067430
    21  C    0.113327
    22  C    0.086963
    23  C    0.032123
    24  O   -0.193215
    25  C    0.047289
    26  N   -0.305268
    27  C    0.023806
    28  C   -0.043683
    29  C   -0.022821
    30  C    0.037731
    31  C    0.090800
    32  C    0.024947
    33  C    0.005592
    34  N   -0.272921
    35  C    0.143503
    36  C   -0.156397
    37  C    0.006562
    38  C    0.056340
    39  C    0.111947
    40  C    0.045314
    41  O   -0.173708
    42  C   -0.023845
    43  C    0.209278
    44  O   -0.255799
    45  O   -0.314872
    46  C    0.161590
    47  C    0.293476
    48  C   -0.136068
    49  C   -0.212148
    50  C    0.089667
    51  C    0.115516
    52  C    0.015056
    53  C    0.050717
    54  C   -0.126870
    55  C    0.046635
    56  C    0.078092
    57  C   -0.021619
    58  C    0.051198
    59  C   -0.151593
    60  C    0.063747
    61  C    0.013545
    62  C    0.000755
    63  C    0.046996
    64  C   -0.152641
    65  C    0.032198
    66  C    0.054824
    67  H   -0.026015
    68  H   -0.008601
    69  H   -0.031599
    70  H    0.048581
    71  H    0.002312
    72  H    0.017871
    73  H    0.033825
    74  H    0.006238
    75  H    0.007751
    76  H    0.016469
    77  H    0.018563
    78  H    0.029957
    79  H    0.016323
    80  H    0.011256
    81  H    0.033797
    82  H    0.035653
    83  H    0.050453
    84  H    0.039154
    85  H    0.009262
    86  H    0.003814
    87  H    0.016742
    88  H    0.007419
    89  H    0.025921
    90  H    0.002417
    91  H    0.003194
    92  H    0.011151
    93  H    0.021559
    94  H    0.019719
    95  H    0.030503
    96  H    0.029787
    97  H    0.025018
    98  H    0.043079
    99  H    0.038537
   100  H    0.075211
   101  H    0.029037
   102  H    0.027333
   103  H    0.038151
   104  H   -0.009508
   105  H    0.006464
   106  H    0.026061
   107  H    0.026991
   108  H    0.009646
   109  H   -0.009293
   110  H   -0.002655
   111  H    0.000177
   112  H   -0.006939
   113  H   -0.002849
   114  H   -0.012251
   115  H    0.009095
   116  H    0.012068
   117  H    0.005852
   118  H   -0.005108
   119  H   -0.000019
   120  H   -0.008425
   121  H   -0.002400
   122  H   -0.016445
   123  H    0.004735
   124  H    0.000712
   125  H    0.014356
   126  H    0.012826
   127  H   -0.003578
   128  H   -0.004165
   129  H    0.000215
   130  H   -0.006582
   131  H   -0.004011
   132  H   -0.000159
   133  H   -0.001301
   134  H    0.001632
   135  H   -0.004546
   136  H    0.016509
   137  H   -0.001553
   138  H   -0.004541
   139  H    0.013528
   140  H    0.007588
 Sum of Mulliken charges =  -0.00000

 Dipole moment (field-independent basis, Debye):
    X=             -3.6316    Y=              3.1324    Z=              1.3535  Tot=              4.9832
 Quadrupole moment (field-independent basis, Debye-Ang):
   XX=           -383.9378   YY=           -420.1544   ZZ=           -408.2754
   XY=             20.5229   XZ=              5.0351   YZ=             -4.4668

 Normal termination of Gaussian 16 at Thu May  5 10:01:41 2022.
