 Gaussian 16, Revision A.03,
 Gaussian 16:  ES64L-G16RevA.03 25-Dec-2016

 ---------------------------------
 #p PBE1PBE/Def2SVP td=(nstates=5)
 ---------------------------------

 ----------------------------------------------------
 step_801_chromophore_6 TDDFT with PBE1PBE functional
 ----------------------------------------------------
 Symbolic Z-matrix:
 Charge =  0 Multiplicity = 1

                         Standard orientation:
 ---------------------------------------------------------------------
 Center     Atomic      Atomic             Coordinates (Angstroms)
 Number     Number       Type             X           Y           Z
 ---------------------------------------------------------------------
      1         12           0        5.113619    1.024298    0.112233
      2          6           0        4.298306   -2.479977    0.311980
      3          6           0        1.889855    1.787658   -0.227286
      4          6           0        6.053066    4.216521    0.123406
      5          6           0        8.358076   -0.026372   -0.190030
      6          7           0        3.367561   -0.270791   -0.205507
      7          6           0        3.233841   -1.616963   -0.031831
      8          6           0        1.744350   -1.936648   -0.021117
      9          6           0        1.013586   -0.617378   -0.305357
     10          6           0        2.165945    0.398429   -0.126107
     11          6           0        0.277333   -0.624690   -1.736412
     12          6           0        1.268782   -2.642228    1.276960
     13          6           0        0.356983   -3.865306    1.202285
     14          6           0       -0.707609   -3.934284    0.198810
     15          8           0       -0.599888   -4.118501   -0.997130
     16          8           0       -1.977199   -3.868954    0.816731
     17          7           0        4.030077    2.779164    0.103879
     18          6           0        2.723241    2.885914   -0.106387
     19          6           0        2.341115    4.302923   -0.124322
     20          6           0        3.530513    5.078513   -0.076521
     21          6           0        4.625178    4.046595    0.112485
     22          6           0        0.916836    4.713834    0.003783
     23          6           0        3.771586    6.658478   -0.142446
     24          8           0        4.878461    7.177815   -0.015057
     25          6           0        2.563723    7.548276   -0.290692
     26          7           0        6.954571    1.970014   -0.105950
     27          6           0        7.096838    3.292926   -0.007887
     28          6           0        8.582860    3.746877   -0.267964
     29          6           0        9.344210    2.351036   -0.270743
     30          6           0        8.173252    1.347633   -0.274422
     31          6           0        8.916563    4.728423   -1.354818
     32          6           0       10.438352    2.127026    0.840868
     33          6           0       11.853349    2.348897    0.352208
     34          7           0        6.225706   -0.865007    0.035400
     35          6           0        7.538624   -1.061343    0.034317
     36          6           0        7.872300   -2.427770    0.227260
     37          6           0        6.629890   -3.074262    0.283029
     38          6           0        5.601804   -2.051194    0.184261
     39          6           0        9.308659   -2.942048    0.314121
     40          6           0        5.939973   -4.333679    0.394004
     41          8           0        6.306453   -5.499078    0.565491
     42          6           0        4.417602   -3.941903    0.466119
     43          6           0        3.665579   -4.676123   -0.602464
     44          8           0        3.465831   -4.295164   -1.777136
     45          8           0        3.403314   -5.915687   -0.142159
     46          6           0        2.854780   -6.807202   -1.256211
     47          6           0       -3.131163   -3.859056   -0.074303
     48          6           0       -4.265378   -3.295522    0.678964
     49          6           0       -5.578903   -3.314884    0.418569
     50          6           0       -6.087603   -3.952191   -0.851147
     51          6           0       -6.615073   -2.690644    1.363887
     52          6           0       -6.921977   -1.228440    0.923010
     53          6           0       -7.699636   -0.530089    2.054971
     54          6           0       -7.482262    0.965818    2.101285
     55          6           0       -8.116878    1.539717    3.429960
     56          6           0       -7.961218    1.721107    0.782647
     57          6           0       -9.399388    1.367468    0.367937
     58          6           0       -9.510086    1.027147   -1.096695
     59          6           0      -10.827996    0.167150   -1.365873
     60          6           0      -10.734548   -1.080927   -2.263896
     61          6           0      -11.847275    1.256496   -2.025458
     62          6           0      -13.337753    0.957669   -1.655989
     63          6           0      -13.666890    1.322660   -0.152256
     64          6           0      -14.587961    2.594265   -0.084761
     65          6           0      -15.998484    2.248302   -0.618865
     66          6           0      -14.713277    3.271827    1.327773
     67          1           0        0.819222    2.002428   -0.205624
     68          1           0        6.441509    5.233502    0.035490
     69          1           0        9.410690   -0.282225   -0.326720
     70          1           0        1.741396   -2.595221   -0.889931
     71          1           0        0.273974   -0.518528    0.490116
     72          1           0       -0.744391   -1.006413   -1.735380
     73          1           0        0.779197   -1.269249   -2.459052
     74          1           0        0.250849    0.395605   -2.119194
     75          1           0        0.578063   -1.949293    1.758315
     76          1           0        2.121637   -2.797994    1.936871
     77          1           0       -0.181450   -4.097592    2.120871
     78          1           0        0.994936   -4.748914    1.235226
     79          1           0        0.464108    4.431983   -0.947211
     80          1           0        0.608359    5.757514    0.066113
     81          1           0        0.329748    4.125817    0.708730
     82          1           0        2.820541    8.601294   -0.408956
     83          1           0        2.010101    7.381110    0.632643
     84          1           0        2.028577    7.159481   -1.156100
     85          1           0        8.853806    4.271818    0.647790
     86          1           0        9.929928    2.319497   -1.189581
     87          1           0        8.031463    4.936770   -1.955972
     88          1           0        9.583843    4.287810   -2.095484
     89          1           0        9.299305    5.646171   -0.910103
     90          1           0       10.275539    1.115617    1.210816
     91          1           0       10.285434    2.749646    1.722268
     92          1           0       11.929034    2.758927   -0.654951
     93          1           0       12.385546    1.399068    0.297328
     94          1           0       12.278501    3.092514    1.025979
     95          1           0        9.792272   -3.084828   -0.651418
     96          1           0        9.127321   -3.944014    0.702742
     97          1           0        9.996393   -2.421555    0.981055
     98          1           0        4.169313   -4.327800    1.454887
     99          1           0        3.577050   -7.599159   -1.450212
    100          1           0        2.579246   -6.344874   -2.203664
    101          1           0        2.009250   -7.386835   -0.886189
    102          1           0       -3.269794   -4.900507   -0.365406
    103          1           0       -2.987209   -3.231034   -0.953615
    104          1           0       -3.917084   -2.794049    1.582533
    105          1           0       -5.257032   -4.318351   -1.454342
    106          1           0       -6.638985   -3.142215   -1.329238
    107          1           0       -6.663510   -4.843379   -0.602385
    108          1           0       -6.326566   -2.766687    2.412377
    109          1           0       -7.448002   -3.370212    1.183527
    110          1           0       -7.499449   -1.091272    0.008500
    111          1           0       -5.989683   -0.710385    0.697200
    112          1           0       -7.345018   -0.865741    3.030423
    113          1           0       -8.755121   -0.779806    1.948786
    114          1           0       -6.421203    1.196281    2.188836
    115          1           0       -7.475732    1.344574    4.289201
    116          1           0       -9.056132    1.003371    3.562356
    117          1           0       -8.159668    2.623399    3.324186
    118          1           0       -7.364458    1.336149   -0.043596
    119          1           0       -7.878971    2.804567    0.863803
    120          1           0      -10.084881    2.211336    0.448458
    121          1           0       -9.890371    0.591986    0.955522
    122          1           0       -8.636546    0.443437   -1.386197
    123          1           0       -9.497341    1.967682   -1.646896
    124          1           0      -11.300937   -0.199321   -0.454444
    125          1           0      -11.417093   -1.131568   -3.112637
    126          1           0      -10.805342   -1.920426   -1.572867
    127          1           0       -9.768268   -1.111322   -2.766872
    128          1           0      -11.669263    1.160596   -3.095802
    129          1           0      -11.692039    2.298812   -1.746167
    130          1           0      -13.687764   -0.043898   -1.905396
    131          1           0      -13.900944    1.604911   -2.328863
    132          1           0      -12.724201    1.459772    0.376685
    133          1           0      -14.122894    0.437236    0.290204
    134          1           0      -14.334057    3.362308   -0.814839
    135          1           0      -15.990335    1.224961   -0.995224
    136          1           0      -16.360475    2.890564   -1.421384
    137          1           0      -16.712183    2.150565    0.199660
    138          1           0      -13.897399    2.920140    1.958609
    139          1           0      -15.655713    3.071409    1.837887
    140          1           0      -14.526800    4.344563    1.272584
 ---------------------------------------------------------------------

 SCF Done:  E(RPBE1PBE) =  -3005.36010065     A.U. after   15 cycles

 Excitation energies and oscillator strengths:

 Excited State   1:      Singlet-A      1.8455 eV  671.82 nm  f=0.3883  <S**2>=0.000
     245 -> 248        0.17760
     246 -> 247        0.69277
     246 <- 247       -0.10820
 This state for optimization and/or second-order correction.
 Total Energy, E(TD-HF/TD-DFT) =  -3005.29227944
 Copying the excited state density for this state as the 1-particle RhoCI density.

 Excited State   2:      Singlet-A      2.2211 eV  558.21 nm  f=0.0748  <S**2>=0.000
     245 -> 247        0.64453
     246 -> 248       -0.28019

 Excited State   3:      Singlet-A      3.0235 eV  410.06 nm  f=0.0140  <S**2>=0.000
     242 -> 247        0.62437
     242 -> 249       -0.16294
     243 -> 247        0.13853
     246 -> 248        0.16115

 Excited State   4:      Singlet-A      3.1642 eV  391.83 nm  f=0.0097  <S**2>=0.000
     242 -> 247       -0.16068
     243 -> 247        0.65522
     246 -> 248        0.15842

 Excited State   5:      Singlet-A      3.2642 eV  379.83 nm  f=0.1470  <S**2>=0.000
     241 -> 247        0.46321
     242 -> 247       -0.15666
     245 -> 247        0.15213
     246 -> 248        0.42823
     246 -> 249        0.12576

 The electronic state is 1-A.
 Alpha  occ. eigenvalues --  -46.91972 -19.26171 -19.25056 -19.20435 -19.20020
 Alpha  occ. eigenvalues --  -19.19272 -19.19039 -14.41557 -14.41423 -14.39530
 Alpha  occ. eigenvalues --  -14.37749 -10.36432 -10.35928 -10.33573 -10.32059
 Alpha  occ. eigenvalues --  -10.29045 -10.28974 -10.28859 -10.28856 -10.28405
 Alpha  occ. eigenvalues --  -10.28249 -10.28215 -10.27458 -10.26750 -10.26282
 Alpha  occ. eigenvalues --  -10.25910 -10.25541 -10.25518 -10.25476 -10.25442
 Alpha  occ. eigenvalues --  -10.25338 -10.25182 -10.25177 -10.24785 -10.24644
 Alpha  occ. eigenvalues --  -10.24563 -10.24452 -10.24417 -10.24111 -10.24034
 Alpha  occ. eigenvalues --  -10.23981 -10.23975 -10.23793 -10.23791 -10.23762
 Alpha  occ. eigenvalues --  -10.23652 -10.23524 -10.23302 -10.23279 -10.23144
 Alpha  occ. eigenvalues --  -10.23143 -10.23070 -10.23022 -10.22925 -10.22848
 Alpha  occ. eigenvalues --  -10.22788 -10.22770 -10.22512 -10.22493 -10.22488
 Alpha  occ. eigenvalues --  -10.22275 -10.22193 -10.22177 -10.21904 -10.21850
 Alpha  occ. eigenvalues --  -10.21428  -3.14066  -1.86923  -1.86418  -1.86306
 Alpha  occ. eigenvalues --   -1.10483  -1.10348  -1.04969  -1.03684  -1.02581
 Alpha  occ. eigenvalues --   -1.00684  -0.99214  -0.98242  -0.97916  -0.97139
 Alpha  occ. eigenvalues --   -0.87730  -0.84912  -0.84099  -0.83542  -0.83139
 Alpha  occ. eigenvalues --   -0.82498  -0.82487  -0.81579  -0.81493  -0.81171
 Alpha  occ. eigenvalues --   -0.80608  -0.79769  -0.78383  -0.78319  -0.77668
 Alpha  occ. eigenvalues --   -0.76709  -0.76620  -0.75544  -0.74902  -0.74792
 Alpha  occ. eigenvalues --   -0.74255  -0.72615  -0.71992  -0.71735  -0.70216
 Alpha  occ. eigenvalues --   -0.69820  -0.69563  -0.69322  -0.69094  -0.67908
 Alpha  occ. eigenvalues --   -0.67590  -0.67016  -0.66304  -0.64807  -0.63434
 Alpha  occ. eigenvalues --   -0.63241  -0.62400  -0.61714  -0.61436  -0.60022
 Alpha  occ. eigenvalues --   -0.59947  -0.59748  -0.59477  -0.58976  -0.58352
 Alpha  occ. eigenvalues --   -0.57820  -0.56630  -0.56551  -0.55698  -0.54739
 Alpha  occ. eigenvalues --   -0.54572  -0.53959  -0.53564  -0.52838  -0.52506
 Alpha  occ. eigenvalues --   -0.52358  -0.51202  -0.50841  -0.50521  -0.50030
 Alpha  occ. eigenvalues --   -0.49786  -0.49301  -0.48801  -0.48541  -0.48347
 Alpha  occ. eigenvalues --   -0.48261  -0.47901  -0.47730  -0.47544  -0.47237
 Alpha  occ. eigenvalues --   -0.46963  -0.46809  -0.46679  -0.46393  -0.46219
 Alpha  occ. eigenvalues --   -0.46032  -0.45685  -0.45506  -0.45312  -0.45200
 Alpha  occ. eigenvalues --   -0.45115  -0.44927  -0.44687  -0.44031  -0.43941
 Alpha  occ. eigenvalues --   -0.43859  -0.43790  -0.43512  -0.43456  -0.43305
 Alpha  occ. eigenvalues --   -0.43095  -0.42982  -0.42784  -0.42470  -0.42218
 Alpha  occ. eigenvalues --   -0.42041  -0.41764  -0.41630  -0.41594  -0.41356
 Alpha  occ. eigenvalues --   -0.41220  -0.40899  -0.40716  -0.40525  -0.40151
 Alpha  occ. eigenvalues --   -0.39997  -0.39758  -0.39702  -0.39526  -0.39387
 Alpha  occ. eigenvalues --   -0.39207  -0.39114  -0.39030  -0.38708  -0.38576
 Alpha  occ. eigenvalues --   -0.38515  -0.38379  -0.38054  -0.37865  -0.37743
 Alpha  occ. eigenvalues --   -0.37671  -0.37495  -0.37256  -0.37114  -0.37009
 Alpha  occ. eigenvalues --   -0.36793  -0.36722  -0.36413  -0.36179  -0.35947
 Alpha  occ. eigenvalues --   -0.35787  -0.35655  -0.35309  -0.35102  -0.34918
 Alpha  occ. eigenvalues --   -0.34533  -0.34499  -0.33765  -0.33740  -0.33417
 Alpha  occ. eigenvalues --   -0.33372  -0.33254  -0.32829  -0.32223  -0.32140
 Alpha  occ. eigenvalues --   -0.32014  -0.31967  -0.31801  -0.31704  -0.31285
 Alpha  occ. eigenvalues --   -0.31207  -0.30907  -0.30832  -0.29180  -0.28889
 Alpha  occ. eigenvalues --   -0.28761  -0.28529  -0.28325  -0.26925  -0.26458
 Alpha  occ. eigenvalues --   -0.25929  -0.25484  -0.25322  -0.24720  -0.20912
 Alpha  occ. eigenvalues --   -0.18413
 Alpha virt. eigenvalues --   -0.10858  -0.05197  -0.04234  -0.02329  -0.00551
 Alpha virt. eigenvalues --    0.00395   0.00660   0.01085   0.02206   0.03248
 Alpha virt. eigenvalues --    0.04194   0.04621   0.04870   0.05715   0.05957

 Mulliken charges:
               1
     1  Mg   0.962425
     2  C   -0.010566
     3  C   -0.069738
     4  C   -0.046049
     5  C   -0.111933
     6  N   -0.400307
     7  C    0.077939
     8  C   -0.125240
     9  C   -0.108653
    10  C    0.083013
    11  C    0.003780
    12  C    0.015258
    13  C   -0.011282
    14  C    0.235704
    15  O   -0.253077
    16  O   -0.403822
    17  N   -0.498373
    18  C    0.170006
    19  C   -0.148519
    20  C   -0.101401
    21  C    0.146133
    22  C    0.028198
    23  C    0.080122
    24  O   -0.230982
    25  C   -0.027172
    26  N   -0.416005
    27  C    0.060237
    28  C   -0.113320
    29  C   -0.098141
    30  C    0.088761
    31  C    0.029898
    32  C   -0.033915
    33  C   -0.066130
    34  N   -0.400115
    35  C    0.159316
    36  C   -0.163379
    37  C   -0.044256
    38  C    0.102652
    39  C    0.058836
    40  C    0.139964
    41  O   -0.218235
    42  C   -0.133291
    43  C    0.293250
    44  O   -0.289089
    45  O   -0.345396
    46  C    0.106027
    47  C    0.253141
    48  C   -0.136831
    49  C   -0.265262
    50  C    0.025525
    51  C    0.052754
    52  C   -0.050954
    53  C   -0.005986
    54  C   -0.213053
    55  C   -0.013989
    56  C    0.022620
    57  C   -0.081517
    58  C   -0.007622
    59  C   -0.231297
    60  C    0.007056
    61  C   -0.044642
    62  C   -0.059683
    63  C   -0.014436
    64  C   -0.245250
    65  C   -0.024925
    66  C   -0.005205
    67  H    0.005043
    68  H    0.023732
    69  H    0.001944
    70  H    0.088884
    71  H    0.039294
    72  H    0.046076
    73  H    0.059723
    74  H    0.034252
    75  H    0.040909
    76  H    0.048893
    77  H    0.050385
    78  H    0.063698
    79  H    0.045040
    80  H    0.037315
    81  H    0.060463
    82  H    0.062629
    83  H    0.077017
    84  H    0.066080
    85  H    0.048122
    86  H    0.042784
    87  H    0.045186
    88  H    0.034616
    89  H    0.052159
    90  H    0.036244
    91  H    0.035588
    92  H    0.038072
    93  H    0.048795
    94  H    0.047214
    95  H    0.058510
    96  H    0.058903
    97  H    0.051565
    98  H    0.079739
    99  H    0.060428
   100  H    0.095283
   101  H    0.050669
   102  H    0.054041
   103  H    0.064833
   104  H    0.021254
   105  H    0.034111
   106  H    0.054291
   107  H    0.054588
   108  H    0.040002
   109  H    0.024551
   110  H    0.034907
   111  H    0.033221
   112  H    0.026788
   113  H    0.030017
   114  H    0.026898
   115  H    0.037235
   116  H    0.039176
   117  H    0.033797
   118  H    0.027881
   119  H    0.032113
   120  H    0.026309
   121  H    0.028329
   122  H    0.014945
   123  H    0.037313
   124  H    0.037675
   125  H    0.040193
   126  H    0.039856
   127  H    0.023910
   128  H    0.029425
   129  H    0.032662
   130  H    0.025111
   131  H    0.029585
   132  H    0.034724
   133  H    0.031381
   134  H    0.039084
   135  H    0.023919
   136  H    0.043105
   137  H    0.026048
   138  H    0.023206
   139  H    0.039510
   140  H    0.035174
 Sum of Mulliken charges =  -0.00000

 Dipole moment (field-independent basis, Debye):
    X=             -3.4751    Y=              2.9956    Z=              1.3469  Tot=              4.7816
 Quadrupole moment (field-independent basis, Debye-Ang):
   XX=           -376.5814   YY=           -418.0974   ZZ=           -405.7584
   XY=             20.4758   XZ=              5.2076   YZ=             -4.5255

 Normal termination of Gaussian 16 at Thu May  5 10:23:17 2022.
