 Gaussian 16, Revision A.03,
 Gaussian 16:  ES64L-G16RevA.03 25-Dec-2016

 --------------------------------
 #p wB97XD/Def2SVP td=(nstates=5)
 --------------------------------

 ---------------------------------------------------
 step_801_chromophore_6 TDDFT with wB97XD functional
 ---------------------------------------------------
 Symbolic Z-matrix:
 Charge =  0 Multiplicity = 1

                         Standard orientation:
 ---------------------------------------------------------------------
 Center     Atomic      Atomic             Coordinates (Angstroms)
 Number     Number       Type             X           Y           Z
 ---------------------------------------------------------------------
      1         12           0        5.113619    1.024298    0.112233
      2          6           0        4.298306   -2.479977    0.311980
      3          6           0        1.889855    1.787658   -0.227286
      4          6           0        6.053066    4.216521    0.123406
      5          6           0        8.358076   -0.026372   -0.190030
      6          7           0        3.367561   -0.270791   -0.205507
      7          6           0        3.233841   -1.616963   -0.031831
      8          6           0        1.744350   -1.936648   -0.021117
      9          6           0        1.013586   -0.617378   -0.305357
     10          6           0        2.165945    0.398429   -0.126107
     11          6           0        0.277333   -0.624690   -1.736412
     12          6           0        1.268782   -2.642228    1.276960
     13          6           0        0.356983   -3.865306    1.202285
     14          6           0       -0.707609   -3.934284    0.198810
     15          8           0       -0.599888   -4.118501   -0.997130
     16          8           0       -1.977199   -3.868954    0.816731
     17          7           0        4.030077    2.779164    0.103879
     18          6           0        2.723241    2.885914   -0.106387
     19          6           0        2.341115    4.302923   -0.124322
     20          6           0        3.530513    5.078513   -0.076521
     21          6           0        4.625178    4.046595    0.112485
     22          6           0        0.916836    4.713834    0.003783
     23          6           0        3.771586    6.658478   -0.142446
     24          8           0        4.878461    7.177815   -0.015057
     25          6           0        2.563723    7.548276   -0.290692
     26          7           0        6.954571    1.970014   -0.105950
     27          6           0        7.096838    3.292926   -0.007887
     28          6           0        8.582860    3.746877   -0.267964
     29          6           0        9.344210    2.351036   -0.270743
     30          6           0        8.173252    1.347633   -0.274422
     31          6           0        8.916563    4.728423   -1.354818
     32          6           0       10.438352    2.127026    0.840868
     33          6           0       11.853349    2.348897    0.352208
     34          7           0        6.225706   -0.865007    0.035400
     35          6           0        7.538624   -1.061343    0.034317
     36          6           0        7.872300   -2.427770    0.227260
     37          6           0        6.629890   -3.074262    0.283029
     38          6           0        5.601804   -2.051194    0.184261
     39          6           0        9.308659   -2.942048    0.314121
     40          6           0        5.939973   -4.333679    0.394004
     41          8           0        6.306453   -5.499078    0.565491
     42          6           0        4.417602   -3.941903    0.466119
     43          6           0        3.665579   -4.676123   -0.602464
     44          8           0        3.465831   -4.295164   -1.777136
     45          8           0        3.403314   -5.915687   -0.142159
     46          6           0        2.854780   -6.807202   -1.256211
     47          6           0       -3.131163   -3.859056   -0.074303
     48          6           0       -4.265378   -3.295522    0.678964
     49          6           0       -5.578903   -3.314884    0.418569
     50          6           0       -6.087603   -3.952191   -0.851147
     51          6           0       -6.615073   -2.690644    1.363887
     52          6           0       -6.921977   -1.228440    0.923010
     53          6           0       -7.699636   -0.530089    2.054971
     54          6           0       -7.482262    0.965818    2.101285
     55          6           0       -8.116878    1.539717    3.429960
     56          6           0       -7.961218    1.721107    0.782647
     57          6           0       -9.399388    1.367468    0.367937
     58          6           0       -9.510086    1.027147   -1.096695
     59          6           0      -10.827996    0.167150   -1.365873
     60          6           0      -10.734548   -1.080927   -2.263896
     61          6           0      -11.847275    1.256496   -2.025458
     62          6           0      -13.337753    0.957669   -1.655989
     63          6           0      -13.666890    1.322660   -0.152256
     64          6           0      -14.587961    2.594265   -0.084761
     65          6           0      -15.998484    2.248302   -0.618865
     66          6           0      -14.713277    3.271827    1.327773
     67          1           0        0.819222    2.002428   -0.205624
     68          1           0        6.441509    5.233502    0.035490
     69          1           0        9.410690   -0.282225   -0.326720
     70          1           0        1.741396   -2.595221   -0.889931
     71          1           0        0.273974   -0.518528    0.490116
     72          1           0       -0.744391   -1.006413   -1.735380
     73          1           0        0.779197   -1.269249   -2.459052
     74          1           0        0.250849    0.395605   -2.119194
     75          1           0        0.578063   -1.949293    1.758315
     76          1           0        2.121637   -2.797994    1.936871
     77          1           0       -0.181450   -4.097592    2.120871
     78          1           0        0.994936   -4.748914    1.235226
     79          1           0        0.464108    4.431983   -0.947211
     80          1           0        0.608359    5.757514    0.066113
     81          1           0        0.329748    4.125817    0.708730
     82          1           0        2.820541    8.601294   -0.408956
     83          1           0        2.010101    7.381110    0.632643
     84          1           0        2.028577    7.159481   -1.156100
     85          1           0        8.853806    4.271818    0.647790
     86          1           0        9.929928    2.319497   -1.189581
     87          1           0        8.031463    4.936770   -1.955972
     88          1           0        9.583843    4.287810   -2.095484
     89          1           0        9.299305    5.646171   -0.910103
     90          1           0       10.275539    1.115617    1.210816
     91          1           0       10.285434    2.749646    1.722268
     92          1           0       11.929034    2.758927   -0.654951
     93          1           0       12.385546    1.399068    0.297328
     94          1           0       12.278501    3.092514    1.025979
     95          1           0        9.792272   -3.084828   -0.651418
     96          1           0        9.127321   -3.944014    0.702742
     97          1           0        9.996393   -2.421555    0.981055
     98          1           0        4.169313   -4.327800    1.454887
     99          1           0        3.577050   -7.599159   -1.450212
    100          1           0        2.579246   -6.344874   -2.203664
    101          1           0        2.009250   -7.386835   -0.886189
    102          1           0       -3.269794   -4.900507   -0.365406
    103          1           0       -2.987209   -3.231034   -0.953615
    104          1           0       -3.917084   -2.794049    1.582533
    105          1           0       -5.257032   -4.318351   -1.454342
    106          1           0       -6.638985   -3.142215   -1.329238
    107          1           0       -6.663510   -4.843379   -0.602385
    108          1           0       -6.326566   -2.766687    2.412377
    109          1           0       -7.448002   -3.370212    1.183527
    110          1           0       -7.499449   -1.091272    0.008500
    111          1           0       -5.989683   -0.710385    0.697200
    112          1           0       -7.345018   -0.865741    3.030423
    113          1           0       -8.755121   -0.779806    1.948786
    114          1           0       -6.421203    1.196281    2.188836
    115          1           0       -7.475732    1.344574    4.289201
    116          1           0       -9.056132    1.003371    3.562356
    117          1           0       -8.159668    2.623399    3.324186
    118          1           0       -7.364458    1.336149   -0.043596
    119          1           0       -7.878971    2.804567    0.863803
    120          1           0      -10.084881    2.211336    0.448458
    121          1           0       -9.890371    0.591986    0.955522
    122          1           0       -8.636546    0.443437   -1.386197
    123          1           0       -9.497341    1.967682   -1.646896
    124          1           0      -11.300937   -0.199321   -0.454444
    125          1           0      -11.417093   -1.131568   -3.112637
    126          1           0      -10.805342   -1.920426   -1.572867
    127          1           0       -9.768268   -1.111322   -2.766872
    128          1           0      -11.669263    1.160596   -3.095802
    129          1           0      -11.692039    2.298812   -1.746167
    130          1           0      -13.687764   -0.043898   -1.905396
    131          1           0      -13.900944    1.604911   -2.328863
    132          1           0      -12.724201    1.459772    0.376685
    133          1           0      -14.122894    0.437236    0.290204
    134          1           0      -14.334057    3.362308   -0.814839
    135          1           0      -15.990335    1.224961   -0.995224
    136          1           0      -16.360475    2.890564   -1.421384
    137          1           0      -16.712183    2.150565    0.199660
    138          1           0      -13.897399    2.920140    1.958609
    139          1           0      -15.655713    3.071409    1.837887
    140          1           0      -14.526800    4.344563    1.272584
 ---------------------------------------------------------------------

 SCF Done:  E(RwB97XD) =  -3007.87021824     A.U. after   20 cycles

 Excitation energies and oscillator strengths:

 Excited State   1:      Singlet-A      1.6449 eV  753.76 nm  f=0.3963  <S**2>=0.000
     245 -> 248        0.18986
     246 -> 247        0.68262
     245 <- 248        0.11830
 This state for optimization and/or second-order correction.
 Total Energy, E(TD-HF/TD-DFT) =  -3007.80977032
 Copying the excited state density for this state as the 1-particle RhoCI density.

 Excited State   2:      Singlet-A      2.1795 eV  568.88 nm  f=0.0675  <S**2>=0.000
     245 -> 247        0.62379
     246 -> 248       -0.32222

 Excited State   3:      Singlet-A      3.4138 eV  363.19 nm  f=0.4196  <S**2>=0.000
     241 -> 247        0.19168
     242 -> 247        0.17460
     242 -> 249        0.11443
     243 -> 247        0.22509
     245 -> 247        0.24675
     246 -> 248        0.52852

 Excited State   4:      Singlet-A      3.5513 eV  349.12 nm  f=0.1388  <S**2>=0.000
     240 -> 247       -0.10094
     241 -> 249        0.14117
     242 -> 247        0.50741
     242 -> 249        0.23482
     242 -> 250        0.17437
     245 -> 247       -0.13177
     246 -> 248       -0.26230

 Excited State   5:      Singlet-A      3.5646 eV  347.82 nm  f=0.0379  <S**2>=0.000
     241 -> 247       -0.28093
     242 -> 249       -0.11193
     243 -> 247        0.60916

 The electronic state is 1-A.
 Alpha  occ. eigenvalues --  -46.94932 -19.30706 -19.29584 -19.25120 -19.24950
 Alpha  occ. eigenvalues --  -19.23920 -19.23747 -14.46572 -14.46559 -14.44560
 Alpha  occ. eigenvalues --  -14.42626 -10.43225 -10.42739 -10.40504 -10.38858
 Alpha  occ. eigenvalues --  -10.35457 -10.35438 -10.35339 -10.35059 -10.34757
 Alpha  occ. eigenvalues --  -10.34742 -10.34316 -10.33996 -10.33387 -10.32836
 Alpha  occ. eigenvalues --  -10.32101 -10.31874 -10.31803 -10.31790 -10.31620
 Alpha  occ. eigenvalues --  -10.31516 -10.31461 -10.31393 -10.31169 -10.31049
 Alpha  occ. eigenvalues --  -10.30992 -10.30852 -10.30645 -10.30623 -10.30611
 Alpha  occ. eigenvalues --  -10.30367 -10.30251 -10.30190 -10.30072 -10.30006
 Alpha  occ. eigenvalues --  -10.29929 -10.29918 -10.29731 -10.29707 -10.29554
 Alpha  occ. eigenvalues --  -10.29537 -10.29404 -10.29296 -10.29246 -10.29203
 Alpha  occ. eigenvalues --  -10.29144 -10.29135 -10.28888 -10.28864 -10.28860
 Alpha  occ. eigenvalues --  -10.28671 -10.28623 -10.28612 -10.28295 -10.28275
 Alpha  occ. eigenvalues --  -10.27855  -3.20878  -1.94486  -1.93980  -1.93868
 Alpha  occ. eigenvalues --   -1.17853  -1.17729  -1.12565  -1.11087  -1.09917
 Alpha  occ. eigenvalues --   -1.08037  -1.06492  -1.05655  -1.05303  -1.04519
 Alpha  occ. eigenvalues --   -0.95261  -0.92594  -0.91744  -0.91206  -0.90721
 Alpha  occ. eigenvalues --   -0.90184  -0.90109  -0.89334  -0.89095  -0.88843
 Alpha  occ. eigenvalues --   -0.88168  -0.87381  -0.85996  -0.85936  -0.85309
 Alpha  occ. eigenvalues --   -0.84507  -0.84312  -0.83184  -0.82507  -0.82444
 Alpha  occ. eigenvalues --   -0.81919  -0.80309  -0.79638  -0.79309  -0.77814
 Alpha  occ. eigenvalues --   -0.77505  -0.77141  -0.77026  -0.76785  -0.75590
 Alpha  occ. eigenvalues --   -0.75157  -0.74557  -0.73816  -0.72415  -0.70911
 Alpha  occ. eigenvalues --   -0.70783  -0.70061  -0.69385  -0.69069  -0.67714
 Alpha  occ. eigenvalues --   -0.67436  -0.67250  -0.66885  -0.66399  -0.66035
 Alpha  occ. eigenvalues --   -0.65288  -0.64262  -0.63940  -0.63309  -0.62234
 Alpha  occ. eigenvalues --   -0.62082  -0.61370  -0.60928  -0.60241  -0.59910
 Alpha  occ. eigenvalues --   -0.59787  -0.58685  -0.58274  -0.57999  -0.57434
 Alpha  occ. eigenvalues --   -0.57226  -0.56654  -0.56197  -0.55880  -0.55817
 Alpha  occ. eigenvalues --   -0.55650  -0.55222  -0.55122  -0.54955  -0.54620
 Alpha  occ. eigenvalues --   -0.54543  -0.54239  -0.54077  -0.53782  -0.53522
 Alpha  occ. eigenvalues --   -0.53387  -0.53098  -0.52874  -0.52709  -0.52517
 Alpha  occ. eigenvalues --   -0.52506  -0.52326  -0.52128  -0.51327  -0.51252
 Alpha  occ. eigenvalues --   -0.51156  -0.51106  -0.50812  -0.50760  -0.50697
 Alpha  occ. eigenvalues --   -0.50345  -0.50258  -0.50079  -0.49732  -0.49452
 Alpha  occ. eigenvalues --   -0.49333  -0.49043  -0.48868  -0.48837  -0.48591
 Alpha  occ. eigenvalues --   -0.48440  -0.48114  -0.47844  -0.47718  -0.47435
 Alpha  occ. eigenvalues --   -0.47146  -0.46919  -0.46844  -0.46722  -0.46547
 Alpha  occ. eigenvalues --   -0.46426  -0.46271  -0.46179  -0.45979  -0.45785
 Alpha  occ. eigenvalues --   -0.45724  -0.45504  -0.45198  -0.45009  -0.44875
 Alpha  occ. eigenvalues --   -0.44828  -0.44736  -0.44420  -0.44300  -0.44026
 Alpha  occ. eigenvalues --   -0.43945  -0.43758  -0.43441  -0.43312  -0.42953
 Alpha  occ. eigenvalues --   -0.42871  -0.42703  -0.42331  -0.42145  -0.41890
 Alpha  occ. eigenvalues --   -0.41635  -0.41479  -0.40863  -0.40835  -0.40399
 Alpha  occ. eigenvalues --   -0.40387  -0.40171  -0.39825  -0.39217  -0.39106
 Alpha  occ. eigenvalues --   -0.39003  -0.38964  -0.38816  -0.38727  -0.38229
 Alpha  occ. eigenvalues --   -0.38136  -0.37885  -0.37746  -0.36075  -0.35739
 Alpha  occ. eigenvalues --   -0.35662  -0.35377  -0.35318  -0.33707  -0.33477
 Alpha  occ. eigenvalues --   -0.32652  -0.32385  -0.31803  -0.31468  -0.25965
 Alpha  occ. eigenvalues --   -0.22524
 Alpha virt. eigenvalues --   -0.06652   0.00155   0.02030   0.04177   0.06053
 Alpha virt. eigenvalues --    0.06473   0.07408   0.07790   0.08916   0.09474
 Alpha virt. eigenvalues --    0.10807   0.11285   0.11727   0.12486   0.12729

 Mulliken charges:
               1
     1  Mg   0.953235
     2  C   -0.015622
     3  C   -0.088699
     4  C   -0.057239
     5  C   -0.120061
     6  N   -0.370030
     7  C    0.045273
     8  C   -0.097993
     9  C   -0.082022
    10  C    0.071326
    11  C    0.014966
    12  C    0.028607
    13  C    0.005081
    14  C    0.222563
    15  O   -0.248421
    16  O   -0.401965
    17  N   -0.466300
    18  C    0.166335
    19  C   -0.133195
    20  C   -0.100845
    21  C    0.136802
    22  C    0.037282
    23  C    0.078484
    24  O   -0.224689
    25  C   -0.015252
    26  N   -0.381214
    27  C    0.045401
    28  C   -0.090159
    29  C   -0.067911
    30  C    0.067334
    31  C    0.039736
    32  C   -0.019984
    33  C   -0.049563
    34  N   -0.359586
    35  C    0.152692
    36  C   -0.163152
    37  C   -0.042137
    38  C    0.086668
    39  C    0.067646
    40  C    0.121755
    41  O   -0.209552
    42  C   -0.095230
    43  C    0.271095
    44  O   -0.284241
    45  O   -0.344704
    46  C    0.122685
    47  C    0.263348
    48  C   -0.149173
    49  C   -0.246346
    50  C    0.040207
    51  C    0.069605
    52  C   -0.027801
    53  C    0.010268
    54  C   -0.182489
    55  C   -0.002036
    56  C    0.038038
    57  C   -0.063499
    58  C    0.014335
    59  C   -0.204252
    60  C    0.016777
    61  C   -0.024000
    62  C   -0.045363
    63  C    0.004952
    64  C   -0.214685
    65  C   -0.015092
    66  C    0.007464
    67  H   -0.001872
    68  H    0.018350
    69  H   -0.006003
    70  H    0.071447
    71  H    0.028216
    72  H    0.040923
    73  H    0.055321
    74  H    0.027212
    75  H    0.031230
    76  H    0.040897
    77  H    0.045845
    78  H    0.056771
    79  H    0.039375
    80  H    0.033722
    81  H    0.057027
    82  H    0.062365
    83  H    0.070705
    84  H    0.059977
    85  H    0.036115
    86  H    0.027158
    87  H    0.038414
    88  H    0.028954
    89  H    0.048200
    90  H    0.025841
    91  H    0.027913
    92  H    0.030499
    93  H    0.043393
    94  H    0.041780
    95  H    0.054220
    96  H    0.054069
    97  H    0.046970
    98  H    0.072918
    99  H    0.056404
   100  H    0.092200
   101  H    0.046468
   102  H    0.049173
   103  H    0.059426
   104  H    0.017906
   105  H    0.028562
   106  H    0.047551
   107  H    0.049256
   108  H    0.033935
   109  H    0.016170
   110  H    0.017748
   111  H    0.022398
   112  H    0.016359
   113  H    0.019970
   114  H    0.016174
   115  H    0.031626
   116  H    0.032147
   117  H    0.028171
   118  H    0.015758
   119  H    0.025974
   120  H    0.016303
   121  H    0.013244
   122  H    0.001468
   123  H    0.028726
   124  H    0.022862
   125  H    0.034690
   126  H    0.034871
   127  H    0.017700
   128  H    0.020390
   129  H    0.021264
   130  H    0.017730
   131  H    0.019482
   132  H    0.019392
   133  H    0.023716
   134  H    0.027305
   135  H    0.015694
   136  H    0.038947
   137  H    0.019279
   138  H    0.016902
   139  H    0.033417
   140  H    0.029833
 Sum of Mulliken charges =  -0.00000

 Dipole moment (field-independent basis, Debye):
    X=             -3.7151    Y=              3.2592    Z=              1.3739  Tot=              5.1295
 Quadrupole moment (field-independent basis, Debye-Ang):
   XX=           -378.9077   YY=           -415.7840   ZZ=           -405.4806
   XY=             20.7920   XZ=              5.2474   YZ=             -4.4942

 Normal termination of Gaussian 16 at Thu May  5 10:48:19 2022.
