 Gaussian 16, Revision A.03,
 Gaussian 16:  ES64L-G16RevA.03 25-Dec-2016

 --------------------
 #p ZINDO=(nstates=5)
 --------------------

 ----------------------------
 step_801_chromophore_6 ZINDO
 ----------------------------
 Symbolic Z-matrix:
 Charge =  0 Multiplicity = 1

                         Standard orientation:
 ---------------------------------------------------------------------
 Center     Atomic      Atomic             Coordinates (Angstroms)
 Number     Number       Type             X           Y           Z
 ---------------------------------------------------------------------
      1         12           0        5.113619    1.024298    0.112233
      2          6           0        4.298306   -2.479977    0.311980
      3          6           0        1.889855    1.787658   -0.227286
      4          6           0        6.053066    4.216521    0.123406
      5          6           0        8.358076   -0.026372   -0.190030
      6          7           0        3.367561   -0.270791   -0.205507
      7          6           0        3.233841   -1.616963   -0.031831
      8          6           0        1.744350   -1.936648   -0.021117
      9          6           0        1.013586   -0.617378   -0.305357
     10          6           0        2.165945    0.398429   -0.126107
     11          6           0        0.277333   -0.624690   -1.736412
     12          6           0        1.268782   -2.642228    1.276960
     13          6           0        0.356983   -3.865306    1.202285
     14          6           0       -0.707609   -3.934284    0.198810
     15          8           0       -0.599888   -4.118501   -0.997130
     16          8           0       -1.977199   -3.868954    0.816731
     17          7           0        4.030077    2.779164    0.103879
     18          6           0        2.723241    2.885914   -0.106387
     19          6           0        2.341115    4.302923   -0.124322
     20          6           0        3.530513    5.078513   -0.076521
     21          6           0        4.625178    4.046595    0.112485
     22          6           0        0.916836    4.713834    0.003783
     23          6           0        3.771586    6.658478   -0.142446
     24          8           0        4.878461    7.177815   -0.015057
     25          6           0        2.563723    7.548276   -0.290692
     26          7           0        6.954571    1.970014   -0.105950
     27          6           0        7.096838    3.292926   -0.007887
     28          6           0        8.582860    3.746877   -0.267964
     29          6           0        9.344210    2.351036   -0.270743
     30          6           0        8.173252    1.347633   -0.274422
     31          6           0        8.916563    4.728423   -1.354818
     32          6           0       10.438352    2.127026    0.840868
     33          6           0       11.853349    2.348897    0.352208
     34          7           0        6.225706   -0.865007    0.035400
     35          6           0        7.538624   -1.061343    0.034317
     36          6           0        7.872300   -2.427770    0.227260
     37          6           0        6.629890   -3.074262    0.283029
     38          6           0        5.601804   -2.051194    0.184261
     39          6           0        9.308659   -2.942048    0.314121
     40          6           0        5.939973   -4.333679    0.394004
     41          8           0        6.306453   -5.499078    0.565491
     42          6           0        4.417602   -3.941903    0.466119
     43          6           0        3.665579   -4.676123   -0.602464
     44          8           0        3.465831   -4.295164   -1.777136
     45          8           0        3.403314   -5.915687   -0.142159
     46          6           0        2.854780   -6.807202   -1.256211
     47          6           0       -3.131163   -3.859056   -0.074303
     48          6           0       -4.265378   -3.295522    0.678964
     49          6           0       -5.578903   -3.314884    0.418569
     50          6           0       -6.087603   -3.952191   -0.851147
     51          6           0       -6.615073   -2.690644    1.363887
     52          6           0       -6.921977   -1.228440    0.923010
     53          6           0       -7.699636   -0.530089    2.054971
     54          6           0       -7.482262    0.965818    2.101285
     55          6           0       -8.116878    1.539717    3.429960
     56          6           0       -7.961218    1.721107    0.782647
     57          6           0       -9.399388    1.367468    0.367937
     58          6           0       -9.510086    1.027147   -1.096695
     59          6           0      -10.827996    0.167150   -1.365873
     60          6           0      -10.734548   -1.080927   -2.263896
     61          6           0      -11.847275    1.256496   -2.025458
     62          6           0      -13.337753    0.957669   -1.655989
     63          6           0      -13.666890    1.322660   -0.152256
     64          6           0      -14.587961    2.594265   -0.084761
     65          6           0      -15.998484    2.248302   -0.618865
     66          6           0      -14.713277    3.271827    1.327773
     67          1           0        0.819222    2.002428   -0.205624
     68          1           0        6.441509    5.233502    0.035490
     69          1           0        9.410690   -0.282225   -0.326720
     70          1           0        1.741396   -2.595221   -0.889931
     71          1           0        0.273974   -0.518528    0.490116
     72          1           0       -0.744391   -1.006413   -1.735380
     73          1           0        0.779197   -1.269249   -2.459052
     74          1           0        0.250849    0.395605   -2.119194
     75          1           0        0.578063   -1.949293    1.758315
     76          1           0        2.121637   -2.797994    1.936871
     77          1           0       -0.181450   -4.097592    2.120871
     78          1           0        0.994936   -4.748914    1.235226
     79          1           0        0.464108    4.431983   -0.947211
     80          1           0        0.608359    5.757514    0.066113
     81          1           0        0.329748    4.125817    0.708730
     82          1           0        2.820541    8.601294   -0.408956
     83          1           0        2.010101    7.381110    0.632643
     84          1           0        2.028577    7.159481   -1.156100
     85          1           0        8.853806    4.271818    0.647790
     86          1           0        9.929928    2.319497   -1.189581
     87          1           0        8.031463    4.936770   -1.955972
     88          1           0        9.583843    4.287810   -2.095484
     89          1           0        9.299305    5.646171   -0.910103
     90          1           0       10.275539    1.115617    1.210816
     91          1           0       10.285434    2.749646    1.722268
     92          1           0       11.929034    2.758927   -0.654951
     93          1           0       12.385546    1.399068    0.297328
     94          1           0       12.278501    3.092514    1.025979
     95          1           0        9.792272   -3.084828   -0.651418
     96          1           0        9.127321   -3.944014    0.702742
     97          1           0        9.996393   -2.421555    0.981055
     98          1           0        4.169313   -4.327800    1.454887
     99          1           0        3.577050   -7.599159   -1.450212
    100          1           0        2.579246   -6.344874   -2.203664
    101          1           0        2.009250   -7.386835   -0.886189
    102          1           0       -3.269794   -4.900507   -0.365406
    103          1           0       -2.987209   -3.231034   -0.953615
    104          1           0       -3.917084   -2.794049    1.582533
    105          1           0       -5.257032   -4.318351   -1.454342
    106          1           0       -6.638985   -3.142215   -1.329238
    107          1           0       -6.663510   -4.843379   -0.602385
    108          1           0       -6.326566   -2.766687    2.412377
    109          1           0       -7.448002   -3.370212    1.183527
    110          1           0       -7.499449   -1.091272    0.008500
    111          1           0       -5.989683   -0.710385    0.697200
    112          1           0       -7.345018   -0.865741    3.030423
    113          1           0       -8.755121   -0.779806    1.948786
    114          1           0       -6.421203    1.196281    2.188836
    115          1           0       -7.475732    1.344574    4.289201
    116          1           0       -9.056132    1.003371    3.562356
    117          1           0       -8.159668    2.623399    3.324186
    118          1           0       -7.364458    1.336149   -0.043596
    119          1           0       -7.878971    2.804567    0.863803
    120          1           0      -10.084881    2.211336    0.448458
    121          1           0       -9.890371    0.591986    0.955522
    122          1           0       -8.636546    0.443437   -1.386197
    123          1           0       -9.497341    1.967682   -1.646896
    124          1           0      -11.300937   -0.199321   -0.454444
    125          1           0      -11.417093   -1.131568   -3.112637
    126          1           0      -10.805342   -1.920426   -1.572867
    127          1           0       -9.768268   -1.111322   -2.766872
    128          1           0      -11.669263    1.160596   -3.095802
    129          1           0      -11.692039    2.298812   -1.746167
    130          1           0      -13.687764   -0.043898   -1.905396
    131          1           0      -13.900944    1.604911   -2.328863
    132          1           0      -12.724201    1.459772    0.376685
    133          1           0      -14.122894    0.437236    0.290204
    134          1           0      -14.334057    3.362308   -0.814839
    135          1           0      -15.990335    1.224961   -0.995224
    136          1           0      -16.360475    2.890564   -1.421384
    137          1           0      -16.712183    2.150565    0.199660
    138          1           0      -13.897399    2.920140    1.958609
    139          1           0      -15.655713    3.071409    1.837887
    140          1           0      -14.526800    4.344563    1.272584
 ---------------------------------------------------------------------

 SCF Done:  E(RZINDO/S) =  -474.273910293     A.U. after   20 cycles

 Excitation energies and oscillator strengths:

 Excited State   1:      Singlet-A      1.2464 eV  994.70 nm  f=0.6088  <S**2>=0.000
     175 ->178         0.19751
     176 ->177         0.66186
 This state for optimization and/or second-order correction.
 Total Energy, E(CIS/TDA) =  -474.228104172
 Copying the excited state density for this state as the 1-particle RhoCI density.

 Excited State   2:      Singlet-A      1.9059 eV  650.54 nm  f=0.0095  <S**2>=0.000
     175 ->177         0.51698
     176 ->178        -0.45979

 Excited State   3:      Singlet-A      2.9089 eV  426.23 nm  f=0.2862  <S**2>=0.000
     175 ->177         0.24013
     176 ->178         0.33185
     176 ->179         0.52116
     176 ->180        -0.10861

 Excited State   4:      Singlet-A      2.9745 eV  416.83 nm  f=0.2297  <S**2>=0.000
     169 ->177         0.11724
     169 ->179         0.12005
     169 ->180        -0.12235
     170 ->177         0.27985
     170 ->178         0.10565
     170 ->179         0.29738
     170 ->180        -0.22015
     170 ->187        -0.12420
     170 ->188        -0.10987
     175 ->177         0.16433
     176 ->178         0.17854
     176 ->179        -0.22902

 Excited State   5:      Singlet-A      3.0538 eV  406.01 nm  f=0.7181  <S**2>=0.000
     170 ->177         0.15451
     170 ->179         0.15577
     170 ->180        -0.14820
     175 ->177        -0.31706
     176 ->178        -0.33411
     176 ->179         0.35628

 The electronic state is 1-A.
 Alpha  occ. eigenvalues --   -1.85756  -1.80566  -1.79885  -1.73124  -1.71987
 Alpha  occ. eigenvalues --   -1.70419  -1.66311  -1.60117  -1.58207  -1.57723
 Alpha  occ. eigenvalues --   -1.54754  -1.51259  -1.48803  -1.48529  -1.47684
 Alpha  occ. eigenvalues --   -1.43764  -1.41866  -1.40052  -1.38822  -1.38121
 Alpha  occ. eigenvalues --   -1.35694  -1.33615  -1.32878  -1.31983  -1.29374
 Alpha  occ. eigenvalues --   -1.28134  -1.25199  -1.23493  -1.21315  -1.17942
 Alpha  occ. eigenvalues --   -1.17369  -1.15619  -1.15091  -1.14204  -1.12883
 Alpha  occ. eigenvalues --   -1.12571  -1.10350  -1.09787  -1.05401  -1.03585
 Alpha  occ. eigenvalues --   -1.02134  -1.01462  -0.98751  -0.98491  -0.97260
 Alpha  occ. eigenvalues --   -0.95352  -0.94481  -0.94159  -0.93092  -0.92275
 Alpha  occ. eigenvalues --   -0.91747  -0.91050  -0.89166  -0.87444  -0.86159
 Alpha  occ. eigenvalues --   -0.85068  -0.83887  -0.83447  -0.82437  -0.81616
 Alpha  occ. eigenvalues --   -0.80646  -0.78688  -0.76961  -0.76661  -0.76348
 Alpha  occ. eigenvalues --   -0.76104  -0.75080  -0.74852  -0.73705  -0.72919
 Alpha  occ. eigenvalues --   -0.72420  -0.71906  -0.71172  -0.70784  -0.70304
 Alpha  occ. eigenvalues --   -0.69655  -0.69284  -0.68858  -0.68376  -0.67828
 Alpha  occ. eigenvalues --   -0.67303  -0.66383  -0.65911  -0.65748  -0.65236
 Alpha  occ. eigenvalues --   -0.64756  -0.64567  -0.64167  -0.63888  -0.63279
 Alpha  occ. eigenvalues --   -0.63252  -0.62763  -0.62381  -0.62301  -0.62049
 Alpha  occ. eigenvalues --   -0.61871  -0.61510  -0.60822  -0.60445  -0.60327
 Alpha  occ. eigenvalues --   -0.60098  -0.59386  -0.59000  -0.58399  -0.58132
 Alpha  occ. eigenvalues --   -0.57751  -0.57420  -0.57041  -0.56959  -0.56413
 Alpha  occ. eigenvalues --   -0.56348  -0.55573  -0.54833  -0.54652  -0.54192
 Alpha  occ. eigenvalues --   -0.53925  -0.53751  -0.53219  -0.52977  -0.52532
 Alpha  occ. eigenvalues --   -0.52438  -0.51948  -0.51854  -0.51513  -0.51196
 Alpha  occ. eigenvalues --   -0.51071  -0.50723  -0.50670  -0.50615  -0.50441
 Alpha  occ. eigenvalues --   -0.49944  -0.49725  -0.49171  -0.48860  -0.48401
 Alpha  occ. eigenvalues --   -0.48389  -0.48123  -0.47986  -0.47789  -0.47597
 Alpha  occ. eigenvalues --   -0.47188  -0.47068  -0.46909  -0.46659  -0.46241
 Alpha  occ. eigenvalues --   -0.46184  -0.46073  -0.45881  -0.45581  -0.45545
 Alpha  occ. eigenvalues --   -0.45382  -0.45085  -0.44974  -0.44549  -0.44425
 Alpha  occ. eigenvalues --   -0.44241  -0.43800  -0.43028  -0.42340  -0.42201
 Alpha  occ. eigenvalues --   -0.41905  -0.41631  -0.40764  -0.38957  -0.38715
 Alpha  occ. eigenvalues --   -0.37704  -0.36512  -0.35985  -0.35079  -0.34690
 Alpha  occ. eigenvalues --   -0.33226  -0.32589  -0.32330  -0.31738  -0.26623
 Alpha  occ. eigenvalues --   -0.21380
 Alpha virt. eigenvalues --   -0.08085  -0.02193  -0.00581   0.01021   0.01848
 Alpha virt. eigenvalues --    0.02561   0.02612   0.02797   0.04702   0.05438
 Alpha virt. eigenvalues --    0.05969   0.06650   0.07086   0.07991   0.08320

 Mulliken charges:
               1
     1  Mg   0.422492
     2  C   -0.047605
     3  C   -0.085584
     4  C   -0.060912
     5  C   -0.040346
     6  N   -0.279634
     7  C    0.138516
     8  C    0.003153
     9  C    0.001671
    10  C    0.129870
    11  C   -0.050823
    12  C   -0.017118
    13  C    0.008979
    14  C    0.474308
    15  O   -0.505840
    16  O   -0.290843
    17  N   -0.311371
    18  C    0.133807
    19  C    0.018095
    20  C   -0.053459
    21  C    0.113426
    22  C   -0.045148
    23  C    0.331214
    24  O   -0.511950
    25  C   -0.024971
    26  N   -0.251041
    27  C    0.138504
    28  C   -0.000020
    29  C   -0.004714
    30  C    0.092360
    31  C   -0.043398
    32  C   -0.028582
    33  C   -0.055430
    34  N   -0.327147
    35  C    0.110544
    36  C    0.031938
    37  C   -0.058906
    38  C    0.105047
    39  C   -0.043741
    40  C    0.333678
    41  O   -0.529753
    42  C    0.064513
    43  C    0.484688
    44  O   -0.540289
    45  O   -0.250548
    46  C    0.067171
    47  C    0.112833
    48  C   -0.091613
    49  C   -0.021944
    50  C   -0.045890
    51  C   -0.020773
    52  C   -0.031246
    53  C   -0.029550
    54  C   -0.017676
    55  C   -0.064622
    56  C   -0.036960
    57  C   -0.038867
    58  C   -0.031590
    59  C   -0.025251
    60  C   -0.057152
    61  C   -0.044952
    62  C   -0.044900
    63  C   -0.027518
    64  C   -0.012437
    65  C   -0.062915
    66  C   -0.060724
    67  H    0.019045
    68  H    0.039460
    69  H    0.009818
    70  H    0.053982
    71  H    0.026077
    72  H    0.025053
    73  H    0.033439
    74  H    0.017128
    75  H    0.017473
    76  H    0.027458
    77  H    0.025660
    78  H    0.041058
    79  H    0.020862
    80  H    0.027967
    81  H    0.032098
    82  H    0.043368
    83  H    0.042741
    84  H    0.036168
    85  H    0.022417
    86  H    0.030050
    87  H    0.021610
    88  H    0.020636
    89  H    0.029141
    90  H    0.020454
    91  H    0.019515
    92  H    0.018564
    93  H    0.022750
    94  H    0.021087
    95  H    0.036146
    96  H    0.024212
    97  H    0.032610
    98  H    0.057245
    99  H    0.036559
   100  H    0.065839
   101  H    0.028179
   102  H    0.047811
   103  H    0.053941
   104  H    0.019949
   105  H    0.022396
   106  H    0.033934
   107  H    0.030176
   108  H    0.032700
   109  H    0.020499
   110  H    0.025635
   111  H    0.020597
   112  H    0.014239
   113  H    0.025048
   114  H    0.012059
   115  H    0.016748
   116  H    0.025774
   117  H    0.020271
   118  H    0.020001
   119  H    0.023729
   120  H    0.010154
   121  H    0.024017
   122  H    0.013698
   123  H    0.025259
   124  H    0.025960
   125  H    0.027227
   126  H    0.019472
   127  H    0.012421
   128  H    0.014978
   129  H    0.023215
   130  H    0.021294
   131  H    0.009998
   132  H    0.017932
   133  H    0.021313
   134  H    0.025464
   135  H    0.009794
   136  H    0.023745
   137  H    0.016310
   138  H    0.010967
   139  H    0.026822
   140  H    0.017533
 Sum of Mulliken charges =  -0.00000

 Dipole moment (field-independent basis, Debye):
    X=             -6.1591    Y=              4.2191    Z=              2.9861  Tot=              8.0407
 N-N= 4.319571729719D+03 E-N= 0.000000000000D+00  KE=-9.313702071716D+03
 Leave Link  601 at Thu May  5 10:59:50 2022, MaxMem=  6710886400 cpu:               1.1 elap:               0.1
 (Enter /sw/apps/gaussian-16.0/g16/l9999.exe)
 1\1\GINC-BP1-COMPUTE100\SP\RZINDO CIS\STO-3G\C55H74Mg1N4O6\OF15641\05-
 May-2022\0\\#p ZINDO=(nstates=5)\\step_801_chromophore_6 ZINDO\\0,1\Mg
 ,0,17.686,-1.948,28.44\C,0,16.747,0.313,31.084\C,0,19.479,-3.76,30.583
 \C,0,18.297,-4.014,25.904\C,0,16.352,0.396,26.331\N,0,18.244,-1.548,30
 .527\C,0,17.729,-0.648,31.413\C,0,18.204,-1.045,32.805\C,0,19.145,-2.2
 43,32.619\C,0,18.853,-2.617,31.147\C,0,20.671,-1.881,32.98\C,0,17.047,
 -1.314,33.804\C,0,17.09,-0.726,35.213\C,0,18.355,-0.658,35.948\O,0,19.

 Normal termination of Gaussian 16 at Thu May  5 10:59:50 2022.
