 Gaussian 16, Revision A.03,
 Gaussian 16:  ES64L-G16RevA.03 25-Dec-2016

 ------------------------------
 #p blyp/Def2SVP td=(nstates=5)
 ------------------------------

 ---------------------------------------------------
 step_1151_chromophore_25 TDDFT with blyp functional
 ---------------------------------------------------
 Symbolic Z-matrix:
 Charge =  0 Multiplicity = 1

                         Standard orientation:
 ---------------------------------------------------------------------
 Center     Atomic      Atomic             Coordinates (Angstroms)
 Number     Number       Type             X           Y           Z
 ---------------------------------------------------------------------
      1         12           0        5.824693    0.410590    0.480907
      2          6           0        3.622274   -2.174630    0.223003
      3          6           0        3.316538    2.673988   -0.326772
      4          6           0        8.185863    2.626240   -0.471607
      5          6           0        8.473927   -2.058275    0.649153
      6          7           0        3.696733    0.283960   -0.065894
      7          6           0        3.010308   -0.880498    0.064316
      8          6           0        1.463865   -0.604168   -0.042446
      9          6           0        1.407258    0.970991   -0.273277
     10          6           0        2.889025    1.378122   -0.140400
     11          6           0        0.692227    1.520014   -1.523260
     12          6           0        0.592304   -1.132520    1.211572
     13          6           0       -0.704860   -2.000202    0.978088
     14          6           0       -1.990099   -1.405385    1.375120
     15          8           0       -2.366987   -1.277673    2.553190
     16          8           0       -2.768911   -0.994459    0.265586
     17          7           0        5.735589    2.421545   -0.094863
     18          6           0        4.642406    3.163235   -0.343290
     19          6           0        5.129147    4.600503   -0.724309
     20          6           0        6.539403    4.636771   -0.768712
     21          6           0        6.863146    3.182973   -0.482903
     22          6           0        4.155111    5.615038   -0.950277
     23          6           0        7.551059    5.802323   -0.953008
     24          8           0        8.781683    5.675536   -0.915857
     25          6           0        7.023173    7.179569   -1.269862
     26          7           0        8.003562    0.295195   -0.020642
     27          6           0        8.715826    1.419214   -0.288079
     28          6           0       10.209024    1.131355   -0.387798
     29          6           0       10.313748   -0.300316    0.207648
     30          6           0        8.863411   -0.741821    0.351359
     31          6           0       10.707095    1.260582   -1.842019
     32          6           0       11.137453   -0.490493    1.463262
     33          6           0       10.771230    0.507579    2.612142
     34          7           0        6.101000   -1.693553    0.633714
     35          6           0        7.163059   -2.548456    0.682879
     36          6           0        6.718279   -3.948185    0.920625
     37          6           0        5.312950   -3.796816    0.732650
     38          6           0        5.020673   -2.470369    0.530992
     39          6           0        7.587156   -5.057184    0.977150
     40          6           0        4.081623   -4.569985    0.570509
     41          8           0        3.799872   -5.774604    0.596002
     42          6           0        2.878566   -3.541526    0.364096
     43          6           0        2.292293   -3.850643   -0.940732
     44          8           0        2.875224   -3.862197   -2.055188
     45          8           0        1.146005   -4.423218   -0.574641
     46          6           0        0.381348   -5.111026   -1.597892
     47          6           0       -3.956359   -0.190075    0.567878
     48          6           0       -5.005296   -0.523183   -0.505953
     49          6           0       -5.960445   -1.510228   -0.397959
     50          6           0       -6.094806   -2.423309    0.777268
     51          6           0       -7.160703   -1.559800   -1.390972
     52          6           0       -8.180357   -0.375488   -1.336726
     53          6           0       -8.820223   -0.215906   -2.731539
     54          6           0      -10.361061   -0.590909   -2.741731
     55          6           0      -10.632509   -1.785994   -3.642140
     56          6           0      -11.131196    0.687079   -3.055374
     57          6           0      -12.663276    0.450311   -2.706267
     58          6           0      -13.165009    1.374978   -1.470844
     59          6           0      -13.610705    0.522443   -0.239955
     60          6           0      -14.908780   -0.326028   -0.537212
     61          6           0      -13.817154    1.492559    0.974428
     62          6           0      -12.936719    1.022759    2.123921
     63          6           0      -11.824310    2.096755    2.402391
     64          6           0      -11.505959    2.492386    3.856154
     65          6           0      -11.323385    3.981294    4.164592
     66          6           0      -10.342944    1.625257    4.356872
     67          1           0        2.536874    3.430533   -0.438061
     68          1           0        9.039488    3.200873   -0.838041
     69          1           0        9.235141   -2.736356    1.042584
     70          1           0        1.133862   -1.109961   -0.949946
     71          1           0        0.845566    1.363657    0.574337
     72          1           0        0.238612    0.715962   -2.102199
     73          1           0        1.397435    2.022089   -2.184875
     74          1           0       -0.171985    2.105602   -1.208015
     75          1           0        0.121485   -0.325183    1.773908
     76          1           0        1.282058   -1.577810    1.928889
     77          1           0       -0.569061   -2.943734    1.504707
     78          1           0       -0.792917   -2.441200   -0.014831
     79          1           0        4.204580    6.194135   -0.028558
     80          1           0        3.117767    5.308065   -1.083570
     81          1           0        4.471281    6.255893   -1.773596
     82          1           0        6.609352    7.265656   -2.274934
     83          1           0        7.952276    7.749021   -1.287677
     84          1           0        6.411932    7.594993   -0.468766
     85          1           0       10.791392    1.754377    0.290490
     86          1           0       10.757139   -0.953967   -0.543095
     87          1           0       11.696066    1.719472   -1.833061
     88          1           0       10.049605    1.851507   -2.479545
     89          1           0       10.804721    0.310066   -2.366435
     90          1           0       12.152869   -0.229920    1.164457
     91          1           0       11.012024   -1.505070    1.842579
     92          1           0       11.650884    1.093440    2.879496
     93          1           0       10.413348   -0.035924    3.486693
     94          1           0       10.056264    1.260721    2.280679
     95          1           0        8.065964   -5.269374    0.020506
     96          1           0        6.954423   -5.916616    1.200771
     97          1           0        8.258415   -4.963269    1.829866
     98          1           0        2.121493   -3.530758    1.149427
     99          1           0       -0.119100   -5.910596   -1.052640
    100          1           0        1.027513   -5.527316   -2.370958
    101          1           0       -0.370999   -4.494975   -2.092553
    102          1           0       -3.624505    0.808685    0.283616
    103          1           0       -4.282150   -0.287248    1.603194
    104          1           0       -5.149477    0.228497   -1.283007
    105          1           0       -6.742222   -1.912334    1.490139
    106          1           0       -5.156730   -2.543966    1.318565
    107          1           0       -6.488903   -3.379006    0.429481
    108          1           0       -7.853018   -2.379124   -1.196802
    109          1           0       -6.810932   -1.680590   -2.416132
    110          1           0       -7.664595    0.540578   -1.048278
    111          1           0       -8.997597   -0.614709   -0.656516
    112          1           0       -8.255816   -0.755083   -3.492130
    113          1           0       -8.628720    0.818861   -3.017312
    114          1           0      -10.812339   -0.785377   -1.768100
    115          1           0      -10.998246   -2.720684   -3.217355
    116          1           0       -9.758566   -1.984322   -4.263608
    117          1           0      -11.362358   -1.446003   -4.378045
    118          1           0      -11.077288    0.812330   -4.137024
    119          1           0      -10.629759    1.529350   -2.578754
    120          1           0      -12.799130   -0.605059   -2.468845
    121          1           0      -13.217969    0.834157   -3.562614
    122          1           0      -13.884556    2.068603   -1.906146
    123          1           0      -12.288657    1.949042   -1.167952
    124          1           0      -12.869455   -0.242636   -0.010215
    125          1           0      -14.747058   -1.404115   -0.504820
    126          1           0      -15.264739   -0.026910   -1.523343
    127          1           0      -15.733979   -0.072119    0.127242
    128          1           0      -14.883315    1.459950    1.197979
    129          1           0      -13.699058    2.538571    0.690379
    130          1           0      -12.367883    0.108973    1.953983
    131          1           0      -13.583720    0.980760    3.000058
    132          1           0      -12.008647    3.085390    1.981203
    133          1           0      -10.914799    1.750508    1.909955
    134          1           0      -12.342104    2.179612    4.482082
    135          1           0      -11.298589    4.117145    5.245090
    136          1           0      -12.120424    4.514976    3.646540
    137          1           0      -10.349878    4.281644    3.775991
    138          1           0       -9.972929    0.716524    3.883708
    139          1           0      -10.408460    1.386448    5.418827
    140          1           0       -9.414474    2.195061    4.362583
 ---------------------------------------------------------------------

 SCF Done:  E(RB-LYP) =  -3007.33213698     A.U. after   22 cycles

 Excitation energies and oscillator strengths:

 Excited State   1:      Singlet-A      1.7907 eV  692.37 nm  f=0.3216  <S**2>=0.000
     245 -> 248        0.13750
     245 -> 249       -0.14373
     246 -> 247        0.68767
     246 <- 247       -0.15319
 This state for optimization and/or second-order correction.
 Total Energy, E(TD-HF/TD-DFT) =  -3007.26632932
 Copying the excited state density for this state as the 1-particle RhoCI density.

 Excited State   2:      Singlet-A      1.9859 eV  624.32 nm  f=0.0582  <S**2>=0.000
     244 -> 247        0.12471
     245 -> 247        0.63722
     246 -> 248       -0.17909
     246 -> 249        0.17279

 Excited State   3:      Singlet-A      2.0189 eV  614.12 nm  f=0.0022  <S**2>=0.000
     244 -> 247        0.69525
     245 -> 247       -0.11204

 Excited State   4:      Singlet-A      2.3372 eV  530.48 nm  f=0.0001  <S**2>=0.000
     243 -> 247        0.70548

 Excited State   5:      Singlet-A      2.4012 eV  516.33 nm  f=0.0002  <S**2>=0.000
     242 -> 247        0.70696

 The electronic state is 1-A.
 Alpha  occ. eigenvalues --  -46.28415 -18.82873 -18.81457 -18.76946 -18.76628
 Alpha  occ. eigenvalues --  -18.76023 -18.75534 -14.03386 -14.02151 -14.02025
 Alpha  occ. eigenvalues --  -14.00473 -10.04063 -10.03189 -10.01245  -9.99685
 Alpha  occ. eigenvalues --   -9.97658  -9.97424  -9.96978  -9.96892  -9.96413
 Alpha  occ. eigenvalues --   -9.96262  -9.95810  -9.94915  -9.94825  -9.94790
 Alpha  occ. eigenvalues --   -9.94771  -9.94293  -9.94280  -9.94114  -9.93900
 Alpha  occ. eigenvalues --   -9.93853  -9.93540  -9.93438  -9.93241  -9.93187
 Alpha  occ. eigenvalues --   -9.93012  -9.93007  -9.92809  -9.92723  -9.92558
 Alpha  occ. eigenvalues --   -9.92483  -9.92453  -9.92154  -9.92126  -9.92080
 Alpha  occ. eigenvalues --   -9.92073  -9.91910  -9.91894  -9.91822  -9.91807
 Alpha  occ. eigenvalues --   -9.91717  -9.91709  -9.91591  -9.91468  -9.91424
 Alpha  occ. eigenvalues --   -9.91365  -9.91219  -9.91182  -9.91141  -9.91052
 Alpha  occ. eigenvalues --   -9.90997  -9.90952  -9.90790  -9.90765  -9.90689
 Alpha  occ. eigenvalues --   -9.90291  -2.92828  -1.73218  -1.72740  -1.72533
 Alpha  occ. eigenvalues --   -0.98706  -0.96067  -0.91667  -0.90304  -0.88915
 Alpha  occ. eigenvalues --   -0.88384  -0.86478  -0.85702  -0.84923  -0.84198
 Alpha  occ. eigenvalues --   -0.74431  -0.73413  -0.72606  -0.72348  -0.72161
 Alpha  occ. eigenvalues --   -0.71838  -0.71713  -0.71423  -0.70938  -0.70692
 Alpha  occ. eigenvalues --   -0.70647  -0.69210  -0.68140  -0.67885  -0.66898
 Alpha  occ. eigenvalues --   -0.66232  -0.66131  -0.65699  -0.65066  -0.64462
 Alpha  occ. eigenvalues --   -0.63578  -0.63025  -0.62453  -0.61391  -0.60435
 Alpha  occ. eigenvalues --   -0.60295  -0.60209  -0.59348  -0.59283  -0.58913
 Alpha  occ. eigenvalues --   -0.57941  -0.57241  -0.56298  -0.55644  -0.54986
 Alpha  occ. eigenvalues --   -0.54131  -0.53607  -0.52836  -0.52172  -0.51370
 Alpha  occ. eigenvalues --   -0.51293  -0.50608  -0.50361  -0.49610  -0.49499
 Alpha  occ. eigenvalues --   -0.49384  -0.49011  -0.48976  -0.48415  -0.46131
 Alpha  occ. eigenvalues --   -0.45857  -0.45849  -0.45437  -0.44768  -0.44507
 Alpha  occ. eigenvalues --   -0.44446  -0.43646  -0.43154  -0.42811  -0.42401
 Alpha  occ. eigenvalues --   -0.42112  -0.41909  -0.41550  -0.41411  -0.41263
 Alpha  occ. eigenvalues --   -0.40942  -0.40637  -0.40409  -0.40116  -0.39975
 Alpha  occ. eigenvalues --   -0.39836  -0.39682  -0.39613  -0.39478  -0.39261
 Alpha  occ. eigenvalues --   -0.39082  -0.38856  -0.38526  -0.38407  -0.37978
 Alpha  occ. eigenvalues --   -0.37816  -0.37687  -0.37428  -0.37242  -0.37065
 Alpha  occ. eigenvalues --   -0.36954  -0.36792  -0.36608  -0.36400  -0.36266
 Alpha  occ. eigenvalues --   -0.36187  -0.36112  -0.36003  -0.35851  -0.35698
 Alpha  occ. eigenvalues --   -0.35632  -0.35275  -0.35071  -0.34616  -0.34551
 Alpha  occ. eigenvalues --   -0.34222  -0.34000  -0.33780  -0.33649  -0.33583
 Alpha  occ. eigenvalues --   -0.33314  -0.33238  -0.33223  -0.33002  -0.32807
 Alpha  occ. eigenvalues --   -0.32616  -0.32570  -0.32531  -0.32084  -0.32048
 Alpha  occ. eigenvalues --   -0.31977  -0.31749  -0.31557  -0.31478  -0.31399
 Alpha  occ. eigenvalues --   -0.31070  -0.30989  -0.30842  -0.30702  -0.30633
 Alpha  occ. eigenvalues --   -0.30494  -0.30436  -0.30338  -0.30129  -0.29707
 Alpha  occ. eigenvalues --   -0.29579  -0.29469  -0.29425  -0.29126  -0.29011
 Alpha  occ. eigenvalues --   -0.28664  -0.28565  -0.28290  -0.27997  -0.27844
 Alpha  occ. eigenvalues --   -0.27799  -0.27763  -0.27609  -0.26386  -0.26328
 Alpha  occ. eigenvalues --   -0.26090  -0.25841  -0.25655  -0.25189  -0.24999
 Alpha  occ. eigenvalues --   -0.24395  -0.24247  -0.23555  -0.23373  -0.23207
 Alpha  occ. eigenvalues --   -0.23186  -0.22189  -0.21796  -0.21210  -0.21095
 Alpha  occ. eigenvalues --   -0.20187  -0.19976  -0.19659  -0.18469  -0.16937
 Alpha  occ. eigenvalues --   -0.15335
 Alpha virt. eigenvalues --   -0.11152  -0.07131  -0.06241  -0.05059  -0.03943
 Alpha virt. eigenvalues --   -0.03854  -0.03526  -0.02692  -0.01718   0.00344
 Alpha virt. eigenvalues --    0.01350   0.01528   0.02105   0.02471   0.02927

 Mulliken charges:
               1
     1  Mg   0.696760
     2  C   -0.008447
     3  C   -0.057379
     4  C    0.017627
     5  C   -0.104838
     6  N   -0.222740
     7  C   -0.065300
     8  C    0.033372
     9  C    0.007691
    10  C    0.020038
    11  C    0.137893
    12  C    0.100114
    13  C    0.159814
    14  C    0.072867
    15  O   -0.216690
    16  O   -0.300139
    17  N   -0.275058
    18  C    0.117833
    19  C   -0.143500
    20  C    0.052342
    21  C    0.092838
    22  C    0.164815
    23  C   -0.055370
    24  O   -0.160762
    25  C    0.107740
    26  N   -0.213109
    27  C   -0.071039
    28  C    0.038074
    29  C    0.035654
    30  C    0.042513
    31  C    0.135615
    32  C    0.092934
    33  C    0.040795
    34  N   -0.233189
    35  C    0.076739
    36  C   -0.175700
    37  C    0.091977
    38  C    0.094062
    39  C    0.180558
    40  C   -0.031866
    41  O   -0.149521
    42  C    0.045202
    43  C    0.126841
    44  O   -0.218002
    45  O   -0.238581
    46  C    0.202468
    47  C    0.329997
    48  C   -0.098234
    49  C   -0.137224
    50  C    0.146388
    51  C    0.086316
    52  C    0.079638
    53  C    0.105447
    54  C   -0.117521
    55  C    0.142550
    56  C    0.087223
    57  C    0.055981
    58  C    0.088195
    59  C   -0.108926
    60  C    0.104409
    61  C    0.132176
    62  C    0.116589
    63  C    0.072983
    64  C   -0.069475
    65  C    0.110611
    66  C    0.080914
    67  H   -0.066510
    68  H   -0.052646
    69  H   -0.058531
    70  H   -0.005784
    71  H   -0.027741
    72  H   -0.013644
    73  H    0.003966
    74  H   -0.011701
    75  H   -0.014466
    76  H   -0.007811
    77  H   -0.005203
    78  H   -0.019582
    79  H    0.007068
    80  H   -0.003916
    81  H   -0.000098
    82  H    0.026483
    83  H   -0.010982
    84  H    0.010412
    85  H   -0.024252
    86  H   -0.035660
    87  H   -0.007948
    88  H   -0.000036
    89  H   -0.013256
    90  H   -0.020493
    91  H   -0.013489
    92  H   -0.013405
    93  H   -0.004072
    94  H    0.006239
    95  H    0.019523
    96  H   -0.005105
    97  H   -0.003294
    98  H   -0.001008
    99  H    0.016284
   100  H    0.025386
   101  H    0.015510
   102  H   -0.027141
   103  H    0.013030
   104  H   -0.038447
   105  H    0.007195
   106  H    0.001908
   107  H    0.001927
   108  H   -0.037289
   109  H   -0.009834
   110  H   -0.030329
   111  H   -0.022608
   112  H   -0.037369
   113  H   -0.040402
   114  H   -0.031342
   115  H   -0.006727
   116  H   -0.027857
   117  H   -0.030245
   118  H   -0.044675
   119  H   -0.019889
   120  H   -0.012374
   121  H   -0.033484
   122  H   -0.024763
   123  H   -0.030949
   124  H   -0.030436
   125  H   -0.009488
   126  H   -0.021388
   127  H   -0.021689
   128  H   -0.049952
   129  H   -0.030015
   130  H   -0.012892
   131  H   -0.029999
   132  H   -0.054484
   133  H   -0.037804
   134  H   -0.037167
   135  H   -0.008625
   136  H   -0.005945
   137  H   -0.016997
   138  H   -0.018759
   139  H   -0.032294
   140  H   -0.042616
 Sum of Mulliken charges =  -0.00000

 Dipole moment (field-independent basis, Debye):
    X=             -2.7916    Y=              4.0530    Z=              0.1772  Tot=              4.9246
 Quadrupole moment (field-independent basis, Debye-Ang):
   XX=           -377.1524   YY=           -415.3204   ZZ=           -412.7343
   XY=              0.8921   XZ=             18.8481   YZ=             -1.1557

 Normal termination of Gaussian 16 at Wed May  4 01:29:30 2022.
