 Gaussian 16, Revision A.03,
 Gaussian 16:  ES64L-G16RevA.03 25-Dec-2016

 -----------------------------------
 #p cam-b3lyp/Def2SVP td=(nstates=5)
 -----------------------------------

 --------------------------------------------------------
 step_1151_chromophore_25 TDDFT with cam-b3lyp functional
 --------------------------------------------------------
 Symbolic Z-matrix:
 Charge =  0 Multiplicity = 1

                         Standard orientation:
 ---------------------------------------------------------------------
 Center     Atomic      Atomic             Coordinates (Angstroms)
 Number     Number       Type             X           Y           Z
 ---------------------------------------------------------------------
      1         12           0        5.824693    0.410590    0.480907
      2          6           0        3.622274   -2.174630    0.223003
      3          6           0        3.316538    2.673988   -0.326772
      4          6           0        8.185863    2.626240   -0.471607
      5          6           0        8.473927   -2.058275    0.649153
      6          7           0        3.696733    0.283960   -0.065894
      7          6           0        3.010308   -0.880498    0.064316
      8          6           0        1.463865   -0.604168   -0.042446
      9          6           0        1.407258    0.970991   -0.273277
     10          6           0        2.889025    1.378122   -0.140400
     11          6           0        0.692227    1.520014   -1.523260
     12          6           0        0.592304   -1.132520    1.211572
     13          6           0       -0.704860   -2.000202    0.978088
     14          6           0       -1.990099   -1.405385    1.375120
     15          8           0       -2.366987   -1.277673    2.553190
     16          8           0       -2.768911   -0.994459    0.265586
     17          7           0        5.735589    2.421545   -0.094863
     18          6           0        4.642406    3.163235   -0.343290
     19          6           0        5.129147    4.600503   -0.724309
     20          6           0        6.539403    4.636771   -0.768712
     21          6           0        6.863146    3.182973   -0.482903
     22          6           0        4.155111    5.615038   -0.950277
     23          6           0        7.551059    5.802323   -0.953008
     24          8           0        8.781683    5.675536   -0.915857
     25          6           0        7.023173    7.179569   -1.269862
     26          7           0        8.003562    0.295195   -0.020642
     27          6           0        8.715826    1.419214   -0.288079
     28          6           0       10.209024    1.131355   -0.387798
     29          6           0       10.313748   -0.300316    0.207648
     30          6           0        8.863411   -0.741821    0.351359
     31          6           0       10.707095    1.260582   -1.842019
     32          6           0       11.137453   -0.490493    1.463262
     33          6           0       10.771230    0.507579    2.612142
     34          7           0        6.101000   -1.693553    0.633714
     35          6           0        7.163059   -2.548456    0.682879
     36          6           0        6.718279   -3.948185    0.920625
     37          6           0        5.312950   -3.796816    0.732650
     38          6           0        5.020673   -2.470369    0.530992
     39          6           0        7.587156   -5.057184    0.977150
     40          6           0        4.081623   -4.569985    0.570509
     41          8           0        3.799872   -5.774604    0.596002
     42          6           0        2.878566   -3.541526    0.364096
     43          6           0        2.292293   -3.850643   -0.940732
     44          8           0        2.875224   -3.862197   -2.055188
     45          8           0        1.146005   -4.423218   -0.574641
     46          6           0        0.381348   -5.111026   -1.597892
     47          6           0       -3.956359   -0.190075    0.567878
     48          6           0       -5.005296   -0.523183   -0.505953
     49          6           0       -5.960445   -1.510228   -0.397959
     50          6           0       -6.094806   -2.423309    0.777268
     51          6           0       -7.160703   -1.559800   -1.390972
     52          6           0       -8.180357   -0.375488   -1.336726
     53          6           0       -8.820223   -0.215906   -2.731539
     54          6           0      -10.361061   -0.590909   -2.741731
     55          6           0      -10.632509   -1.785994   -3.642140
     56          6           0      -11.131196    0.687079   -3.055374
     57          6           0      -12.663276    0.450311   -2.706267
     58          6           0      -13.165009    1.374978   -1.470844
     59          6           0      -13.610705    0.522443   -0.239955
     60          6           0      -14.908780   -0.326028   -0.537212
     61          6           0      -13.817154    1.492559    0.974428
     62          6           0      -12.936719    1.022759    2.123921
     63          6           0      -11.824310    2.096755    2.402391
     64          6           0      -11.505959    2.492386    3.856154
     65          6           0      -11.323385    3.981294    4.164592
     66          6           0      -10.342944    1.625257    4.356872
     67          1           0        2.536874    3.430533   -0.438061
     68          1           0        9.039488    3.200873   -0.838041
     69          1           0        9.235141   -2.736356    1.042584
     70          1           0        1.133862   -1.109961   -0.949946
     71          1           0        0.845566    1.363657    0.574337
     72          1           0        0.238612    0.715962   -2.102199
     73          1           0        1.397435    2.022089   -2.184875
     74          1           0       -0.171985    2.105602   -1.208015
     75          1           0        0.121485   -0.325183    1.773908
     76          1           0        1.282058   -1.577810    1.928889
     77          1           0       -0.569061   -2.943734    1.504707
     78          1           0       -0.792917   -2.441200   -0.014831
     79          1           0        4.204580    6.194135   -0.028558
     80          1           0        3.117767    5.308065   -1.083570
     81          1           0        4.471281    6.255893   -1.773596
     82          1           0        6.609352    7.265656   -2.274934
     83          1           0        7.952276    7.749021   -1.287677
     84          1           0        6.411932    7.594993   -0.468766
     85          1           0       10.791392    1.754377    0.290490
     86          1           0       10.757139   -0.953967   -0.543095
     87          1           0       11.696066    1.719472   -1.833061
     88          1           0       10.049605    1.851507   -2.479545
     89          1           0       10.804721    0.310066   -2.366435
     90          1           0       12.152869   -0.229920    1.164457
     91          1           0       11.012024   -1.505070    1.842579
     92          1           0       11.650884    1.093440    2.879496
     93          1           0       10.413348   -0.035924    3.486693
     94          1           0       10.056264    1.260721    2.280679
     95          1           0        8.065964   -5.269374    0.020506
     96          1           0        6.954423   -5.916616    1.200771
     97          1           0        8.258415   -4.963269    1.829866
     98          1           0        2.121493   -3.530758    1.149427
     99          1           0       -0.119100   -5.910596   -1.052640
    100          1           0        1.027513   -5.527316   -2.370958
    101          1           0       -0.370999   -4.494975   -2.092553
    102          1           0       -3.624505    0.808685    0.283616
    103          1           0       -4.282150   -0.287248    1.603194
    104          1           0       -5.149477    0.228497   -1.283007
    105          1           0       -6.742222   -1.912334    1.490139
    106          1           0       -5.156730   -2.543966    1.318565
    107          1           0       -6.488903   -3.379006    0.429481
    108          1           0       -7.853018   -2.379124   -1.196802
    109          1           0       -6.810932   -1.680590   -2.416132
    110          1           0       -7.664595    0.540578   -1.048278
    111          1           0       -8.997597   -0.614709   -0.656516
    112          1           0       -8.255816   -0.755083   -3.492130
    113          1           0       -8.628720    0.818861   -3.017312
    114          1           0      -10.812339   -0.785377   -1.768100
    115          1           0      -10.998246   -2.720684   -3.217355
    116          1           0       -9.758566   -1.984322   -4.263608
    117          1           0      -11.362358   -1.446003   -4.378045
    118          1           0      -11.077288    0.812330   -4.137024
    119          1           0      -10.629759    1.529350   -2.578754
    120          1           0      -12.799130   -0.605059   -2.468845
    121          1           0      -13.217969    0.834157   -3.562614
    122          1           0      -13.884556    2.068603   -1.906146
    123          1           0      -12.288657    1.949042   -1.167952
    124          1           0      -12.869455   -0.242636   -0.010215
    125          1           0      -14.747058   -1.404115   -0.504820
    126          1           0      -15.264739   -0.026910   -1.523343
    127          1           0      -15.733979   -0.072119    0.127242
    128          1           0      -14.883315    1.459950    1.197979
    129          1           0      -13.699058    2.538571    0.690379
    130          1           0      -12.367883    0.108973    1.953983
    131          1           0      -13.583720    0.980760    3.000058
    132          1           0      -12.008647    3.085390    1.981203
    133          1           0      -10.914799    1.750508    1.909955
    134          1           0      -12.342104    2.179612    4.482082
    135          1           0      -11.298589    4.117145    5.245090
    136          1           0      -12.120424    4.514976    3.646540
    137          1           0      -10.349878    4.281644    3.775991
    138          1           0       -9.972929    0.716524    3.883708
    139          1           0      -10.408460    1.386448    5.418827
    140          1           0       -9.414474    2.195061    4.362583
 ---------------------------------------------------------------------

 SCF Done:  E(RCAM-B3LYP) =  -3007.11218020     A.U. after   19 cycles

 Excitation energies and oscillator strengths:

 Excited State   1:      Singlet-A      1.7032 eV  727.95 nm  f=0.3944  <S**2>=0.000
     245 -> 248        0.17531
     246 -> 247        0.68419
     245 <- 248        0.10289
 This state for optimization and/or second-order correction.
 Total Energy, E(TD-HF/TD-DFT) =  -3007.04958876
 Copying the excited state density for this state as the 1-particle RhoCI density.

 Excited State   2:      Singlet-A      2.2342 eV  554.94 nm  f=0.0875  <S**2>=0.000
     245 -> 247        0.62811
     246 -> 248       -0.30277

 Excited State   3:      Singlet-A      3.3880 eV  365.95 nm  f=0.4331  <S**2>=0.000
     244 -> 247        0.22307
     245 -> 247        0.25791
     246 -> 248        0.58950
     246 -> 250        0.13368

 Excited State   4:      Singlet-A      3.5281 eV  351.42 nm  f=0.0184  <S**2>=0.000
     240 -> 247       -0.11770
     244 -> 247        0.54241
     246 -> 249        0.25411
     246 -> 250       -0.30434

 Excited State   5:      Singlet-A      3.5788 eV  346.44 nm  f=0.2093  <S**2>=0.000
     244 -> 247        0.32905
     245 -> 247       -0.14871
     246 -> 248       -0.19464
     246 -> 249       -0.25096
     246 -> 250        0.49600

 The electronic state is 1-A.
 Alpha  occ. eigenvalues --  -46.90019 -19.25908 -19.24303 -19.20148 -19.20005
 Alpha  occ. eigenvalues --  -19.19058 -19.18481 -14.42192 -14.40936 -14.40747
 Alpha  occ. eigenvalues --  -14.38646 -10.39544 -10.38651 -10.36779 -10.34894
 Alpha  occ. eigenvalues --  -10.31758 -10.31739 -10.31458 -10.31336 -10.31025
 Alpha  occ. eigenvalues --  -10.31012 -10.29976 -10.29871 -10.29374 -10.28954
 Alpha  occ. eigenvalues --  -10.28626 -10.28612 -10.28328 -10.28269 -10.28160
 Alpha  occ. eigenvalues --  -10.28140 -10.27767 -10.27400 -10.27277 -10.27275
 Alpha  occ. eigenvalues --  -10.27118 -10.27070 -10.26947 -10.26718 -10.26458
 Alpha  occ. eigenvalues --  -10.26219 -10.26168 -10.25973 -10.25906 -10.25895
 Alpha  occ. eigenvalues --  -10.25748 -10.25688 -10.25625 -10.25524 -10.25392
 Alpha  occ. eigenvalues --  -10.25388 -10.25199 -10.25173 -10.25141 -10.25135
 Alpha  occ. eigenvalues --  -10.25111 -10.25096 -10.24935 -10.24891 -10.24816
 Alpha  occ. eigenvalues --  -10.24697 -10.24541 -10.24437 -10.24376 -10.24355
 Alpha  occ. eigenvalues --  -10.23879  -3.18320  -1.93192  -1.92791  -1.92610
 Alpha  occ. eigenvalues --   -1.17271  -1.14499  -1.10321  -1.08461  -1.06775
 Alpha  occ. eigenvalues --   -1.06341  -1.03972  -1.03283  -1.02592  -1.01760
 Alpha  occ. eigenvalues --   -0.91392  -0.90269  -0.89381  -0.89130  -0.88887
 Alpha  occ. eigenvalues --   -0.88710  -0.88441  -0.88065  -0.87475  -0.87250
 Alpha  occ. eigenvalues --   -0.87042  -0.85628  -0.84282  -0.84104  -0.83131
 Alpha  occ. eigenvalues --   -0.82466  -0.82261  -0.81604  -0.80908  -0.80292
 Alpha  occ. eigenvalues --   -0.79346  -0.78881  -0.78068  -0.76804  -0.75814
 Alpha  occ. eigenvalues --   -0.75656  -0.75558  -0.74576  -0.74542  -0.74145
 Alpha  occ. eigenvalues --   -0.72982  -0.72128  -0.71166  -0.70459  -0.69578
 Alpha  occ. eigenvalues --   -0.68775  -0.68074  -0.67579  -0.66532  -0.65542
 Alpha  occ. eigenvalues --   -0.65495  -0.64536  -0.64406  -0.63485  -0.63438
 Alpha  occ. eigenvalues --   -0.63366  -0.62937  -0.62753  -0.62148  -0.59855
 Alpha  occ. eigenvalues --   -0.59406  -0.59361  -0.58966  -0.58030  -0.57966
 Alpha  occ. eigenvalues --   -0.57812  -0.57150  -0.56322  -0.56026  -0.55558
 Alpha  occ. eigenvalues --   -0.55331  -0.54886  -0.54414  -0.54258  -0.54162
 Alpha  occ. eigenvalues --   -0.53685  -0.53442  -0.53262  -0.53110  -0.53008
 Alpha  occ. eigenvalues --   -0.52643  -0.52348  -0.52252  -0.52064  -0.51806
 Alpha  occ. eigenvalues --   -0.51349  -0.51291  -0.50990  -0.50813  -0.50247
 Alpha  occ. eigenvalues --   -0.50199  -0.50103  -0.49864  -0.49651  -0.49439
 Alpha  occ. eigenvalues --   -0.49337  -0.49151  -0.48988  -0.48791  -0.48667
 Alpha  occ. eigenvalues --   -0.48401  -0.48308  -0.48102  -0.48010  -0.47838
 Alpha  occ. eigenvalues --   -0.47641  -0.47335  -0.47249  -0.46780  -0.46463
 Alpha  occ. eigenvalues --   -0.45995  -0.45836  -0.45695  -0.45497  -0.45222
 Alpha  occ. eigenvalues --   -0.45058  -0.44928  -0.44791  -0.44592  -0.44507
 Alpha  occ. eigenvalues --   -0.44380  -0.44299  -0.44105  -0.43927  -0.43764
 Alpha  occ. eigenvalues --   -0.43506  -0.43431  -0.43247  -0.43082  -0.42769
 Alpha  occ. eigenvalues --   -0.42750  -0.42584  -0.42478  -0.42297  -0.41985
 Alpha  occ. eigenvalues --   -0.41952  -0.41787  -0.41663  -0.41406  -0.41077
 Alpha  occ. eigenvalues --   -0.40944  -0.40745  -0.40700  -0.40307  -0.40068
 Alpha  occ. eigenvalues --   -0.39791  -0.39691  -0.39273  -0.38976  -0.38753
 Alpha  occ. eigenvalues --   -0.38615  -0.38575  -0.38542  -0.37580  -0.37074
 Alpha  occ. eigenvalues --   -0.36882  -0.36604  -0.36319  -0.36224  -0.36138
 Alpha  occ. eigenvalues --   -0.35613  -0.34861  -0.34464  -0.34010  -0.33891
 Alpha  occ. eigenvalues --   -0.33663  -0.33517  -0.32811  -0.32248  -0.30790
 Alpha  occ. eigenvalues --   -0.30690  -0.30233  -0.29693  -0.29211  -0.23702
 Alpha  occ. eigenvalues --   -0.20505
 Alpha virt. eigenvalues --   -0.08143  -0.01561  -0.00134   0.01153   0.01902
 Alpha virt. eigenvalues --    0.03615   0.03921   0.04911   0.05539   0.07399
 Alpha virt. eigenvalues --    0.07499   0.08231   0.08400   0.09004   0.09224

 Mulliken charges:
               1
     1  Mg   0.824804
     2  C   -0.032276
     3  C   -0.079346
     4  C   -0.009341
     5  C   -0.105506
     6  N   -0.294574
     7  C   -0.021908
     8  C   -0.014527
     9  C   -0.040371
    10  C    0.043342
    11  C    0.073664
    12  C    0.044269
    13  C    0.087465
    14  C    0.156668
    15  O   -0.257674
    16  O   -0.364357
    17  N   -0.360084
    18  C    0.133784
    19  C   -0.145847
    20  C   -0.012347
    21  C    0.125819
    22  C    0.097584
    23  C    0.026766
    24  O   -0.198714
    25  C    0.024521
    26  N   -0.278344
    27  C   -0.050621
    28  C   -0.021799
    29  C   -0.018212
    30  C    0.055358
    31  C    0.077202
    32  C    0.039697
    33  C   -0.021048
    34  N   -0.320140
    35  C    0.075814
    36  C   -0.157986
    37  C    0.003522
    38  C    0.124731
    39  C    0.114615
    40  C    0.069434
    41  O   -0.189880
    42  C   -0.032647
    43  C    0.218843
    44  O   -0.255887
    45  O   -0.301060
    46  C    0.163109
    47  C    0.289632
    48  C   -0.118549
    49  C   -0.155893
    50  C    0.081636
    51  C    0.032916
    52  C    0.028883
    53  C    0.047659
    54  C   -0.168175
    55  C    0.077966
    56  C    0.039139
    57  C   -0.000716
    58  C    0.039930
    59  C   -0.159795
    60  C    0.045802
    61  C    0.075410
    62  C    0.057084
    63  C    0.022158
    64  C   -0.129501
    65  C    0.053140
    66  C    0.019688
    67  H   -0.030920
    68  H   -0.015825
    69  H   -0.024701
    70  H    0.025378
    71  H    0.007377
    72  H    0.013129
    73  H    0.029927
    74  H    0.012778
    75  H    0.016140
    76  H    0.023497
    77  H    0.029537
    78  H    0.013872
    79  H    0.035291
    80  H    0.025509
    81  H    0.026787
    82  H    0.054060
    83  H    0.026280
    84  H    0.038776
    85  H    0.011364
    86  H    0.001315
    87  H    0.016674
    88  H    0.025163
    89  H    0.012968
    90  H    0.007803
    91  H    0.013765
    92  H    0.010869
    93  H    0.020710
    94  H    0.025112
    95  H    0.045601
    96  H    0.023172
    97  H    0.021172
    98  H    0.040062
    99  H    0.040139
   100  H    0.052390
   101  H    0.035630
   102  H    0.002678
   103  H    0.045579
   104  H   -0.006953
   105  H    0.030816
   106  H    0.025570
   107  H    0.026237
   108  H   -0.007571
   109  H    0.018997
   110  H   -0.002166
   111  H    0.003614
   112  H   -0.009025
   113  H   -0.009554
   114  H   -0.003830
   115  H    0.018337
   116  H   -0.002202
   117  H   -0.005063
   118  H   -0.015440
   119  H    0.007507
   120  H    0.012610
   121  H   -0.002898
   122  H    0.003407
   123  H   -0.004780
   124  H   -0.001840
   125  H    0.013912
   126  H    0.002443
   127  H    0.002727
   128  H   -0.018852
   129  H   -0.000569
   130  H    0.013521
   131  H   -0.000179
   132  H   -0.026474
   133  H   -0.010748
   134  H   -0.006222
   135  H    0.015710
   136  H    0.017294
   137  H    0.005476
   138  H    0.006387
   139  H   -0.006318
   140  H   -0.017862
 Sum of Mulliken charges =  -0.00000

 Dipole moment (field-independent basis, Debye):
    X=             -2.9650    Y=              5.1618    Z=             -0.0278  Tot=              5.9528
 Quadrupole moment (field-independent basis, Debye-Ang):
   XX=           -377.5552   YY=           -409.9049   ZZ=           -412.9287
   XY=              6.8405   XZ=             18.6512   YZ=             -2.0740

 Normal termination of Gaussian 16 at Wed May  4 00:23:15 2022.
