 Gaussian 16, Revision A.03,
 Gaussian 16:  ES64L-G16RevA.03 25-Dec-2016

 ---------------------------------
 #p PBE1PBE/Def2SVP td=(nstates=5)
 ---------------------------------

 ------------------------------------------------------
 step_1151_chromophore_25 TDDFT with PBE1PBE functional
 ------------------------------------------------------
 Symbolic Z-matrix:
 Charge =  0 Multiplicity = 1

                         Standard orientation:
 ---------------------------------------------------------------------
 Center     Atomic      Atomic             Coordinates (Angstroms)
 Number     Number       Type             X           Y           Z
 ---------------------------------------------------------------------
      1         12           0        5.824693    0.410590    0.480907
      2          6           0        3.622274   -2.174630    0.223003
      3          6           0        3.316538    2.673988   -0.326772
      4          6           0        8.185863    2.626240   -0.471607
      5          6           0        8.473927   -2.058275    0.649153
      6          7           0        3.696733    0.283960   -0.065894
      7          6           0        3.010308   -0.880498    0.064316
      8          6           0        1.463865   -0.604168   -0.042446
      9          6           0        1.407258    0.970991   -0.273277
     10          6           0        2.889025    1.378122   -0.140400
     11          6           0        0.692227    1.520014   -1.523260
     12          6           0        0.592304   -1.132520    1.211572
     13          6           0       -0.704860   -2.000202    0.978088
     14          6           0       -1.990099   -1.405385    1.375120
     15          8           0       -2.366987   -1.277673    2.553190
     16          8           0       -2.768911   -0.994459    0.265586
     17          7           0        5.735589    2.421545   -0.094863
     18          6           0        4.642406    3.163235   -0.343290
     19          6           0        5.129147    4.600503   -0.724309
     20          6           0        6.539403    4.636771   -0.768712
     21          6           0        6.863146    3.182973   -0.482903
     22          6           0        4.155111    5.615038   -0.950277
     23          6           0        7.551059    5.802323   -0.953008
     24          8           0        8.781683    5.675536   -0.915857
     25          6           0        7.023173    7.179569   -1.269862
     26          7           0        8.003562    0.295195   -0.020642
     27          6           0        8.715826    1.419214   -0.288079
     28          6           0       10.209024    1.131355   -0.387798
     29          6           0       10.313748   -0.300316    0.207648
     30          6           0        8.863411   -0.741821    0.351359
     31          6           0       10.707095    1.260582   -1.842019
     32          6           0       11.137453   -0.490493    1.463262
     33          6           0       10.771230    0.507579    2.612142
     34          7           0        6.101000   -1.693553    0.633714
     35          6           0        7.163059   -2.548456    0.682879
     36          6           0        6.718279   -3.948185    0.920625
     37          6           0        5.312950   -3.796816    0.732650
     38          6           0        5.020673   -2.470369    0.530992
     39          6           0        7.587156   -5.057184    0.977150
     40          6           0        4.081623   -4.569985    0.570509
     41          8           0        3.799872   -5.774604    0.596002
     42          6           0        2.878566   -3.541526    0.364096
     43          6           0        2.292293   -3.850643   -0.940732
     44          8           0        2.875224   -3.862197   -2.055188
     45          8           0        1.146005   -4.423218   -0.574641
     46          6           0        0.381348   -5.111026   -1.597892
     47          6           0       -3.956359   -0.190075    0.567878
     48          6           0       -5.005296   -0.523183   -0.505953
     49          6           0       -5.960445   -1.510228   -0.397959
     50          6           0       -6.094806   -2.423309    0.777268
     51          6           0       -7.160703   -1.559800   -1.390972
     52          6           0       -8.180357   -0.375488   -1.336726
     53          6           0       -8.820223   -0.215906   -2.731539
     54          6           0      -10.361061   -0.590909   -2.741731
     55          6           0      -10.632509   -1.785994   -3.642140
     56          6           0      -11.131196    0.687079   -3.055374
     57          6           0      -12.663276    0.450311   -2.706267
     58          6           0      -13.165009    1.374978   -1.470844
     59          6           0      -13.610705    0.522443   -0.239955
     60          6           0      -14.908780   -0.326028   -0.537212
     61          6           0      -13.817154    1.492559    0.974428
     62          6           0      -12.936719    1.022759    2.123921
     63          6           0      -11.824310    2.096755    2.402391
     64          6           0      -11.505959    2.492386    3.856154
     65          6           0      -11.323385    3.981294    4.164592
     66          6           0      -10.342944    1.625257    4.356872
     67          1           0        2.536874    3.430533   -0.438061
     68          1           0        9.039488    3.200873   -0.838041
     69          1           0        9.235141   -2.736356    1.042584
     70          1           0        1.133862   -1.109961   -0.949946
     71          1           0        0.845566    1.363657    0.574337
     72          1           0        0.238612    0.715962   -2.102199
     73          1           0        1.397435    2.022089   -2.184875
     74          1           0       -0.171985    2.105602   -1.208015
     75          1           0        0.121485   -0.325183    1.773908
     76          1           0        1.282058   -1.577810    1.928889
     77          1           0       -0.569061   -2.943734    1.504707
     78          1           0       -0.792917   -2.441200   -0.014831
     79          1           0        4.204580    6.194135   -0.028558
     80          1           0        3.117767    5.308065   -1.083570
     81          1           0        4.471281    6.255893   -1.773596
     82          1           0        6.609352    7.265656   -2.274934
     83          1           0        7.952276    7.749021   -1.287677
     84          1           0        6.411932    7.594993   -0.468766
     85          1           0       10.791392    1.754377    0.290490
     86          1           0       10.757139   -0.953967   -0.543095
     87          1           0       11.696066    1.719472   -1.833061
     88          1           0       10.049605    1.851507   -2.479545
     89          1           0       10.804721    0.310066   -2.366435
     90          1           0       12.152869   -0.229920    1.164457
     91          1           0       11.012024   -1.505070    1.842579
     92          1           0       11.650884    1.093440    2.879496
     93          1           0       10.413348   -0.035924    3.486693
     94          1           0       10.056264    1.260721    2.280679
     95          1           0        8.065964   -5.269374    0.020506
     96          1           0        6.954423   -5.916616    1.200771
     97          1           0        8.258415   -4.963269    1.829866
     98          1           0        2.121493   -3.530758    1.149427
     99          1           0       -0.119100   -5.910596   -1.052640
    100          1           0        1.027513   -5.527316   -2.370958
    101          1           0       -0.370999   -4.494975   -2.092553
    102          1           0       -3.624505    0.808685    0.283616
    103          1           0       -4.282150   -0.287248    1.603194
    104          1           0       -5.149477    0.228497   -1.283007
    105          1           0       -6.742222   -1.912334    1.490139
    106          1           0       -5.156730   -2.543966    1.318565
    107          1           0       -6.488903   -3.379006    0.429481
    108          1           0       -7.853018   -2.379124   -1.196802
    109          1           0       -6.810932   -1.680590   -2.416132
    110          1           0       -7.664595    0.540578   -1.048278
    111          1           0       -8.997597   -0.614709   -0.656516
    112          1           0       -8.255816   -0.755083   -3.492130
    113          1           0       -8.628720    0.818861   -3.017312
    114          1           0      -10.812339   -0.785377   -1.768100
    115          1           0      -10.998246   -2.720684   -3.217355
    116          1           0       -9.758566   -1.984322   -4.263608
    117          1           0      -11.362358   -1.446003   -4.378045
    118          1           0      -11.077288    0.812330   -4.137024
    119          1           0      -10.629759    1.529350   -2.578754
    120          1           0      -12.799130   -0.605059   -2.468845
    121          1           0      -13.217969    0.834157   -3.562614
    122          1           0      -13.884556    2.068603   -1.906146
    123          1           0      -12.288657    1.949042   -1.167952
    124          1           0      -12.869455   -0.242636   -0.010215
    125          1           0      -14.747058   -1.404115   -0.504820
    126          1           0      -15.264739   -0.026910   -1.523343
    127          1           0      -15.733979   -0.072119    0.127242
    128          1           0      -14.883315    1.459950    1.197979
    129          1           0      -13.699058    2.538571    0.690379
    130          1           0      -12.367883    0.108973    1.953983
    131          1           0      -13.583720    0.980760    3.000058
    132          1           0      -12.008647    3.085390    1.981203
    133          1           0      -10.914799    1.750508    1.909955
    134          1           0      -12.342104    2.179612    4.482082
    135          1           0      -11.298589    4.117145    5.245090
    136          1           0      -12.120424    4.514976    3.646540
    137          1           0      -10.349878    4.281644    3.775991
    138          1           0       -9.972929    0.716524    3.883708
    139          1           0      -10.408460    1.386448    5.418827
    140          1           0       -9.414474    2.195061    4.362583
 ---------------------------------------------------------------------

 SCF Done:  E(RPBE1PBE) =  -3005.30324892     A.U. after   16 cycles

 Excitation energies and oscillator strengths:

 Excited State   1:      Singlet-A      1.8482 eV  670.84 nm  f=0.3854  <S**2>=0.000
     245 -> 248       -0.15637
     246 -> 247        0.69154
     246 <- 247       -0.11034
 This state for optimization and/or second-order correction.
 Total Energy, E(TD-HF/TD-DFT) =  -3005.23532858
 Copying the excited state density for this state as the 1-particle RhoCI density.

 Excited State   2:      Singlet-A      2.2299 eV  556.02 nm  f=0.0872  <S**2>=0.000
     245 -> 247        0.64354
     246 -> 248        0.25437
     246 -> 249       -0.12222

 Excited State   3:      Singlet-A      3.0709 eV  403.74 nm  f=0.0190  <S**2>=0.000
     242 -> 247        0.59760
     242 -> 249       -0.12812
     242 -> 250        0.13861
     243 -> 247        0.14216
     246 -> 248       -0.24069
     246 -> 249       -0.11183

 Excited State   4:      Singlet-A      3.0805 eV  402.48 nm  f=0.0928  <S**2>=0.000
     242 -> 247        0.28800
     245 -> 247       -0.14754
     246 -> 248        0.53668
     246 -> 249        0.25528

 Excited State   5:      Singlet-A      3.1671 eV  391.48 nm  f=0.0038  <S**2>=0.000
     242 -> 247       -0.10300
     243 -> 247        0.60556
     244 -> 247       -0.22767
     246 -> 249        0.22851

 The electronic state is 1-A.
 Alpha  occ. eigenvalues --  -46.93418 -19.26559 -19.25041 -19.20307 -19.20211
 Alpha  occ. eigenvalues --  -19.19336 -19.18870 -14.41715 -14.40461 -14.40277
 Alpha  occ. eigenvalues --  -14.38391 -10.36578 -10.35667 -10.33779 -10.32201
 Alpha  occ. eigenvalues --  -10.29276 -10.29216 -10.29173 -10.28661 -10.28594
 Alpha  occ. eigenvalues --  -10.28496 -10.27883 -10.27275 -10.26938 -10.26803
 Alpha  occ. eigenvalues --  -10.26593 -10.26152 -10.26139 -10.26085 -10.25997
 Alpha  occ. eigenvalues --  -10.25916 -10.25437 -10.25172 -10.25001 -10.24917
 Alpha  occ. eigenvalues --  -10.24905 -10.24529 -10.24331 -10.24313 -10.23890
 Alpha  occ. eigenvalues --  -10.23846 -10.23675 -10.23642 -10.23633 -10.23483
 Alpha  occ. eigenvalues --  -10.23362 -10.23355 -10.23061 -10.23036 -10.23005
 Alpha  occ. eigenvalues --  -10.22973 -10.22850 -10.22771 -10.22754 -10.22747
 Alpha  occ. eigenvalues --  -10.22678 -10.22644 -10.22591 -10.22531 -10.22290
 Alpha  occ. eigenvalues --  -10.22193 -10.22024 -10.21943 -10.21917 -10.21781
 Alpha  occ. eigenvalues --  -10.21262  -3.15304  -1.88113  -1.87694  -1.87514
 Alpha  occ. eigenvalues --   -1.12077  -1.09295  -1.04897  -1.03325  -1.01650
 Alpha  occ. eigenvalues --   -1.01133  -0.98736  -0.97942  -0.97140  -0.96341
 Alpha  occ. eigenvalues --   -0.85816  -0.84381  -0.83484  -0.83334  -0.83048
 Alpha  occ. eigenvalues --   -0.82872  -0.82617  -0.82385  -0.81824  -0.81476
 Alpha  occ. eigenvalues --   -0.81359  -0.79864  -0.78611  -0.78309  -0.77341
 Alpha  occ. eigenvalues --   -0.76564  -0.76414  -0.75952  -0.75195  -0.74582
 Alpha  occ. eigenvalues --   -0.73494  -0.73153  -0.72358  -0.71140  -0.70177
 Alpha  occ. eigenvalues --   -0.69745  -0.69713  -0.68928  -0.68708  -0.68329
 Alpha  occ. eigenvalues --   -0.67311  -0.66599  -0.65550  -0.64776  -0.63972
 Alpha  occ. eigenvalues --   -0.63000  -0.62618  -0.61890  -0.60760  -0.59934
 Alpha  occ. eigenvalues --   -0.59693  -0.59123  -0.58962  -0.57937  -0.57680
 Alpha  occ. eigenvalues --   -0.57531  -0.57280  -0.57098  -0.56733  -0.54273
 Alpha  occ. eigenvalues --   -0.53970  -0.53763  -0.53528  -0.52665  -0.52575
 Alpha  occ. eigenvalues --   -0.52255  -0.51601  -0.50843  -0.50516  -0.50065
 Alpha  occ. eigenvalues --   -0.49871  -0.49383  -0.48974  -0.48773  -0.48676
 Alpha  occ. eigenvalues --   -0.48101  -0.47781  -0.47697  -0.47560  -0.47499
 Alpha  occ. eigenvalues --   -0.47307  -0.46946  -0.46710  -0.46631  -0.46404
 Alpha  occ. eigenvalues --   -0.45972  -0.45824  -0.45440  -0.45312  -0.44967
 Alpha  occ. eigenvalues --   -0.44793  -0.44645  -0.44394  -0.44218  -0.44081
 Alpha  occ. eigenvalues --   -0.43943  -0.43707  -0.43583  -0.43446  -0.43217
 Alpha  occ. eigenvalues --   -0.43086  -0.42910  -0.42754  -0.42673  -0.42384
 Alpha  occ. eigenvalues --   -0.42334  -0.41944  -0.41851  -0.41505  -0.41186
 Alpha  occ. eigenvalues --   -0.40694  -0.40612  -0.40381  -0.40264  -0.39907
 Alpha  occ. eigenvalues --   -0.39775  -0.39666  -0.39436  -0.39294  -0.39249
 Alpha  occ. eigenvalues --   -0.39157  -0.39049  -0.38757  -0.38674  -0.38525
 Alpha  occ. eigenvalues --   -0.38317  -0.38160  -0.37979  -0.37863  -0.37552
 Alpha  occ. eigenvalues --   -0.37484  -0.37371  -0.37304  -0.37098  -0.36801
 Alpha  occ. eigenvalues --   -0.36712  -0.36658  -0.36394  -0.36270  -0.35954
 Alpha  occ. eigenvalues --   -0.35787  -0.35521  -0.35514  -0.35231  -0.34885
 Alpha  occ. eigenvalues --   -0.34744  -0.34461  -0.34092  -0.33912  -0.33617
 Alpha  occ. eigenvalues --   -0.33574  -0.33485  -0.33391  -0.32613  -0.31875
 Alpha  occ. eigenvalues --   -0.31684  -0.31599  -0.31277  -0.31206  -0.31098
 Alpha  occ. eigenvalues --   -0.30593  -0.29740  -0.29327  -0.29208  -0.28844
 Alpha  occ. eigenvalues --   -0.28542  -0.28531  -0.28277  -0.26964  -0.26406
 Alpha  occ. eigenvalues --   -0.26163  -0.25248  -0.25027  -0.25019  -0.20604
 Alpha  occ. eigenvalues --   -0.18169
 Alpha virt. eigenvalues --   -0.10651  -0.05167  -0.04201  -0.02529  -0.01569
 Alpha virt. eigenvalues --   -0.00894  -0.00623   0.00310   0.01122   0.03395
 Alpha virt. eigenvalues --    0.04259   0.04453   0.04880   0.05376   0.05837

 Mulliken charges:
               1
     1  Mg   0.962288
     2  C   -0.036605
     3  C   -0.080392
     4  C   -0.005067
     5  C   -0.095173
     6  N   -0.397206
     7  C    0.053417
     8  C   -0.083146
     9  C   -0.109499
    10  C    0.080080
    11  C    0.012719
    12  C   -0.009453
    13  C    0.015780
    14  C    0.217297
    15  O   -0.289404
    16  O   -0.391704
    17  N   -0.468399
    18  C    0.167556
    19  C   -0.190608
    20  C   -0.041627
    21  C    0.150358
    22  C    0.037626
    23  C    0.073080
    24  O   -0.235752
    25  C   -0.046036
    26  N   -0.374590
    27  C   -0.023613
    28  C   -0.100972
    29  C   -0.091796
    30  C    0.095368
    31  C    0.023292
    32  C   -0.027372
    33  C   -0.092023
    34  N   -0.441908
    35  C    0.094343
    36  C   -0.160671
    37  C   -0.051651
    38  C    0.171915
    39  C    0.052601
    40  C    0.165632
    41  O   -0.233015
    42  C   -0.152305
    43  C    0.317193
    44  O   -0.289838
    45  O   -0.335619
    46  C    0.109269
    47  C    0.242363
    48  C   -0.130989
    49  C   -0.191856
    50  C    0.013430
    51  C   -0.027106
    52  C   -0.034239
    53  C   -0.004985
    54  C   -0.258387
    55  C    0.019818
    56  C   -0.012238
    57  C   -0.067110
    58  C   -0.014851
    59  C   -0.244873
    60  C   -0.011405
    61  C    0.025186
    62  C   -0.013081
    63  C   -0.029029
    64  C   -0.221695
    65  C   -0.012603
    66  C   -0.036729
    67  H    0.002371
    68  H    0.016174
    69  H    0.006099
    70  H    0.063988
    71  H    0.045633
    72  H    0.040736
    73  H    0.057404
    74  H    0.039520
    75  H    0.049120
    76  H    0.054425
    77  H    0.061614
    78  H    0.047851
    79  H    0.063616
    80  H    0.050872
    81  H    0.054155
    82  H    0.079007
    83  H    0.053584
    84  H    0.064639
    85  H    0.048175
    86  H    0.039903
    87  H    0.044361
    88  H    0.052746
    89  H    0.039600
    90  H    0.042242
    91  H    0.046582
    92  H    0.039156
    93  H    0.048527
    94  H    0.055123
    95  H    0.073715
    96  H    0.053587
    97  H    0.049327
    98  H    0.077748
    99  H    0.061705
   100  H    0.072909
   101  H    0.056640
   102  H    0.032118
   103  H    0.070136
   104  H    0.022002
   105  H    0.059385
   106  H    0.054461
   107  H    0.053430
   108  H    0.025654
   109  H    0.050777
   110  H    0.030607
   111  H    0.036158
   112  H    0.021655
   113  H    0.022593
   114  H    0.037921
   115  H    0.044868
   116  H    0.025546
   117  H    0.023029
   118  H    0.019045
   119  H    0.038393
   120  H    0.044851
   121  H    0.030545
   122  H    0.034895
   123  H    0.030080
   124  H    0.036403
   125  H    0.040217
   126  H    0.030668
   127  H    0.029536
   128  H    0.013895
   129  H    0.029855
   130  H    0.044347
   131  H    0.032859
   132  H    0.006087
   133  H    0.022261
   134  H    0.032614
   135  H    0.043620
   136  H    0.044739
   137  H    0.033431
   138  H    0.032738
   139  H    0.021717
   140  H    0.010016
 Sum of Mulliken charges =  -0.00000

 Dipole moment (field-independent basis, Debye):
    X=             -2.9057    Y=              4.7687    Z=              0.0605  Tot=              5.5846
 Quadrupole moment (field-independent basis, Debye-Ang):
   XX=           -370.6319   YY=           -407.5988   ZZ=           -410.3466
   XY=              3.5073   XZ=             19.6802   YZ=             -2.2348

 Normal termination of Gaussian 16 at Wed May  4 00:41:15 2022.
