 Gaussian 16, Revision A.03,
 Gaussian 16:  ES64L-G16RevA.03 25-Dec-2016

 --------------------------------
 #p wB97XD/Def2SVP td=(nstates=5)
 --------------------------------

 -----------------------------------------------------
 step_1151_chromophore_25 TDDFT with wB97XD functional
 -----------------------------------------------------
 Symbolic Z-matrix:
 Charge =  0 Multiplicity = 1

                         Standard orientation:
 ---------------------------------------------------------------------
 Center     Atomic      Atomic             Coordinates (Angstroms)
 Number     Number       Type             X           Y           Z
 ---------------------------------------------------------------------
      1         12           0        5.824693    0.410590    0.480907
      2          6           0        3.622274   -2.174630    0.223003
      3          6           0        3.316538    2.673988   -0.326772
      4          6           0        8.185863    2.626240   -0.471607
      5          6           0        8.473927   -2.058275    0.649153
      6          7           0        3.696733    0.283960   -0.065894
      7          6           0        3.010308   -0.880498    0.064316
      8          6           0        1.463865   -0.604168   -0.042446
      9          6           0        1.407258    0.970991   -0.273277
     10          6           0        2.889025    1.378122   -0.140400
     11          6           0        0.692227    1.520014   -1.523260
     12          6           0        0.592304   -1.132520    1.211572
     13          6           0       -0.704860   -2.000202    0.978088
     14          6           0       -1.990099   -1.405385    1.375120
     15          8           0       -2.366987   -1.277673    2.553190
     16          8           0       -2.768911   -0.994459    0.265586
     17          7           0        5.735589    2.421545   -0.094863
     18          6           0        4.642406    3.163235   -0.343290
     19          6           0        5.129147    4.600503   -0.724309
     20          6           0        6.539403    4.636771   -0.768712
     21          6           0        6.863146    3.182973   -0.482903
     22          6           0        4.155111    5.615038   -0.950277
     23          6           0        7.551059    5.802323   -0.953008
     24          8           0        8.781683    5.675536   -0.915857
     25          6           0        7.023173    7.179569   -1.269862
     26          7           0        8.003562    0.295195   -0.020642
     27          6           0        8.715826    1.419214   -0.288079
     28          6           0       10.209024    1.131355   -0.387798
     29          6           0       10.313748   -0.300316    0.207648
     30          6           0        8.863411   -0.741821    0.351359
     31          6           0       10.707095    1.260582   -1.842019
     32          6           0       11.137453   -0.490493    1.463262
     33          6           0       10.771230    0.507579    2.612142
     34          7           0        6.101000   -1.693553    0.633714
     35          6           0        7.163059   -2.548456    0.682879
     36          6           0        6.718279   -3.948185    0.920625
     37          6           0        5.312950   -3.796816    0.732650
     38          6           0        5.020673   -2.470369    0.530992
     39          6           0        7.587156   -5.057184    0.977150
     40          6           0        4.081623   -4.569985    0.570509
     41          8           0        3.799872   -5.774604    0.596002
     42          6           0        2.878566   -3.541526    0.364096
     43          6           0        2.292293   -3.850643   -0.940732
     44          8           0        2.875224   -3.862197   -2.055188
     45          8           0        1.146005   -4.423218   -0.574641
     46          6           0        0.381348   -5.111026   -1.597892
     47          6           0       -3.956359   -0.190075    0.567878
     48          6           0       -5.005296   -0.523183   -0.505953
     49          6           0       -5.960445   -1.510228   -0.397959
     50          6           0       -6.094806   -2.423309    0.777268
     51          6           0       -7.160703   -1.559800   -1.390972
     52          6           0       -8.180357   -0.375488   -1.336726
     53          6           0       -8.820223   -0.215906   -2.731539
     54          6           0      -10.361061   -0.590909   -2.741731
     55          6           0      -10.632509   -1.785994   -3.642140
     56          6           0      -11.131196    0.687079   -3.055374
     57          6           0      -12.663276    0.450311   -2.706267
     58          6           0      -13.165009    1.374978   -1.470844
     59          6           0      -13.610705    0.522443   -0.239955
     60          6           0      -14.908780   -0.326028   -0.537212
     61          6           0      -13.817154    1.492559    0.974428
     62          6           0      -12.936719    1.022759    2.123921
     63          6           0      -11.824310    2.096755    2.402391
     64          6           0      -11.505959    2.492386    3.856154
     65          6           0      -11.323385    3.981294    4.164592
     66          6           0      -10.342944    1.625257    4.356872
     67          1           0        2.536874    3.430533   -0.438061
     68          1           0        9.039488    3.200873   -0.838041
     69          1           0        9.235141   -2.736356    1.042584
     70          1           0        1.133862   -1.109961   -0.949946
     71          1           0        0.845566    1.363657    0.574337
     72          1           0        0.238612    0.715962   -2.102199
     73          1           0        1.397435    2.022089   -2.184875
     74          1           0       -0.171985    2.105602   -1.208015
     75          1           0        0.121485   -0.325183    1.773908
     76          1           0        1.282058   -1.577810    1.928889
     77          1           0       -0.569061   -2.943734    1.504707
     78          1           0       -0.792917   -2.441200   -0.014831
     79          1           0        4.204580    6.194135   -0.028558
     80          1           0        3.117767    5.308065   -1.083570
     81          1           0        4.471281    6.255893   -1.773596
     82          1           0        6.609352    7.265656   -2.274934
     83          1           0        7.952276    7.749021   -1.287677
     84          1           0        6.411932    7.594993   -0.468766
     85          1           0       10.791392    1.754377    0.290490
     86          1           0       10.757139   -0.953967   -0.543095
     87          1           0       11.696066    1.719472   -1.833061
     88          1           0       10.049605    1.851507   -2.479545
     89          1           0       10.804721    0.310066   -2.366435
     90          1           0       12.152869   -0.229920    1.164457
     91          1           0       11.012024   -1.505070    1.842579
     92          1           0       11.650884    1.093440    2.879496
     93          1           0       10.413348   -0.035924    3.486693
     94          1           0       10.056264    1.260721    2.280679
     95          1           0        8.065964   -5.269374    0.020506
     96          1           0        6.954423   -5.916616    1.200771
     97          1           0        8.258415   -4.963269    1.829866
     98          1           0        2.121493   -3.530758    1.149427
     99          1           0       -0.119100   -5.910596   -1.052640
    100          1           0        1.027513   -5.527316   -2.370958
    101          1           0       -0.370999   -4.494975   -2.092553
    102          1           0       -3.624505    0.808685    0.283616
    103          1           0       -4.282150   -0.287248    1.603194
    104          1           0       -5.149477    0.228497   -1.283007
    105          1           0       -6.742222   -1.912334    1.490139
    106          1           0       -5.156730   -2.543966    1.318565
    107          1           0       -6.488903   -3.379006    0.429481
    108          1           0       -7.853018   -2.379124   -1.196802
    109          1           0       -6.810932   -1.680590   -2.416132
    110          1           0       -7.664595    0.540578   -1.048278
    111          1           0       -8.997597   -0.614709   -0.656516
    112          1           0       -8.255816   -0.755083   -3.492130
    113          1           0       -8.628720    0.818861   -3.017312
    114          1           0      -10.812339   -0.785377   -1.768100
    115          1           0      -10.998246   -2.720684   -3.217355
    116          1           0       -9.758566   -1.984322   -4.263608
    117          1           0      -11.362358   -1.446003   -4.378045
    118          1           0      -11.077288    0.812330   -4.137024
    119          1           0      -10.629759    1.529350   -2.578754
    120          1           0      -12.799130   -0.605059   -2.468845
    121          1           0      -13.217969    0.834157   -3.562614
    122          1           0      -13.884556    2.068603   -1.906146
    123          1           0      -12.288657    1.949042   -1.167952
    124          1           0      -12.869455   -0.242636   -0.010215
    125          1           0      -14.747058   -1.404115   -0.504820
    126          1           0      -15.264739   -0.026910   -1.523343
    127          1           0      -15.733979   -0.072119    0.127242
    128          1           0      -14.883315    1.459950    1.197979
    129          1           0      -13.699058    2.538571    0.690379
    130          1           0      -12.367883    0.108973    1.953983
    131          1           0      -13.583720    0.980760    3.000058
    132          1           0      -12.008647    3.085390    1.981203
    133          1           0      -10.914799    1.750508    1.909955
    134          1           0      -12.342104    2.179612    4.482082
    135          1           0      -11.298589    4.117145    5.245090
    136          1           0      -12.120424    4.514976    3.646540
    137          1           0      -10.349878    4.281644    3.775991
    138          1           0       -9.972929    0.716524    3.883708
    139          1           0      -10.408460    1.386448    5.418827
    140          1           0       -9.414474    2.195061    4.362583
 ---------------------------------------------------------------------

 SCF Done:  E(RwB97XD) =  -3007.81108179     A.U. after   20 cycles

 Excitation energies and oscillator strengths:

 Excited State   1:      Singlet-A      1.6494 eV  751.67 nm  f=0.3926  <S**2>=0.000
     245 -> 248        0.18120
     246 -> 247        0.68182
     245 <- 248        0.11219
 This state for optimization and/or second-order correction.
 Total Energy, E(TD-HF/TD-DFT) =  -3007.75046563
 Copying the excited state density for this state as the 1-particle RhoCI density.

 Excited State   2:      Singlet-A      2.1816 eV  568.33 nm  f=0.0856  <S**2>=0.000
     245 -> 247        0.62631
     246 -> 248       -0.30594

 Excited State   3:      Singlet-A      3.4203 eV  362.49 nm  f=0.4904  <S**2>=0.000
     244 -> 247        0.26341
     245 -> 247        0.26554
     246 -> 248        0.58511
     245 <- 247       -0.10460

 Excited State   4:      Singlet-A      3.5843 eV  345.91 nm  f=0.1737  <S**2>=0.000
     240 -> 247       -0.11493
     241 -> 247       -0.16633
     244 -> 247        0.60304
     245 -> 247       -0.13795
     246 -> 248       -0.21237

 Excited State   5:      Singlet-A      3.6216 eV  342.34 nm  f=0.0008  <S**2>=0.000
     242 -> 247        0.53444
     242 -> 249       -0.26160
     242 -> 250        0.34129

 The electronic state is 1-A.
 Alpha  occ. eigenvalues --  -46.96345 -19.31096 -19.29575 -19.25209 -19.24980
 Alpha  occ. eigenvalues --  -19.24009 -19.23514 -14.46762 -14.45526 -14.45365
 Alpha  occ. eigenvalues --  -14.43183 -10.43385 -10.42477 -10.40803 -10.38907
 Alpha  occ. eigenvalues --  -10.35882 -10.35665 -10.35346 -10.35162 -10.35123
 Alpha  occ. eigenvalues --  -10.35070 -10.34071 -10.33948 -10.33402 -10.33023
 Alpha  occ. eigenvalues --  -10.32782 -10.32569 -10.32334 -10.32299 -10.32202
 Alpha  occ. eigenvalues --  -10.32201 -10.31779 -10.31315 -10.31312 -10.31310
 Alpha  occ. eigenvalues --  -10.31158 -10.31015 -10.31000 -10.30623 -10.30465
 Alpha  occ. eigenvalues --  -10.30086 -10.30077 -10.29967 -10.29896 -10.29849
 Alpha  occ. eigenvalues --  -10.29708 -10.29615 -10.29507 -10.29392 -10.29320
 Alpha  occ. eigenvalues --  -10.29320 -10.29164 -10.29131 -10.29105 -10.29003
 Alpha  occ. eigenvalues --  -10.29001 -10.28955 -10.28933 -10.28852 -10.28642
 Alpha  occ. eigenvalues --  -10.28627 -10.28372 -10.28367 -10.28268 -10.28204
 Alpha  occ. eigenvalues --  -10.27688  -3.22129  -1.95681  -1.95260  -1.95078
 Alpha  occ. eigenvalues --   -1.19445  -1.16682  -1.12571  -1.10668  -1.08999
 Alpha  occ. eigenvalues --   -1.08498  -1.05953  -1.05289  -1.04612  -1.03785
 Alpha  occ. eigenvalues --   -0.93334  -0.92046  -0.91154  -0.91059  -0.90697
 Alpha  occ. eigenvalues --   -0.90627  -0.90271  -0.89996  -0.89387  -0.89024
 Alpha  occ. eigenvalues --   -0.88935  -0.87521  -0.86183  -0.85961  -0.85060
 Alpha  occ. eigenvalues --   -0.84378  -0.84079  -0.83523  -0.82834  -0.82220
 Alpha  occ. eigenvalues --   -0.81166  -0.80864  -0.79967  -0.78697  -0.77758
 Alpha  occ. eigenvalues --   -0.77434  -0.77391  -0.76499  -0.76382  -0.75984
 Alpha  occ. eigenvalues --   -0.74905  -0.74095  -0.73114  -0.72388  -0.71497
 Alpha  occ. eigenvalues --   -0.70647  -0.70072  -0.69623  -0.68398  -0.67468
 Alpha  occ. eigenvalues --   -0.67348  -0.66526  -0.66397  -0.65377  -0.65319
 Alpha  occ. eigenvalues --   -0.65194  -0.64759  -0.64735  -0.64102  -0.61867
 Alpha  occ. eigenvalues --   -0.61315  -0.61292  -0.60953  -0.60004  -0.59943
 Alpha  occ. eigenvalues --   -0.59730  -0.59090  -0.58282  -0.57931  -0.57477
 Alpha  occ. eigenvalues --   -0.57301  -0.56790  -0.56329  -0.56155  -0.56077
 Alpha  occ. eigenvalues --   -0.55565  -0.55402  -0.55125  -0.55073  -0.54941
 Alpha  occ. eigenvalues --   -0.54598  -0.54255  -0.54108  -0.53956  -0.53739
 Alpha  occ. eigenvalues --   -0.53233  -0.53175  -0.52974  -0.52682  -0.52145
 Alpha  occ. eigenvalues --   -0.52104  -0.52041  -0.51794  -0.51538  -0.51360
 Alpha  occ. eigenvalues --   -0.51272  -0.51034  -0.50892  -0.50699  -0.50633
 Alpha  occ. eigenvalues --   -0.50334  -0.50193  -0.49985  -0.49908  -0.49694
 Alpha  occ. eigenvalues --   -0.49569  -0.49286  -0.49176  -0.48710  -0.48390
 Alpha  occ. eigenvalues --   -0.47902  -0.47759  -0.47610  -0.47387  -0.47097
 Alpha  occ. eigenvalues --   -0.46965  -0.46844  -0.46633  -0.46486  -0.46376
 Alpha  occ. eigenvalues --   -0.46262  -0.46211  -0.45955  -0.45841  -0.45696
 Alpha  occ. eigenvalues --   -0.45405  -0.45304  -0.45248  -0.45004  -0.44737
 Alpha  occ. eigenvalues --   -0.44648  -0.44504  -0.44404  -0.44243  -0.43897
 Alpha  occ. eigenvalues --   -0.43824  -0.43744  -0.43508  -0.43330  -0.42994
 Alpha  occ. eigenvalues --   -0.42850  -0.42598  -0.42593  -0.42225  -0.41925
 Alpha  occ. eigenvalues --   -0.41686  -0.41541  -0.41127  -0.40853  -0.40618
 Alpha  occ. eigenvalues --   -0.40476  -0.40452  -0.40437  -0.39487  -0.38922
 Alpha  occ. eigenvalues --   -0.38743  -0.38655  -0.38266  -0.38137  -0.38132
 Alpha  occ. eigenvalues --   -0.37628  -0.36706  -0.36386  -0.35979  -0.35771
 Alpha  occ. eigenvalues --   -0.35572  -0.35368  -0.35023  -0.34232  -0.33018
 Alpha  occ. eigenvalues --   -0.32910  -0.32191  -0.31739  -0.31343  -0.25628
 Alpha  occ. eigenvalues --   -0.22300
 Alpha virt. eigenvalues --   -0.06481   0.00375   0.01904   0.03977   0.04418
 Alpha virt. eigenvalues --    0.05884   0.06117   0.07098   0.07897   0.10074
 Alpha virt. eigenvalues --    0.10931   0.11280   0.11307   0.12067   0.12552

 Mulliken charges:
               1
     1  Mg   0.956485
     2  C   -0.039658
     3  C   -0.096034
     4  C   -0.022417
     5  C   -0.110704
     6  N   -0.363955
     7  C    0.019382
     8  C   -0.059271
     9  C   -0.086609
    10  C    0.068643
    11  C    0.024132
    12  C    0.004514
    13  C    0.027575
    14  C    0.210653
    15  O   -0.286696
    16  O   -0.391534
    17  N   -0.440529
    18  C    0.157977
    19  C   -0.168108
    20  C   -0.046781
    21  C    0.148714
    22  C    0.047045
    23  C    0.072825
    24  O   -0.229035
    25  C   -0.038661
    26  N   -0.343332
    27  C   -0.028023
    28  C   -0.076797
    29  C   -0.061102
    30  C    0.077043
    31  C    0.030739
    32  C   -0.011750
    33  C   -0.075562
    34  N   -0.405430
    35  C    0.084637
    36  C   -0.158948
    37  C   -0.047959
    38  C    0.154025
    39  C    0.062004
    40  C    0.146012
    41  O   -0.225323
    42  C   -0.104388
    43  C    0.286904
    44  O   -0.284352
    45  O   -0.331510
    46  C    0.123594
    47  C    0.254234
    48  C   -0.138820
    49  C   -0.181440
    50  C    0.029353
    51  C   -0.008914
    52  C   -0.016742
    53  C    0.010236
    54  C   -0.219673
    55  C    0.028429
    56  C    0.002180
    57  C   -0.048440
    58  C    0.002248
    59  C   -0.214785
    60  C   -0.000573
    61  C    0.038376
    62  C    0.006224
    63  C   -0.013962
    64  C   -0.192048
    65  C    0.002346
    66  C   -0.027590
    67  H   -0.005804
    68  H    0.008778
    69  H   -0.000430
    70  H    0.050292
    71  H    0.034382
    72  H    0.035820
    73  H    0.050688
    74  H    0.034887
    75  H    0.039870
    76  H    0.047203
    77  H    0.057089
    78  H    0.039461
    79  H    0.058952
    80  H    0.048975
    81  H    0.049149
    82  H    0.076080
    83  H    0.052341
    84  H    0.061187
    85  H    0.037458
    86  H    0.028710
    87  H    0.039452
    88  H    0.046203
    89  H    0.034759
    90  H    0.033672
    91  H    0.038561
    92  H    0.033728
    93  H    0.044008
    94  H    0.043182
    95  H    0.068721
    96  H    0.048530
    97  H    0.043490
    98  H    0.067470
    99  H    0.058447
   100  H    0.069563
   101  H    0.052717
   102  H    0.028180
   103  H    0.066556
   104  H    0.019086
   105  H    0.053020
   106  H    0.047909
   107  H    0.048335
   108  H    0.016455
   109  H    0.042249
   110  H    0.021625
   111  H    0.026842
   112  H    0.010679
   113  H    0.014670
   114  H    0.016514
   115  H    0.041311
   116  H    0.019284
   117  H    0.015443
   118  H    0.009005
   119  H    0.028838
   120  H    0.032095
   121  H    0.023745
   122  H    0.028099
   123  H    0.016689
   124  H    0.020728
   125  H    0.035797
   126  H    0.023169
   127  H    0.023367
   128  H    0.005530
   129  H    0.020807
   130  H    0.036233
   131  H    0.024881
   132  H   -0.006152
   133  H    0.012996
   134  H    0.020088
   135  H    0.038519
   136  H    0.038809
   137  H    0.025880
   138  H    0.027560
   139  H    0.016179
   140  H    0.002311
 Sum of Mulliken charges =  -0.00000

 Dipole moment (field-independent basis, Debye):
    X=             -2.9998    Y=              5.3859    Z=             -0.0336  Tot=              6.1651
 Quadrupole moment (field-independent basis, Debye-Ang):
   XX=           -372.3903   YY=           -405.2361   ZZ=           -410.0737
   XY=              7.6446   XZ=             19.0752   YZ=             -2.4103

 Normal termination of Gaussian 16 at Wed May  4 01:17:48 2022.
