 Gaussian 16, Revision A.03,
 Gaussian 16:  ES64L-G16RevA.03 25-Dec-2016

 --------------------
 #p ZINDO=(nstates=5)
 --------------------

 ------------------------------
 step_1151_chromophore_25 ZINDO
 ------------------------------
 Symbolic Z-matrix:
 Charge =  0 Multiplicity = 1

                         Standard orientation:
 ---------------------------------------------------------------------
 Center     Atomic      Atomic             Coordinates (Angstroms)
 Number     Number       Type             X           Y           Z
 ---------------------------------------------------------------------
      1         12           0        5.824693    0.410590    0.480907
      2          6           0        3.622274   -2.174630    0.223003
      3          6           0        3.316538    2.673988   -0.326772
      4          6           0        8.185863    2.626240   -0.471607
      5          6           0        8.473927   -2.058275    0.649153
      6          7           0        3.696733    0.283960   -0.065894
      7          6           0        3.010308   -0.880498    0.064316
      8          6           0        1.463865   -0.604168   -0.042446
      9          6           0        1.407258    0.970991   -0.273277
     10          6           0        2.889025    1.378122   -0.140400
     11          6           0        0.692227    1.520014   -1.523260
     12          6           0        0.592304   -1.132520    1.211572
     13          6           0       -0.704860   -2.000202    0.978088
     14          6           0       -1.990099   -1.405385    1.375120
     15          8           0       -2.366987   -1.277673    2.553190
     16          8           0       -2.768911   -0.994459    0.265586
     17          7           0        5.735589    2.421545   -0.094863
     18          6           0        4.642406    3.163235   -0.343290
     19          6           0        5.129147    4.600503   -0.724309
     20          6           0        6.539403    4.636771   -0.768712
     21          6           0        6.863146    3.182973   -0.482903
     22          6           0        4.155111    5.615038   -0.950277
     23          6           0        7.551059    5.802323   -0.953008
     24          8           0        8.781683    5.675536   -0.915857
     25          6           0        7.023173    7.179569   -1.269862
     26          7           0        8.003562    0.295195   -0.020642
     27          6           0        8.715826    1.419214   -0.288079
     28          6           0       10.209024    1.131355   -0.387798
     29          6           0       10.313748   -0.300316    0.207648
     30          6           0        8.863411   -0.741821    0.351359
     31          6           0       10.707095    1.260582   -1.842019
     32          6           0       11.137453   -0.490493    1.463262
     33          6           0       10.771230    0.507579    2.612142
     34          7           0        6.101000   -1.693553    0.633714
     35          6           0        7.163059   -2.548456    0.682879
     36          6           0        6.718279   -3.948185    0.920625
     37          6           0        5.312950   -3.796816    0.732650
     38          6           0        5.020673   -2.470369    0.530992
     39          6           0        7.587156   -5.057184    0.977150
     40          6           0        4.081623   -4.569985    0.570509
     41          8           0        3.799872   -5.774604    0.596002
     42          6           0        2.878566   -3.541526    0.364096
     43          6           0        2.292293   -3.850643   -0.940732
     44          8           0        2.875224   -3.862197   -2.055188
     45          8           0        1.146005   -4.423218   -0.574641
     46          6           0        0.381348   -5.111026   -1.597892
     47          6           0       -3.956359   -0.190075    0.567878
     48          6           0       -5.005296   -0.523183   -0.505953
     49          6           0       -5.960445   -1.510228   -0.397959
     50          6           0       -6.094806   -2.423309    0.777268
     51          6           0       -7.160703   -1.559800   -1.390972
     52          6           0       -8.180357   -0.375488   -1.336726
     53          6           0       -8.820223   -0.215906   -2.731539
     54          6           0      -10.361061   -0.590909   -2.741731
     55          6           0      -10.632509   -1.785994   -3.642140
     56          6           0      -11.131196    0.687079   -3.055374
     57          6           0      -12.663276    0.450311   -2.706267
     58          6           0      -13.165009    1.374978   -1.470844
     59          6           0      -13.610705    0.522443   -0.239955
     60          6           0      -14.908780   -0.326028   -0.537212
     61          6           0      -13.817154    1.492559    0.974428
     62          6           0      -12.936719    1.022759    2.123921
     63          6           0      -11.824310    2.096755    2.402391
     64          6           0      -11.505959    2.492386    3.856154
     65          6           0      -11.323385    3.981294    4.164592
     66          6           0      -10.342944    1.625257    4.356872
     67          1           0        2.536874    3.430533   -0.438061
     68          1           0        9.039488    3.200873   -0.838041
     69          1           0        9.235141   -2.736356    1.042584
     70          1           0        1.133862   -1.109961   -0.949946
     71          1           0        0.845566    1.363657    0.574337
     72          1           0        0.238612    0.715962   -2.102199
     73          1           0        1.397435    2.022089   -2.184875
     74          1           0       -0.171985    2.105602   -1.208015
     75          1           0        0.121485   -0.325183    1.773908
     76          1           0        1.282058   -1.577810    1.928889
     77          1           0       -0.569061   -2.943734    1.504707
     78          1           0       -0.792917   -2.441200   -0.014831
     79          1           0        4.204580    6.194135   -0.028558
     80          1           0        3.117767    5.308065   -1.083570
     81          1           0        4.471281    6.255893   -1.773596
     82          1           0        6.609352    7.265656   -2.274934
     83          1           0        7.952276    7.749021   -1.287677
     84          1           0        6.411932    7.594993   -0.468766
     85          1           0       10.791392    1.754377    0.290490
     86          1           0       10.757139   -0.953967   -0.543095
     87          1           0       11.696066    1.719472   -1.833061
     88          1           0       10.049605    1.851507   -2.479545
     89          1           0       10.804721    0.310066   -2.366435
     90          1           0       12.152869   -0.229920    1.164457
     91          1           0       11.012024   -1.505070    1.842579
     92          1           0       11.650884    1.093440    2.879496
     93          1           0       10.413348   -0.035924    3.486693
     94          1           0       10.056264    1.260721    2.280679
     95          1           0        8.065964   -5.269374    0.020506
     96          1           0        6.954423   -5.916616    1.200771
     97          1           0        8.258415   -4.963269    1.829866
     98          1           0        2.121493   -3.530758    1.149427
     99          1           0       -0.119100   -5.910596   -1.052640
    100          1           0        1.027513   -5.527316   -2.370958
    101          1           0       -0.370999   -4.494975   -2.092553
    102          1           0       -3.624505    0.808685    0.283616
    103          1           0       -4.282150   -0.287248    1.603194
    104          1           0       -5.149477    0.228497   -1.283007
    105          1           0       -6.742222   -1.912334    1.490139
    106          1           0       -5.156730   -2.543966    1.318565
    107          1           0       -6.488903   -3.379006    0.429481
    108          1           0       -7.853018   -2.379124   -1.196802
    109          1           0       -6.810932   -1.680590   -2.416132
    110          1           0       -7.664595    0.540578   -1.048278
    111          1           0       -8.997597   -0.614709   -0.656516
    112          1           0       -8.255816   -0.755083   -3.492130
    113          1           0       -8.628720    0.818861   -3.017312
    114          1           0      -10.812339   -0.785377   -1.768100
    115          1           0      -10.998246   -2.720684   -3.217355
    116          1           0       -9.758566   -1.984322   -4.263608
    117          1           0      -11.362358   -1.446003   -4.378045
    118          1           0      -11.077288    0.812330   -4.137024
    119          1           0      -10.629759    1.529350   -2.578754
    120          1           0      -12.799130   -0.605059   -2.468845
    121          1           0      -13.217969    0.834157   -3.562614
    122          1           0      -13.884556    2.068603   -1.906146
    123          1           0      -12.288657    1.949042   -1.167952
    124          1           0      -12.869455   -0.242636   -0.010215
    125          1           0      -14.747058   -1.404115   -0.504820
    126          1           0      -15.264739   -0.026910   -1.523343
    127          1           0      -15.733979   -0.072119    0.127242
    128          1           0      -14.883315    1.459950    1.197979
    129          1           0      -13.699058    2.538571    0.690379
    130          1           0      -12.367883    0.108973    1.953983
    131          1           0      -13.583720    0.980760    3.000058
    132          1           0      -12.008647    3.085390    1.981203
    133          1           0      -10.914799    1.750508    1.909955
    134          1           0      -12.342104    2.179612    4.482082
    135          1           0      -11.298589    4.117145    5.245090
    136          1           0      -12.120424    4.514976    3.646540
    137          1           0      -10.349878    4.281644    3.775991
    138          1           0       -9.972929    0.716524    3.883708
    139          1           0      -10.408460    1.386448    5.418827
    140          1           0       -9.414474    2.195061    4.362583
 ---------------------------------------------------------------------

 SCF Done:  E(RZINDO/S) =  -474.031129684     A.U. after   20 cycles

 Excitation energies and oscillator strengths:

 Excited State   1:      Singlet-A      1.2594 eV  984.43 nm  f=0.6003  <S**2>=0.000
     175 ->178         0.18224
     176 ->177         0.66456
 This state for optimization and/or second-order correction.
 Total Energy, E(CIS/TDA) =  -473.984845786
 Copying the excited state density for this state as the 1-particle RhoCI density.

 Excited State   2:      Singlet-A      1.8792 eV  659.76 nm  f=0.0179  <S**2>=0.000
     175 ->177         0.52258
     176 ->178        -0.44491

 Excited State   3:      Singlet-A      2.8084 eV  441.48 nm  f=0.0872  <S**2>=0.000
     175 ->177         0.13277
     176 ->178         0.18924
     176 ->179         0.26293
     176 ->180         0.60358

 Excited State   4:      Singlet-A      2.8797 eV  430.55 nm  f=0.5822  <S**2>=0.000
     175 ->177        -0.32516
     176 ->178        -0.37872
     176 ->179         0.40382
     176 ->181         0.18957
     176 ->183        -0.11129

 Excited State   5:      Singlet-A      2.9120 eV  425.77 nm  f=0.2964  <S**2>=0.000
     175 ->177         0.22686
     176 ->178         0.30434
     176 ->179         0.43764
     176 ->180        -0.35828

 The electronic state is 1-A.
 Alpha  occ. eigenvalues --   -1.83379  -1.79719  -1.78718  -1.74231  -1.71006
 Alpha  occ. eigenvalues --   -1.69248  -1.65117  -1.60821  -1.58976  -1.56673
 Alpha  occ. eigenvalues --   -1.54463  -1.51347  -1.47717  -1.47009  -1.46503
 Alpha  occ. eigenvalues --   -1.42894  -1.42277  -1.40807  -1.39332  -1.38197
 Alpha  occ. eigenvalues --   -1.36398  -1.35159  -1.33150  -1.32360  -1.28663
 Alpha  occ. eigenvalues --   -1.25368  -1.25263  -1.22370  -1.21042  -1.18931
 Alpha  occ. eigenvalues --   -1.17083  -1.15648  -1.15561  -1.14368  -1.12449
 Alpha  occ. eigenvalues --   -1.11952  -1.11744  -1.09932  -1.04878  -1.02959
 Alpha  occ. eigenvalues --   -1.02268  -1.01278  -0.99337  -0.97452  -0.96858
 Alpha  occ. eigenvalues --   -0.95756  -0.95140  -0.94324  -0.93224  -0.93186
 Alpha  occ. eigenvalues --   -0.89935  -0.89745  -0.88991  -0.88247  -0.87391
 Alpha  occ. eigenvalues --   -0.84777  -0.83089  -0.82901  -0.81432  -0.79931
 Alpha  occ. eigenvalues --   -0.78778  -0.78084  -0.77486  -0.76908  -0.76274
 Alpha  occ. eigenvalues --   -0.75659  -0.75500  -0.75111  -0.74922  -0.74207
 Alpha  occ. eigenvalues --   -0.73318  -0.73043  -0.72665  -0.71692  -0.71160
 Alpha  occ. eigenvalues --   -0.70169  -0.69694  -0.69256  -0.68694  -0.67850
 Alpha  occ. eigenvalues --   -0.67615  -0.66953  -0.66673  -0.66115  -0.65389
 Alpha  occ. eigenvalues --   -0.65257  -0.64368  -0.64242  -0.63944  -0.63645
 Alpha  occ. eigenvalues --   -0.63452  -0.63172  -0.62736  -0.62231  -0.62037
 Alpha  occ. eigenvalues --   -0.61801  -0.61373  -0.60914  -0.60330  -0.60216
 Alpha  occ. eigenvalues --   -0.59333  -0.59129  -0.58704  -0.58613  -0.57715
 Alpha  occ. eigenvalues --   -0.57211  -0.57042  -0.56801  -0.56466  -0.56336
 Alpha  occ. eigenvalues --   -0.55894  -0.55279  -0.55229  -0.54340  -0.54207
 Alpha  occ. eigenvalues --   -0.54121  -0.54034  -0.53978  -0.53042  -0.52582
 Alpha  occ. eigenvalues --   -0.52258  -0.52075  -0.51810  -0.51674  -0.51349
 Alpha  occ. eigenvalues --   -0.51044  -0.50634  -0.50318  -0.50248  -0.50137
 Alpha  occ. eigenvalues --   -0.49980  -0.49733  -0.49477  -0.49319  -0.48953
 Alpha  occ. eigenvalues --   -0.48750  -0.48577  -0.48417  -0.48174  -0.47993
 Alpha  occ. eigenvalues --   -0.47739  -0.47583  -0.47263  -0.46958  -0.46555
 Alpha  occ. eigenvalues --   -0.46431  -0.46266  -0.45663  -0.45336  -0.44825
 Alpha  occ. eigenvalues --   -0.44668  -0.44493  -0.44388  -0.44052  -0.43684
 Alpha  occ. eigenvalues --   -0.43515  -0.42782  -0.42272  -0.41983  -0.41803
 Alpha  occ. eigenvalues --   -0.41548  -0.41071  -0.40569  -0.39324  -0.38475
 Alpha  occ. eigenvalues --   -0.37747  -0.37205  -0.36955  -0.34655  -0.34170
 Alpha  occ. eigenvalues --   -0.33600  -0.32509  -0.32174  -0.31390  -0.26444
 Alpha  occ. eigenvalues --   -0.21213
 Alpha virt. eigenvalues --   -0.08097  -0.02054  -0.01072   0.00707   0.00847
 Alpha virt. eigenvalues --    0.01097   0.02603   0.02764   0.03706   0.04719
 Alpha virt. eigenvalues --    0.05427   0.06117   0.07052   0.07490   0.08360

 Mulliken charges:
               1
     1  Mg   0.438160
     2  C   -0.058523
     3  C   -0.085965
     4  C   -0.074034
     5  C   -0.068586
     6  N   -0.274325
     7  C    0.094232
     8  C   -0.001168
     9  C    0.001840
    10  C    0.152075
    11  C   -0.048398
    12  C   -0.027174
    13  C    0.006757
    14  C    0.476193
    15  O   -0.523589
    16  O   -0.279155
    17  N   -0.310458
    18  C    0.124214
    19  C    0.046412
    20  C   -0.056545
    21  C    0.139345
    22  C   -0.034085
    23  C    0.340959
    24  O   -0.506875
    25  C   -0.034526
    26  N   -0.296555
    27  C    0.172074
    28  C    0.009584
    29  C    0.005542
    30  C    0.098315
    31  C   -0.046648
    32  C   -0.026992
    33  C   -0.062083
    34  N   -0.314103
    35  C    0.077119
    36  C    0.012923
    37  C   -0.049739
    38  C    0.112202
    39  C   -0.026217
    40  C    0.335187
    41  O   -0.529566
    42  C    0.046830
    43  C    0.492583
    44  O   -0.541623
    45  O   -0.251680
    46  C    0.070172
    47  C    0.103383
    48  C   -0.108652
    49  C    0.006970
    50  C   -0.038327
    51  C   -0.030228
    52  C   -0.035093
    53  C   -0.042577
    54  C   -0.012027
    55  C   -0.057535
    56  C   -0.039780
    57  C   -0.057669
    58  C   -0.043322
    59  C   -0.015202
    60  C   -0.064489
    61  C   -0.034661
    62  C   -0.029395
    63  C   -0.040830
    64  C   -0.004147
    65  C   -0.050529
    66  C   -0.065551
    67  H    0.021728
    68  H    0.032254
    69  H    0.024030
    70  H    0.036371
    71  H    0.027195
    72  H    0.019132
    73  H    0.030515
    74  H    0.022877
    75  H    0.027203
    76  H    0.032793
    77  H    0.039961
    78  H    0.032851
    79  H    0.036459
    80  H    0.032774
    81  H    0.028241
    82  H    0.046151
    83  H    0.033308
    84  H    0.039970
    85  H    0.035191
    86  H    0.019867
    87  H    0.018257
    88  H    0.025555
    89  H    0.022208
    90  H    0.017011
    91  H    0.028710
    92  H    0.014674
    93  H    0.022548
    94  H    0.023780
    95  H    0.042089
    96  H    0.021170
    97  H    0.029242
    98  H    0.060126
    99  H    0.031959
   100  H    0.053655
   101  H    0.035735
   102  H    0.031025
   103  H    0.068272
   104  H    0.029826
   105  H    0.034312
   106  H    0.028012
   107  H    0.028135
   108  H    0.016061
   109  H    0.029431
   110  H    0.021416
   111  H    0.024020
   112  H    0.021522
   113  H    0.012205
   114  H    0.023631
   115  H    0.026541
   116  H    0.016255
   117  H    0.011465
   118  H    0.011030
   119  H    0.028080
   120  H    0.034193
   121  H    0.018666
   122  H    0.028395
   123  H    0.013465
   124  H    0.026611
   125  H    0.021746
   126  H    0.015504
   127  H    0.018609
   128  H    0.013734
   129  H    0.024433
   130  H    0.033178
   131  H    0.020855
   132  H    0.013614
   133  H    0.013938
   134  H    0.011346
   135  H    0.023303
   136  H    0.022674
   137  H    0.018135
   138  H    0.024585
   139  H    0.007583
   140  H    0.004157
 Sum of Mulliken charges =  -0.00000

 Dipole moment (field-independent basis, Debye):
    X=             -4.2800    Y=              9.7500    Z=             -0.0795  Tot=             10.6483
 N-N= 4.259506995028D+03 E-N= 0.000000000000D+00  KE=-9.193272472816D+03
 Leave Link  601 at Wed May  4 01:29:36 2022, MaxMem=  6710886400 cpu:               0.8 elap:               0.0
 (Enter /sw/apps/gaussian-16.0/g16/l9999.exe)
 1\1\GINC-BP1-COMPUTE123\SP\RZINDO CIS\STO-3G\C55H74Mg1N4O6\OF15641\04-
 May-2022\0\\#p ZINDO=(nstates=5)\\step_1151_chromophore_25 ZINDO\\0,1\
 Mg,0,-2.326,34.406,26.606\C,0,-3.716,32.781,29.257\C,0,-0.795,36.669,2
 8.751\C,0,-2.075,36.597,24.051\C,0,-4.479,32.433,24.458\N,0,-2.296,34.
 753,28.779\C,0,-2.82,33.842,29.639\C,0,-2.347,34.159,31.107\C,0,-1.445
 ,35.457,30.909\C,0,-1.428,35.617,29.375\C,0,-1.793,36.738,31.692\C,0,-
 1.609,32.935,31.861\C,0,-2.048,32.507,33.315\C,0,-1.068,32.698,34.395\

 Normal termination of Gaussian 16 at Wed May  4 01:29:36 2022.
