 Gaussian 16, Revision A.03,
 Gaussian 16:  ES64L-G16RevA.03 25-Dec-2016

 ------------------------------
 #p blyp/Def2SVP td=(nstates=5)
 ------------------------------

 ---------------------------------------------------
 step_1101_chromophore_21 TDDFT with blyp functional
 ---------------------------------------------------
 Symbolic Z-matrix:
 Charge =  0 Multiplicity = 1

                         Standard orientation:
 ---------------------------------------------------------------------
 Center     Atomic      Atomic             Coordinates (Angstroms)
 Number     Number       Type             X           Y           Z
 ---------------------------------------------------------------------
      1         12           0        5.251986    1.175214    0.032042
      2          6           0        4.799786   -2.286073    0.194105
      3          6           0        1.862195    1.625542   -0.062366
      4          6           0        5.812542    4.330873   -0.103489
      5          6           0        8.766560    0.519897    0.077934
      6          7           0        3.542058   -0.284751    0.096591
      7          6           0        3.544421   -1.626303    0.336370
      8          6           0        2.141583   -2.277997    0.442545
      9          6           0        1.239130   -0.889210    0.119785
     10          6           0        2.262516    0.259741    0.096194
     11          6           0        0.412458   -1.030888   -1.231783
     12          6           0        1.927394   -2.863531    1.900544
     13          6           0        0.635686   -3.595805    2.058128
     14          6           0       -0.110722   -4.046064    0.869197
     15          8           0        0.192973   -4.969521    0.109081
     16          8           0       -1.186817   -3.271297    0.673621
     17          7           0        3.979260    2.766245   -0.185398
     18          6           0        2.619656    2.815271   -0.129894
     19          6           0        2.123341    4.138023   -0.233811
     20          6           0        3.301766    4.991713   -0.177622
     21          6           0        4.444135    4.048077   -0.187023
     22          6           0        0.628457    4.593921   -0.280461
     23          6           0        3.449514    6.525013   -0.290244
     24          8           0        4.570827    7.055836   -0.394684
     25          6           0        2.193511    7.265979   -0.219587
     26          7           0        7.001611    2.233475    0.049993
     27          6           0        6.977063    3.608629   -0.088421
     28          6           0        8.381869    4.266510   -0.001908
     29          6           0        9.335057    2.974106    0.123928
     30          6           0        8.328779    1.820167    0.114954
     31          6           0        8.801242    5.205074   -1.213455
     32          6           0       10.294464    2.960275    1.415258
     33          6           0       11.637491    2.179904    1.291394
     34          7           0        6.587698   -0.475741   -0.024117
     35          6           0        7.941916   -0.596737   -0.072963
     36          6           0        8.348995   -1.984634   -0.047621
     37          6           0        7.145121   -2.648722   -0.040490
     38          6           0        6.107572   -1.725289    0.069482
     39          6           0        9.793741   -2.510291   -0.225628
     40          6           0        6.588008   -3.934313   -0.069704
     41          8           0        7.155646   -5.029692   -0.290061
     42          6           0        5.064566   -3.755029    0.187413
     43          6           0        4.307923   -4.471459   -0.872255
     44          8           0        4.216658   -4.209589   -2.076740
     45          8           0        3.523051   -5.513135   -0.344082
     46          6           0        2.756959   -6.313790   -1.308603
     47          6           0       -1.909785   -3.613345   -0.540665
     48          6           0       -3.242397   -2.910678   -0.365620
     49          6           0       -4.317788   -2.753540   -1.191288
     50          6           0       -4.269812   -3.380684   -2.555795
     51          6           0       -5.591025   -1.974307   -0.830551
     52          6           0       -6.821843   -2.793402   -0.206056
     53          6           0       -7.180250   -2.204235    1.211440
     54          6           0       -7.674865   -0.762517    1.164173
     55          6           0       -6.729256    0.124552    2.041887
     56          6           0       -9.256584   -0.637241    1.465920
     57          6           0      -10.128121   -1.057519    0.305940
     58          6           0      -11.676189   -0.987056    0.454086
     59          6           0      -12.321431    0.342259    0.782802
     60          6           0      -12.308553    0.569353    2.362122
     61          6           0      -13.664170    0.499327    0.221795
     62          6           0      -13.932843    1.829761   -0.628359
     63          6           0      -15.167095    2.551180   -0.049799
     64          6           0      -16.057384    3.244017   -1.097458
     65          6           0      -17.031546    4.236175   -0.398297
     66          6           0      -16.690157    2.189562   -2.005334
     67          1           0        0.776624    1.750144   -0.051751
     68          1           0        6.156524    5.356439    0.040194
     69          1           0        9.829639    0.282181    0.005146
     70          1           0        1.930506   -3.033505   -0.314449
     71          1           0        0.375011   -0.700052    0.756592
     72          1           0        0.566132   -2.047437   -1.595923
     73          1           0        0.762160   -0.232359   -1.886449
     74          1           0       -0.650368   -0.946038   -1.005093
     75          1           0        1.957439   -2.194748    2.760946
     76          1           0        2.753498   -3.536205    2.129776
     77          1           0        0.000147   -2.856551    2.546154
     78          1           0        0.919380   -4.463358    2.653140
     79          1           0        0.365638    5.217715    0.574048
     80          1           0        0.013711    3.694206   -0.256349
     81          1           0        0.194928    5.087623   -1.149908
     82          1           0        1.642183    7.021962    0.688209
     83          1           0        1.596730    7.183460   -1.128374
     84          1           0        2.403381    8.334633   -0.177035
     85          1           0        8.494364    4.836584    0.920981
     86          1           0        9.942309    2.983351   -0.781822
     87          1           0        8.461435    6.207413   -0.956747
     88          1           0        8.288926    4.790791   -2.081994
     89          1           0        9.886506    5.301661   -1.176116
     90          1           0        9.762931    2.714306    2.334644
     91          1           0       10.501892    4.006394    1.639560
     92          1           0       12.518504    2.749840    1.586312
     93          1           0       11.759921    1.883799    0.249962
     94          1           0       11.647687    1.249094    1.858507
     95          1           0       10.412915   -1.732163   -0.671330
     96          1           0        9.902573   -3.329606   -0.935632
     97          1           0       10.163034   -2.728414    0.776222
     98          1           0        4.878532   -4.218580    1.156145
     99          1           0        2.405195   -5.784825   -2.194080
    100          1           0        1.815719   -6.692745   -0.911596
    101          1           0        3.318211   -7.167459   -1.686762
    102          1           0       -1.991895   -4.641252   -0.893295
    103          1           0       -1.487025   -3.107091   -1.408861
    104          1           0       -3.341228   -2.419127    0.601805
    105          1           0       -3.233785   -3.535792   -2.857262
    106          1           0       -4.726457   -2.656737   -3.230237
    107          1           0       -4.845896   -4.303612   -2.489976
    108          1           0       -5.954753   -1.533240   -1.759061
    109          1           0       -5.369074   -1.214166   -0.081513
    110          1           0       -6.478248   -3.826502   -0.153862
    111          1           0       -7.709378   -2.753813   -0.838290
    112          1           0       -6.286022   -2.379456    1.808020
    113          1           0       -7.950676   -2.878517    1.587325
    114          1           0       -7.581481   -0.356010    0.156762
    115          1           0       -7.151751    0.566482    2.944801
    116          1           0       -6.408725    0.983108    1.451817
    117          1           0       -5.826859   -0.389089    2.374240
    118          1           0       -9.457571    0.421495    1.628834
    119          1           0       -9.601596   -1.327748    2.236035
    120          1           0       -9.968894   -2.094447    0.013185
    121          1           0       -9.866347   -0.492069   -0.588799
    122          1           0      -12.016163   -1.794415    1.103332
    123          1           0      -12.018853   -1.181184   -0.562669
    124          1           0      -11.689179    1.047417    0.244228
    125          1           0      -11.639596    1.421348    2.482599
    126          1           0      -11.930102   -0.329211    2.847866
    127          1           0      -13.320756    0.844312    2.659991
    128          1           0      -14.363617    0.198672    1.001767
    129          1           0      -13.911876   -0.269212   -0.510898
    130          1           0      -14.007865    1.514720   -1.669379
    131          1           0      -13.164173    2.601676   -0.653032
    132          1           0      -14.942750    3.410964    0.581810
    133          1           0      -15.754918    1.848970    0.540653
    134          1           0      -15.495948    3.889630   -1.772393
    135          1           0      -16.350331    5.083517   -0.330518
    136          1           0      -17.376619    3.808822    0.543339
    137          1           0      -17.984417    4.360020   -0.912764
    138          1           0      -16.496339    1.235872   -1.515069
    139          1           0      -16.231186    2.134524   -2.992805
    140          1           0      -17.760082    2.340156   -2.148997
 ---------------------------------------------------------------------

 SCF Done:  E(RB-LYP) =  -3007.36910387     A.U. after   22 cycles

 Excitation energies and oscillator strengths:

 Excited State   1:      Singlet-A      1.7851 eV  694.55 nm  f=0.0406  <S**2>=0.000
     244 -> 247        0.63761
     245 -> 247        0.12798
     246 -> 247        0.26809
 This state for optimization and/or second-order correction.
 Total Energy, E(TD-HF/TD-DFT) =  -3007.30350214
 Copying the excited state density for this state as the 1-particle RhoCI density.

 Excited State   2:      Singlet-A      1.8323 eV  676.67 nm  f=0.2520  <S**2>=0.000
     244 -> 247       -0.29037
     245 -> 248        0.18574
     246 -> 247        0.62068
     246 <- 247       -0.13134

 Excited State   3:      Singlet-A      1.9450 eV  637.44 nm  f=0.0823  <S**2>=0.000
     243 -> 247       -0.34615
     245 -> 247        0.56306
     246 -> 247       -0.12351
     246 -> 248       -0.17986

 Excited State   4:      Singlet-A      2.0392 eV  608.01 nm  f=0.0312  <S**2>=0.000
     243 -> 247        0.61203
     245 -> 247        0.31255
     246 -> 248       -0.12892

 Excited State   5:      Singlet-A      2.2223 eV  557.92 nm  f=0.0002  <S**2>=0.000
     242 -> 247        0.70694

 The electronic state is 1-A.
 Alpha  occ. eigenvalues --  -46.26831 -18.84316 -18.80483 -18.77315 -18.75919
 Alpha  occ. eigenvalues --  -18.75627 -18.75010 -14.03728 -14.02967 -14.01228
 Alpha  occ. eigenvalues --  -14.00381 -10.04688 -10.03088 -10.00225  -9.98793
 Alpha  occ. eigenvalues --   -9.98715  -9.97262  -9.97123  -9.96161  -9.96146
 Alpha  occ. eigenvalues --   -9.95917  -9.95704  -9.95588  -9.95245  -9.94841
 Alpha  occ. eigenvalues --   -9.94561  -9.94531  -9.94300  -9.94036  -9.94020
 Alpha  occ. eigenvalues --   -9.93977  -9.93936  -9.93790  -9.93622  -9.93494
 Alpha  occ. eigenvalues --   -9.93479  -9.93316  -9.93251  -9.93011  -9.92980
 Alpha  occ. eigenvalues --   -9.92929  -9.92618  -9.92518  -9.92491  -9.92318
 Alpha  occ. eigenvalues --   -9.92292  -9.92225  -9.92214  -9.92177  -9.91982
 Alpha  occ. eigenvalues --   -9.91891  -9.91861  -9.91818  -9.91642  -9.91447
 Alpha  occ. eigenvalues --   -9.91377  -9.91353  -9.91309  -9.91168  -9.91041
 Alpha  occ. eigenvalues --   -9.91023  -9.90970  -9.90886  -9.90817  -9.90286
 Alpha  occ. eigenvalues --   -9.90225  -2.91523  -1.71956  -1.71403  -1.71234
 Alpha  occ. eigenvalues --   -1.00587  -0.95276  -0.90610  -0.90563  -0.89303
 Alpha  occ. eigenvalues --   -0.87294  -0.86793  -0.86062  -0.84908  -0.84363
 Alpha  occ. eigenvalues --   -0.76017  -0.74103  -0.73718  -0.73064  -0.72133
 Alpha  occ. eigenvalues --   -0.72011  -0.71370  -0.70978  -0.70714  -0.70152
 Alpha  occ. eigenvalues --   -0.69676  -0.69231  -0.68256  -0.67425  -0.67195
 Alpha  occ. eigenvalues --   -0.66466  -0.66262  -0.65368  -0.65011  -0.64271
 Alpha  occ. eigenvalues --   -0.64031  -0.62458  -0.62350  -0.61463  -0.60531
 Alpha  occ. eigenvalues --   -0.60432  -0.60399  -0.60166  -0.59610  -0.59121
 Alpha  occ. eigenvalues --   -0.58714  -0.58003  -0.56406  -0.55859  -0.54897
 Alpha  occ. eigenvalues --   -0.54240  -0.54150  -0.53060  -0.52862  -0.52054
 Alpha  occ. eigenvalues --   -0.51514  -0.51239  -0.51021  -0.50294  -0.50241
 Alpha  occ. eigenvalues --   -0.49599  -0.49045  -0.48412  -0.47507  -0.46911
 Alpha  occ. eigenvalues --   -0.46409  -0.45718  -0.45592  -0.45080  -0.44417
 Alpha  occ. eigenvalues --   -0.44221  -0.43968  -0.43414  -0.43130  -0.42710
 Alpha  occ. eigenvalues --   -0.42129  -0.41952  -0.41753  -0.41313  -0.41022
 Alpha  occ. eigenvalues --   -0.40876  -0.40478  -0.40403  -0.40165  -0.39859
 Alpha  occ. eigenvalues --   -0.39730  -0.39487  -0.39162  -0.39042  -0.38917
 Alpha  occ. eigenvalues --   -0.38683  -0.38589  -0.38440  -0.38177  -0.37930
 Alpha  occ. eigenvalues --   -0.37907  -0.37820  -0.37613  -0.37578  -0.37392
 Alpha  occ. eigenvalues --   -0.37260  -0.37081  -0.36940  -0.36710  -0.36409
 Alpha  occ. eigenvalues --   -0.36324  -0.36236  -0.35933  -0.35877  -0.35511
 Alpha  occ. eigenvalues --   -0.35313  -0.35203  -0.35159  -0.34831  -0.34758
 Alpha  occ. eigenvalues --   -0.34561  -0.34468  -0.34211  -0.34084  -0.34026
 Alpha  occ. eigenvalues --   -0.33722  -0.33652  -0.33511  -0.33280  -0.33110
 Alpha  occ. eigenvalues --   -0.32855  -0.32724  -0.32704  -0.32280  -0.32176
 Alpha  occ. eigenvalues --   -0.31878  -0.31776  -0.31682  -0.31580  -0.31558
 Alpha  occ. eigenvalues --   -0.31273  -0.31101  -0.30812  -0.30705  -0.30493
 Alpha  occ. eigenvalues --   -0.30383  -0.30154  -0.30066  -0.30003  -0.29803
 Alpha  occ. eigenvalues --   -0.29718  -0.29685  -0.29210  -0.28955  -0.28894
 Alpha  occ. eigenvalues --   -0.28742  -0.28206  -0.27818  -0.27743  -0.27730
 Alpha  occ. eigenvalues --   -0.27412  -0.27337  -0.27135  -0.26866  -0.26806
 Alpha  occ. eigenvalues --   -0.26656  -0.26605  -0.26240  -0.25892  -0.25774
 Alpha  occ. eigenvalues --   -0.25353  -0.24943  -0.23970  -0.23774  -0.23615
 Alpha  occ. eigenvalues --   -0.23340  -0.22391  -0.22065  -0.20986  -0.20825
 Alpha  occ. eigenvalues --   -0.20552  -0.19899  -0.19029  -0.18214  -0.17168
 Alpha  occ. eigenvalues --   -0.16115
 Alpha virt. eigenvalues --   -0.11734  -0.06964  -0.06423  -0.04726  -0.04051
 Alpha virt. eigenvalues --   -0.02293  -0.01977  -0.01931  -0.00979  -0.00052
 Alpha virt. eigenvalues --    0.00962   0.01213   0.02342   0.02676   0.02896

 Mulliken charges:
               1
     1  Mg   0.696715
     2  C    0.021926
     3  C   -0.077531
     4  C   -0.014352
     5  C   -0.080450
     6  N   -0.221977
     7  C   -0.046146
     8  C   -0.002018
     9  C   -0.060960
    10  C    0.071926
    11  C    0.086559
    12  C    0.084874
    13  C    0.207325
    14  C    0.041049
    15  O   -0.204140
    16  O   -0.238094
    17  N   -0.292095
    18  C    0.152322
    19  C   -0.110880
    20  C   -0.005168
    21  C    0.134708
    22  C    0.149158
    23  C   -0.053194
    24  O   -0.172701
    25  C    0.150158
    26  N   -0.268355
    27  C   -0.015001
    28  C   -0.009728
    29  C    0.022100
    30  C    0.093853
    31  C    0.126092
    32  C    0.079141
    33  C    0.074224
    34  N   -0.216497
    35  C    0.074490
    36  C   -0.196593
    37  C    0.165531
    38  C    0.062985
    39  C    0.172299
    40  C   -0.092488
    41  O   -0.160784
    42  C    0.096824
    43  C    0.105713
    44  O   -0.191810
    45  O   -0.293099
    46  C    0.219862
    47  C    0.320190
    48  C   -0.136978
    49  C   -0.179215
    50  C    0.150632
    51  C    0.132548
    52  C    0.048152
    53  C    0.094396
    54  C   -0.055741
    55  C    0.105606
    56  C    0.134779
    57  C    0.016993
    58  C    0.082826
    59  C   -0.068877
    60  C    0.134861
    61  C    0.105118
    62  C    0.090548
    63  C    0.089585
    64  C   -0.127330
    65  C    0.105287
    66  C    0.117834
    67  H   -0.065368
    68  H   -0.048507
    69  H   -0.076280
    70  H    0.042410
    71  H   -0.025539
    72  H    0.008608
    73  H    0.002229
    74  H    0.001568
    75  H   -0.021877
    76  H   -0.020388
    77  H   -0.010175
    78  H   -0.001460
    79  H    0.002071
    80  H   -0.029230
    81  H    0.002693
    82  H    0.012941
    83  H    0.014952
    84  H   -0.020357
    85  H   -0.017988
    86  H   -0.022862
    87  H    0.002334
    88  H    0.013954
    89  H   -0.004569
    90  H   -0.025175
    91  H   -0.030582
    92  H   -0.006572
    93  H   -0.006254
    94  H   -0.001445
    95  H   -0.015702
    96  H    0.017873
    97  H    0.008621
    98  H    0.004628
    99  H    0.001061
   100  H    0.013901
   101  H    0.002285
   102  H    0.020891
   103  H    0.002712
   104  H   -0.041043
   105  H   -0.014139
   106  H   -0.011177
   107  H    0.011633
   108  H   -0.033320
   109  H   -0.025403
   110  H   -0.027280
   111  H   -0.023441
   112  H   -0.023570
   113  H   -0.033314
   114  H   -0.025950
   115  H   -0.019591
   116  H   -0.022743
   117  H   -0.014884
   118  H   -0.029536
   119  H   -0.025203
   120  H   -0.027407
   121  H   -0.045359
   122  H   -0.034307
   123  H   -0.047478
   124  H   -0.052573
   125  H   -0.009620
   126  H   -0.006770
   127  H   -0.015511
   128  H   -0.041061
   129  H   -0.049682
   130  H   -0.025098
   131  H   -0.026555
   132  H   -0.039846
   133  H   -0.023809
   134  H   -0.042303
   135  H    0.002736
   136  H   -0.020824
   137  H   -0.021453
   138  H   -0.025101
   139  H   -0.016579
   140  H   -0.024831
 Sum of Mulliken charges =  -0.00000

 Dipole moment (field-independent basis, Debye):
    X=             -4.4383    Y=              3.9730    Z=              2.5680  Tot=              6.4867
 Quadrupole moment (field-independent basis, Debye-Ang):
   XX=           -386.3913   YY=           -440.8035   ZZ=           -404.6546
   XY=             30.3909   XZ=             21.9452   YZ=             -5.6433

 Normal termination of Gaussian 16 at Wed May  4 00:10:47 2022.
