 Gaussian 16, Revision A.03,
 Gaussian 16:  ES64L-G16RevA.03 25-Dec-2016

 -----------------------------------
 #p cam-b3lyp/Def2SVP td=(nstates=5)
 -----------------------------------

 --------------------------------------------------------
 step_1101_chromophore_21 TDDFT with cam-b3lyp functional
 --------------------------------------------------------
 Symbolic Z-matrix:
 Charge =  0 Multiplicity = 1

                         Standard orientation:
 ---------------------------------------------------------------------
 Center     Atomic      Atomic             Coordinates (Angstroms)
 Number     Number       Type             X           Y           Z
 ---------------------------------------------------------------------
      1         12           0        5.251986    1.175214    0.032042
      2          6           0        4.799786   -2.286073    0.194105
      3          6           0        1.862195    1.625542   -0.062366
      4          6           0        5.812542    4.330873   -0.103489
      5          6           0        8.766560    0.519897    0.077934
      6          7           0        3.542058   -0.284751    0.096591
      7          6           0        3.544421   -1.626303    0.336370
      8          6           0        2.141583   -2.277997    0.442545
      9          6           0        1.239130   -0.889210    0.119785
     10          6           0        2.262516    0.259741    0.096194
     11          6           0        0.412458   -1.030888   -1.231783
     12          6           0        1.927394   -2.863531    1.900544
     13          6           0        0.635686   -3.595805    2.058128
     14          6           0       -0.110722   -4.046064    0.869197
     15          8           0        0.192973   -4.969521    0.109081
     16          8           0       -1.186817   -3.271297    0.673621
     17          7           0        3.979260    2.766245   -0.185398
     18          6           0        2.619656    2.815271   -0.129894
     19          6           0        2.123341    4.138023   -0.233811
     20          6           0        3.301766    4.991713   -0.177622
     21          6           0        4.444135    4.048077   -0.187023
     22          6           0        0.628457    4.593921   -0.280461
     23          6           0        3.449514    6.525013   -0.290244
     24          8           0        4.570827    7.055836   -0.394684
     25          6           0        2.193511    7.265979   -0.219587
     26          7           0        7.001611    2.233475    0.049993
     27          6           0        6.977063    3.608629   -0.088421
     28          6           0        8.381869    4.266510   -0.001908
     29          6           0        9.335057    2.974106    0.123928
     30          6           0        8.328779    1.820167    0.114954
     31          6           0        8.801242    5.205074   -1.213455
     32          6           0       10.294464    2.960275    1.415258
     33          6           0       11.637491    2.179904    1.291394
     34          7           0        6.587698   -0.475741   -0.024117
     35          6           0        7.941916   -0.596737   -0.072963
     36          6           0        8.348995   -1.984634   -0.047621
     37          6           0        7.145121   -2.648722   -0.040490
     38          6           0        6.107572   -1.725289    0.069482
     39          6           0        9.793741   -2.510291   -0.225628
     40          6           0        6.588008   -3.934313   -0.069704
     41          8           0        7.155646   -5.029692   -0.290061
     42          6           0        5.064566   -3.755029    0.187413
     43          6           0        4.307923   -4.471459   -0.872255
     44          8           0        4.216658   -4.209589   -2.076740
     45          8           0        3.523051   -5.513135   -0.344082
     46          6           0        2.756959   -6.313790   -1.308603
     47          6           0       -1.909785   -3.613345   -0.540665
     48          6           0       -3.242397   -2.910678   -0.365620
     49          6           0       -4.317788   -2.753540   -1.191288
     50          6           0       -4.269812   -3.380684   -2.555795
     51          6           0       -5.591025   -1.974307   -0.830551
     52          6           0       -6.821843   -2.793402   -0.206056
     53          6           0       -7.180250   -2.204235    1.211440
     54          6           0       -7.674865   -0.762517    1.164173
     55          6           0       -6.729256    0.124552    2.041887
     56          6           0       -9.256584   -0.637241    1.465920
     57          6           0      -10.128121   -1.057519    0.305940
     58          6           0      -11.676189   -0.987056    0.454086
     59          6           0      -12.321431    0.342259    0.782802
     60          6           0      -12.308553    0.569353    2.362122
     61          6           0      -13.664170    0.499327    0.221795
     62          6           0      -13.932843    1.829761   -0.628359
     63          6           0      -15.167095    2.551180   -0.049799
     64          6           0      -16.057384    3.244017   -1.097458
     65          6           0      -17.031546    4.236175   -0.398297
     66          6           0      -16.690157    2.189562   -2.005334
     67          1           0        0.776624    1.750144   -0.051751
     68          1           0        6.156524    5.356439    0.040194
     69          1           0        9.829639    0.282181    0.005146
     70          1           0        1.930506   -3.033505   -0.314449
     71          1           0        0.375011   -0.700052    0.756592
     72          1           0        0.566132   -2.047437   -1.595923
     73          1           0        0.762160   -0.232359   -1.886449
     74          1           0       -0.650368   -0.946038   -1.005093
     75          1           0        1.957439   -2.194748    2.760946
     76          1           0        2.753498   -3.536205    2.129776
     77          1           0        0.000147   -2.856551    2.546154
     78          1           0        0.919380   -4.463358    2.653140
     79          1           0        0.365638    5.217715    0.574048
     80          1           0        0.013711    3.694206   -0.256349
     81          1           0        0.194928    5.087623   -1.149908
     82          1           0        1.642183    7.021962    0.688209
     83          1           0        1.596730    7.183460   -1.128374
     84          1           0        2.403381    8.334633   -0.177035
     85          1           0        8.494364    4.836584    0.920981
     86          1           0        9.942309    2.983351   -0.781822
     87          1           0        8.461435    6.207413   -0.956747
     88          1           0        8.288926    4.790791   -2.081994
     89          1           0        9.886506    5.301661   -1.176116
     90          1           0        9.762931    2.714306    2.334644
     91          1           0       10.501892    4.006394    1.639560
     92          1           0       12.518504    2.749840    1.586312
     93          1           0       11.759921    1.883799    0.249962
     94          1           0       11.647687    1.249094    1.858507
     95          1           0       10.412915   -1.732163   -0.671330
     96          1           0        9.902573   -3.329606   -0.935632
     97          1           0       10.163034   -2.728414    0.776222
     98          1           0        4.878532   -4.218580    1.156145
     99          1           0        2.405195   -5.784825   -2.194080
    100          1           0        1.815719   -6.692745   -0.911596
    101          1           0        3.318211   -7.167459   -1.686762
    102          1           0       -1.991895   -4.641252   -0.893295
    103          1           0       -1.487025   -3.107091   -1.408861
    104          1           0       -3.341228   -2.419127    0.601805
    105          1           0       -3.233785   -3.535792   -2.857262
    106          1           0       -4.726457   -2.656737   -3.230237
    107          1           0       -4.845896   -4.303612   -2.489976
    108          1           0       -5.954753   -1.533240   -1.759061
    109          1           0       -5.369074   -1.214166   -0.081513
    110          1           0       -6.478248   -3.826502   -0.153862
    111          1           0       -7.709378   -2.753813   -0.838290
    112          1           0       -6.286022   -2.379456    1.808020
    113          1           0       -7.950676   -2.878517    1.587325
    114          1           0       -7.581481   -0.356010    0.156762
    115          1           0       -7.151751    0.566482    2.944801
    116          1           0       -6.408725    0.983108    1.451817
    117          1           0       -5.826859   -0.389089    2.374240
    118          1           0       -9.457571    0.421495    1.628834
    119          1           0       -9.601596   -1.327748    2.236035
    120          1           0       -9.968894   -2.094447    0.013185
    121          1           0       -9.866347   -0.492069   -0.588799
    122          1           0      -12.016163   -1.794415    1.103332
    123          1           0      -12.018853   -1.181184   -0.562669
    124          1           0      -11.689179    1.047417    0.244228
    125          1           0      -11.639596    1.421348    2.482599
    126          1           0      -11.930102   -0.329211    2.847866
    127          1           0      -13.320756    0.844312    2.659991
    128          1           0      -14.363617    0.198672    1.001767
    129          1           0      -13.911876   -0.269212   -0.510898
    130          1           0      -14.007865    1.514720   -1.669379
    131          1           0      -13.164173    2.601676   -0.653032
    132          1           0      -14.942750    3.410964    0.581810
    133          1           0      -15.754918    1.848970    0.540653
    134          1           0      -15.495948    3.889630   -1.772393
    135          1           0      -16.350331    5.083517   -0.330518
    136          1           0      -17.376619    3.808822    0.543339
    137          1           0      -17.984417    4.360020   -0.912764
    138          1           0      -16.496339    1.235872   -1.515069
    139          1           0      -16.231186    2.134524   -2.992805
    140          1           0      -17.760082    2.340156   -2.148997
 ---------------------------------------------------------------------

 SCF Done:  E(RCAM-B3LYP) =  -3007.15768626     A.U. after   17 cycles

 Excitation energies and oscillator strengths:

 Excited State   1:      Singlet-A      1.7247 eV  718.87 nm  f=0.3895  <S**2>=0.000
     245 -> 248        0.18842
     246 -> 247        0.68349
     245 <- 248        0.10831
 This state for optimization and/or second-order correction.
 Total Energy, E(TD-HF/TD-DFT) =  -3007.09430394
 Copying the excited state density for this state as the 1-particle RhoCI density.

 Excited State   2:      Singlet-A      2.1746 eV  570.15 nm  f=0.1401  <S**2>=0.000
     245 -> 247        0.65206
     246 -> 248       -0.26334

 Excited State   3:      Singlet-A      3.3334 eV  371.94 nm  f=0.0020  <S**2>=0.000
     241 -> 247        0.54840
     241 -> 249       -0.27940
     241 -> 250       -0.22364
     242 -> 247       -0.13677
     243 -> 247       -0.10242

 Excited State   4:      Singlet-A      3.4134 eV  363.23 nm  f=0.0006  <S**2>=0.000
     242 -> 247       -0.16269
     243 -> 247        0.66946

 Excited State   5:      Singlet-A      3.5320 eV  351.03 nm  f=0.2325  <S**2>=0.000
     242 -> 247        0.44330
     245 -> 247        0.15024
     246 -> 248        0.48879

 The electronic state is 1-A.
 Alpha  occ. eigenvalues --  -46.88311 -19.27280 -19.23406 -19.20306 -19.19124
 Alpha  occ. eigenvalues --  -19.18816 -19.18338 -14.42775 -14.41746 -14.39640
 Alpha  occ. eigenvalues --  -14.38831 -10.39958 -10.38697 -10.35450 -10.34190
 Alpha  occ. eigenvalues --  -10.32860 -10.31898 -10.31572 -10.30578 -10.30527
 Alpha  occ. eigenvalues --  -10.30270 -10.29856 -10.29852 -10.29176 -10.29146
 Alpha  occ. eigenvalues --  -10.29141 -10.28667 -10.28614 -10.28385 -10.28104
 Alpha  occ. eigenvalues --  -10.27988 -10.27952 -10.27937 -10.27861 -10.27762
 Alpha  occ. eigenvalues --  -10.27747 -10.27375 -10.27327 -10.27171 -10.26986
 Alpha  occ. eigenvalues --  -10.26745 -10.26446 -10.26346 -10.26196 -10.26125
 Alpha  occ. eigenvalues --  -10.26028 -10.25993 -10.25972 -10.25942 -10.25871
 Alpha  occ. eigenvalues --  -10.25840 -10.25609 -10.25586 -10.25335 -10.25208
 Alpha  occ. eigenvalues --  -10.25158 -10.25022 -10.25004 -10.24833 -10.24724
 Alpha  occ. eigenvalues --  -10.24645 -10.24643 -10.24505 -10.24491 -10.24382
 Alpha  occ. eigenvalues --  -10.23876  -3.16913  -1.91823  -1.91373  -1.91220
 Alpha  occ. eigenvalues --   -1.19091  -1.13824  -1.08945  -1.08464  -1.07767
 Alpha  occ. eigenvalues --   -1.05191  -1.04562  -1.03624  -1.02556  -1.01844
 Alpha  occ. eigenvalues --   -0.93323  -0.90945  -0.90581  -0.89901  -0.88864
 Alpha  occ. eigenvalues --   -0.88698  -0.88000  -0.87503  -0.87304  -0.86791
 Alpha  occ. eigenvalues --   -0.86268  -0.85563  -0.84521  -0.83580  -0.83378
 Alpha  occ. eigenvalues --   -0.82605  -0.82321  -0.81332  -0.80931  -0.80086
 Alpha  occ. eigenvalues --   -0.79820  -0.78163  -0.78004  -0.76897  -0.75902
 Alpha  occ. eigenvalues --   -0.75819  -0.75799  -0.75529  -0.74899  -0.74362
 Alpha  occ. eigenvalues --   -0.73816  -0.73098  -0.71281  -0.70664  -0.69502
 Alpha  occ. eigenvalues --   -0.68926  -0.68809  -0.67493  -0.67299  -0.66263
 Alpha  occ. eigenvalues --   -0.65767  -0.65271  -0.65044  -0.64325  -0.64166
 Alpha  occ. eigenvalues --   -0.63561  -0.63003  -0.62271  -0.61263  -0.60522
 Alpha  occ. eigenvalues --   -0.60115  -0.59178  -0.58975  -0.58496  -0.57961
 Alpha  occ. eigenvalues --   -0.57625  -0.57499  -0.56709  -0.56338  -0.55714
 Alpha  occ. eigenvalues --   -0.55165  -0.55018  -0.54787  -0.54128  -0.54046
 Alpha  occ. eigenvalues --   -0.53642  -0.53351  -0.53001  -0.52902  -0.52700
 Alpha  occ. eigenvalues --   -0.52296  -0.52083  -0.51924  -0.51731  -0.51496
 Alpha  occ. eigenvalues --   -0.51352  -0.51121  -0.50956  -0.50782  -0.50448
 Alpha  occ. eigenvalues --   -0.50166  -0.50141  -0.49893  -0.49849  -0.49834
 Alpha  occ. eigenvalues --   -0.49687  -0.49439  -0.49203  -0.48975  -0.48893
 Alpha  occ. eigenvalues --   -0.48480  -0.48356  -0.48229  -0.48152  -0.47837
 Alpha  occ. eigenvalues --   -0.47424  -0.47244  -0.47110  -0.46947  -0.46791
 Alpha  occ. eigenvalues --   -0.46589  -0.46309  -0.46091  -0.45879  -0.45748
 Alpha  occ. eigenvalues --   -0.45622  -0.45353  -0.45335  -0.45103  -0.44859
 Alpha  occ. eigenvalues --   -0.44615  -0.44455  -0.44339  -0.44139  -0.43845
 Alpha  occ. eigenvalues --   -0.43652  -0.43475  -0.43311  -0.43163  -0.43145
 Alpha  occ. eigenvalues --   -0.42815  -0.42519  -0.42416  -0.41952  -0.41791
 Alpha  occ. eigenvalues --   -0.41656  -0.41573  -0.41394  -0.41203  -0.41158
 Alpha  occ. eigenvalues --   -0.41087  -0.40851  -0.40322  -0.39997  -0.39903
 Alpha  occ. eigenvalues --   -0.39791  -0.39744  -0.39189  -0.38999  -0.38632
 Alpha  occ. eigenvalues --   -0.38291  -0.38189  -0.38075  -0.37946  -0.37853
 Alpha  occ. eigenvalues --   -0.37606  -0.37404  -0.36796  -0.36648  -0.36551
 Alpha  occ. eigenvalues --   -0.35845  -0.35504  -0.34957  -0.34739  -0.34565
 Alpha  occ. eigenvalues --   -0.34158  -0.33496  -0.33008  -0.31480  -0.31148
 Alpha  occ. eigenvalues --   -0.30591  -0.30350  -0.29907  -0.29463  -0.23859
 Alpha  occ. eigenvalues --   -0.21482
 Alpha virt. eigenvalues --   -0.08911  -0.01738   0.00064   0.02162   0.03510
 Alpha virt. eigenvalues --    0.03672   0.05188   0.05440   0.05466   0.06444
 Alpha virt. eigenvalues --    0.07755   0.08471   0.08761   0.08997   0.09207

 Mulliken charges:
               1
     1  Mg   0.831864
     2  C    0.001253
     3  C   -0.083674
     4  C   -0.041537
     5  C   -0.088310
     6  N   -0.287792
     7  C   -0.001382
     8  C   -0.057620
     9  C   -0.103875
    10  C    0.081096
    11  C    0.034682
    12  C    0.046920
    13  C    0.128622
    14  C    0.120114
    15  O   -0.246538
    16  O   -0.300321
    17  N   -0.381180
    18  C    0.150911
    19  C   -0.118136
    20  C   -0.066338
    21  C    0.156513
    22  C    0.098522
    23  C    0.031562
    24  O   -0.213734
    25  C    0.056249
    26  N   -0.345082
    27  C    0.008403
    28  C   -0.060451
    29  C   -0.033492
    30  C    0.112725
    31  C    0.069938
    32  C    0.024941
    33  C    0.009813
    34  N   -0.305158
    35  C    0.080656
    36  C   -0.183177
    37  C    0.079055
    38  C    0.096229
    39  C    0.120827
    40  C    0.010694
    41  O   -0.198697
    42  C    0.009192
    43  C    0.197421
    44  O   -0.228048
    45  O   -0.356678
    46  C    0.180704
    47  C    0.286868
    48  C   -0.152939
    49  C   -0.202795
    50  C    0.090243
    51  C    0.078036
    52  C    0.002108
    53  C    0.039169
    54  C   -0.117060
    55  C    0.046605
    56  C    0.082923
    57  C   -0.027783
    58  C    0.033520
    59  C   -0.125394
    60  C    0.074665
    61  C    0.045238
    62  C    0.035842
    63  C    0.033771
    64  C   -0.181803
    65  C    0.045972
    66  C    0.055845
    67  H   -0.030455
    68  H   -0.010140
    69  H   -0.041091
    70  H    0.070541
    71  H    0.007682
    72  H    0.028289
    73  H    0.028692
    74  H    0.022415
    75  H    0.010338
    76  H    0.007817
    77  H    0.023882
    78  H    0.033104
    79  H    0.026817
    80  H   -0.002075
    81  H    0.029147
    82  H    0.040427
    83  H    0.044195
    84  H    0.017033
    85  H    0.015814
    86  H    0.011770
    87  H    0.026144
    88  H    0.037852
    89  H    0.018860
    90  H    0.005073
    91  H   -0.001934
    92  H    0.019048
    93  H    0.014132
    94  H    0.021192
    95  H    0.008957
    96  H    0.045700
    97  H    0.034985
    98  H    0.049004
    99  H    0.026684
   100  H    0.037235
   101  H    0.024636
   102  H    0.052191
   103  H    0.025355
   104  H   -0.008030
   105  H    0.009039
   106  H    0.012976
   107  H    0.034836
   108  H   -0.004031
   109  H    0.001953
   110  H    0.002196
   111  H    0.002146
   112  H    0.004069
   113  H   -0.003839
   114  H    0.004633
   115  H    0.006523
   116  H    0.001641
   117  H    0.007958
   118  H   -0.002884
   119  H    0.000754
   120  H   -0.001670
   121  H   -0.018547
   122  H   -0.007198
   123  H   -0.016494
   124  H   -0.020442
   125  H    0.013495
   126  H    0.015761
   127  H    0.008857
   128  H   -0.011515
   129  H   -0.017584
   130  H    0.003834
   131  H    0.002091
   132  H   -0.010447
   133  H    0.002793
   134  H   -0.010514
   135  H    0.025117
   136  H    0.002854
   137  H    0.003989
   138  H   -0.002280
   139  H    0.007439
   140  H    0.000486
 Sum of Mulliken charges =  -0.00000

 Dipole moment (field-independent basis, Debye):
    X=             -4.8028    Y=              4.1770    Z=              2.6780  Tot=              6.9055
 Quadrupole moment (field-independent basis, Debye-Ang):
   XX=           -385.2376   YY=           -438.0141   ZZ=           -404.7174
   XY=             30.1495   XZ=             23.4065   YZ=             -5.8004

 Normal termination of Gaussian 16 at Tue May  3 23:12:42 2022.
