 Gaussian 16, Revision A.03,
 Gaussian 16:  ES64L-G16RevA.03 25-Dec-2016

 ---------------------------------
 #p PBE1PBE/Def2SVP td=(nstates=5)
 ---------------------------------

 ------------------------------------------------------
 step_1101_chromophore_21 TDDFT with PBE1PBE functional
 ------------------------------------------------------
 Symbolic Z-matrix:
 Charge =  0 Multiplicity = 1

                         Standard orientation:
 ---------------------------------------------------------------------
 Center     Atomic      Atomic             Coordinates (Angstroms)
 Number     Number       Type             X           Y           Z
 ---------------------------------------------------------------------
      1         12           0        5.251986    1.175214    0.032042
      2          6           0        4.799786   -2.286073    0.194105
      3          6           0        1.862195    1.625542   -0.062366
      4          6           0        5.812542    4.330873   -0.103489
      5          6           0        8.766560    0.519897    0.077934
      6          7           0        3.542058   -0.284751    0.096591
      7          6           0        3.544421   -1.626303    0.336370
      8          6           0        2.141583   -2.277997    0.442545
      9          6           0        1.239130   -0.889210    0.119785
     10          6           0        2.262516    0.259741    0.096194
     11          6           0        0.412458   -1.030888   -1.231783
     12          6           0        1.927394   -2.863531    1.900544
     13          6           0        0.635686   -3.595805    2.058128
     14          6           0       -0.110722   -4.046064    0.869197
     15          8           0        0.192973   -4.969521    0.109081
     16          8           0       -1.186817   -3.271297    0.673621
     17          7           0        3.979260    2.766245   -0.185398
     18          6           0        2.619656    2.815271   -0.129894
     19          6           0        2.123341    4.138023   -0.233811
     20          6           0        3.301766    4.991713   -0.177622
     21          6           0        4.444135    4.048077   -0.187023
     22          6           0        0.628457    4.593921   -0.280461
     23          6           0        3.449514    6.525013   -0.290244
     24          8           0        4.570827    7.055836   -0.394684
     25          6           0        2.193511    7.265979   -0.219587
     26          7           0        7.001611    2.233475    0.049993
     27          6           0        6.977063    3.608629   -0.088421
     28          6           0        8.381869    4.266510   -0.001908
     29          6           0        9.335057    2.974106    0.123928
     30          6           0        8.328779    1.820167    0.114954
     31          6           0        8.801242    5.205074   -1.213455
     32          6           0       10.294464    2.960275    1.415258
     33          6           0       11.637491    2.179904    1.291394
     34          7           0        6.587698   -0.475741   -0.024117
     35          6           0        7.941916   -0.596737   -0.072963
     36          6           0        8.348995   -1.984634   -0.047621
     37          6           0        7.145121   -2.648722   -0.040490
     38          6           0        6.107572   -1.725289    0.069482
     39          6           0        9.793741   -2.510291   -0.225628
     40          6           0        6.588008   -3.934313   -0.069704
     41          8           0        7.155646   -5.029692   -0.290061
     42          6           0        5.064566   -3.755029    0.187413
     43          6           0        4.307923   -4.471459   -0.872255
     44          8           0        4.216658   -4.209589   -2.076740
     45          8           0        3.523051   -5.513135   -0.344082
     46          6           0        2.756959   -6.313790   -1.308603
     47          6           0       -1.909785   -3.613345   -0.540665
     48          6           0       -3.242397   -2.910678   -0.365620
     49          6           0       -4.317788   -2.753540   -1.191288
     50          6           0       -4.269812   -3.380684   -2.555795
     51          6           0       -5.591025   -1.974307   -0.830551
     52          6           0       -6.821843   -2.793402   -0.206056
     53          6           0       -7.180250   -2.204235    1.211440
     54          6           0       -7.674865   -0.762517    1.164173
     55          6           0       -6.729256    0.124552    2.041887
     56          6           0       -9.256584   -0.637241    1.465920
     57          6           0      -10.128121   -1.057519    0.305940
     58          6           0      -11.676189   -0.987056    0.454086
     59          6           0      -12.321431    0.342259    0.782802
     60          6           0      -12.308553    0.569353    2.362122
     61          6           0      -13.664170    0.499327    0.221795
     62          6           0      -13.932843    1.829761   -0.628359
     63          6           0      -15.167095    2.551180   -0.049799
     64          6           0      -16.057384    3.244017   -1.097458
     65          6           0      -17.031546    4.236175   -0.398297
     66          6           0      -16.690157    2.189562   -2.005334
     67          1           0        0.776624    1.750144   -0.051751
     68          1           0        6.156524    5.356439    0.040194
     69          1           0        9.829639    0.282181    0.005146
     70          1           0        1.930506   -3.033505   -0.314449
     71          1           0        0.375011   -0.700052    0.756592
     72          1           0        0.566132   -2.047437   -1.595923
     73          1           0        0.762160   -0.232359   -1.886449
     74          1           0       -0.650368   -0.946038   -1.005093
     75          1           0        1.957439   -2.194748    2.760946
     76          1           0        2.753498   -3.536205    2.129776
     77          1           0        0.000147   -2.856551    2.546154
     78          1           0        0.919380   -4.463358    2.653140
     79          1           0        0.365638    5.217715    0.574048
     80          1           0        0.013711    3.694206   -0.256349
     81          1           0        0.194928    5.087623   -1.149908
     82          1           0        1.642183    7.021962    0.688209
     83          1           0        1.596730    7.183460   -1.128374
     84          1           0        2.403381    8.334633   -0.177035
     85          1           0        8.494364    4.836584    0.920981
     86          1           0        9.942309    2.983351   -0.781822
     87          1           0        8.461435    6.207413   -0.956747
     88          1           0        8.288926    4.790791   -2.081994
     89          1           0        9.886506    5.301661   -1.176116
     90          1           0        9.762931    2.714306    2.334644
     91          1           0       10.501892    4.006394    1.639560
     92          1           0       12.518504    2.749840    1.586312
     93          1           0       11.759921    1.883799    0.249962
     94          1           0       11.647687    1.249094    1.858507
     95          1           0       10.412915   -1.732163   -0.671330
     96          1           0        9.902573   -3.329606   -0.935632
     97          1           0       10.163034   -2.728414    0.776222
     98          1           0        4.878532   -4.218580    1.156145
     99          1           0        2.405195   -5.784825   -2.194080
    100          1           0        1.815719   -6.692745   -0.911596
    101          1           0        3.318211   -7.167459   -1.686762
    102          1           0       -1.991895   -4.641252   -0.893295
    103          1           0       -1.487025   -3.107091   -1.408861
    104          1           0       -3.341228   -2.419127    0.601805
    105          1           0       -3.233785   -3.535792   -2.857262
    106          1           0       -4.726457   -2.656737   -3.230237
    107          1           0       -4.845896   -4.303612   -2.489976
    108          1           0       -5.954753   -1.533240   -1.759061
    109          1           0       -5.369074   -1.214166   -0.081513
    110          1           0       -6.478248   -3.826502   -0.153862
    111          1           0       -7.709378   -2.753813   -0.838290
    112          1           0       -6.286022   -2.379456    1.808020
    113          1           0       -7.950676   -2.878517    1.587325
    114          1           0       -7.581481   -0.356010    0.156762
    115          1           0       -7.151751    0.566482    2.944801
    116          1           0       -6.408725    0.983108    1.451817
    117          1           0       -5.826859   -0.389089    2.374240
    118          1           0       -9.457571    0.421495    1.628834
    119          1           0       -9.601596   -1.327748    2.236035
    120          1           0       -9.968894   -2.094447    0.013185
    121          1           0       -9.866347   -0.492069   -0.588799
    122          1           0      -12.016163   -1.794415    1.103332
    123          1           0      -12.018853   -1.181184   -0.562669
    124          1           0      -11.689179    1.047417    0.244228
    125          1           0      -11.639596    1.421348    2.482599
    126          1           0      -11.930102   -0.329211    2.847866
    127          1           0      -13.320756    0.844312    2.659991
    128          1           0      -14.363617    0.198672    1.001767
    129          1           0      -13.911876   -0.269212   -0.510898
    130          1           0      -14.007865    1.514720   -1.669379
    131          1           0      -13.164173    2.601676   -0.653032
    132          1           0      -14.942750    3.410964    0.581810
    133          1           0      -15.754918    1.848970    0.540653
    134          1           0      -15.495948    3.889630   -1.772393
    135          1           0      -16.350331    5.083517   -0.330518
    136          1           0      -17.376619    3.808822    0.543339
    137          1           0      -17.984417    4.360020   -0.912764
    138          1           0      -16.496339    1.235872   -1.515069
    139          1           0      -16.231186    2.134524   -2.992805
    140          1           0      -17.760082    2.340156   -2.148997
 ---------------------------------------------------------------------

 SCF Done:  E(RPBE1PBE) =  -3005.34519022     A.U. after   15 cycles

 Excitation energies and oscillator strengths:

 Excited State   1:      Singlet-A      1.8794 eV  659.71 nm  f=0.3748  <S**2>=0.000
     245 -> 248        0.18215
     246 -> 247        0.68994
     246 <- 247       -0.10318
 This state for optimization and/or second-order correction.
 Total Energy, E(TD-HF/TD-DFT) =  -3005.27612448
 Copying the excited state density for this state as the 1-particle RhoCI density.

 Excited State   2:      Singlet-A      2.1788 eV  569.06 nm  f=0.1336  <S**2>=0.000
     245 -> 247        0.66090
     246 -> 248       -0.24007

 Excited State   3:      Singlet-A      2.8475 eV  435.42 nm  f=0.0004  <S**2>=0.000
     242 -> 247        0.12709
     243 -> 247        0.66089
     243 -> 249       -0.16107
     243 -> 250       -0.11373

 Excited State   4:      Singlet-A      3.0582 eV  405.41 nm  f=0.0004  <S**2>=0.000
     240 -> 247       -0.15565
     242 -> 247        0.66105
     243 -> 247       -0.12911

 Excited State   5:      Singlet-A      3.1655 eV  391.68 nm  f=0.0003  <S**2>=0.000
     240 -> 247       -0.45827
     240 -> 249       -0.11950
     241 -> 247        0.46440
     242 -> 247       -0.15952

 The electronic state is 1-A.
 Alpha  occ. eigenvalues --  -46.91723 -19.27931 -19.24040 -19.20568 -19.19378
 Alpha  occ. eigenvalues --  -19.18993 -19.18515 -14.42212 -14.41354 -14.39311
 Alpha  occ. eigenvalues --  -14.38450 -10.36960 -10.35676 -10.32594 -10.31253
 Alpha  occ. eigenvalues --  -10.30300 -10.29602 -10.29362 -10.28301 -10.28295
 Alpha  occ. eigenvalues --  -10.27983 -10.27688 -10.27597 -10.26874 -10.26776
 Alpha  occ. eigenvalues --  -10.26462 -10.26415 -10.26304 -10.26107 -10.25868
 Alpha  occ. eigenvalues --  -10.25818 -10.25626 -10.25547 -10.25490 -10.25351
 Alpha  occ. eigenvalues --  -10.25205 -10.25193 -10.24839 -10.24798 -10.24657
 Alpha  occ. eigenvalues --  -10.24476 -10.23924 -10.23842 -10.23654 -10.23583
 Alpha  occ. eigenvalues --  -10.23572 -10.23520 -10.23480 -10.23442 -10.23353
 Alpha  occ. eigenvalues --  -10.23295 -10.23164 -10.23158 -10.22938 -10.22920
 Alpha  occ. eigenvalues --  -10.22812 -10.22531 -10.22512 -10.22443 -10.22286
 Alpha  occ. eigenvalues --  -10.22219 -10.22085 -10.22059 -10.21979 -10.21908
 Alpha  occ. eigenvalues --  -10.21246  -3.13904  -1.86756  -1.86284  -1.86134
 Alpha  occ. eigenvalues --   -1.13900  -1.08524  -1.03684  -1.03284  -1.02404
 Alpha  occ. eigenvalues --   -0.99970  -0.99216  -0.98333  -0.97120  -0.96485
 Alpha  occ. eigenvalues --   -0.87642  -0.85113  -0.84686  -0.84028  -0.83047
 Alpha  occ. eigenvalues --   -0.82970  -0.82127  -0.81808  -0.81613  -0.81063
 Alpha  occ. eigenvalues --   -0.80568  -0.79803  -0.78714  -0.77841  -0.77641
 Alpha  occ. eigenvalues --   -0.76814  -0.76587  -0.75565  -0.75177  -0.74259
 Alpha  occ. eigenvalues --   -0.74148  -0.72427  -0.72266  -0.71228  -0.70192
 Alpha  occ. eigenvalues --   -0.69963  -0.69894  -0.69650  -0.69215  -0.68557
 Alpha  occ. eigenvalues --   -0.68146  -0.67481  -0.65729  -0.64959  -0.63860
 Alpha  occ. eigenvalues --   -0.63338  -0.63059  -0.61919  -0.61575  -0.60746
 Alpha  occ. eigenvalues --   -0.59972  -0.59717  -0.59483  -0.58839  -0.58776
 Alpha  occ. eigenvalues --   -0.57758  -0.57141  -0.56458  -0.55795  -0.55103
 Alpha  occ. eigenvalues --   -0.54535  -0.53787  -0.53423  -0.53099  -0.52390
 Alpha  occ. eigenvalues --   -0.52175  -0.51972  -0.51187  -0.50938  -0.50128
 Alpha  occ. eigenvalues --   -0.49755  -0.49423  -0.49297  -0.48660  -0.48458
 Alpha  occ. eigenvalues --   -0.48131  -0.47941  -0.47520  -0.47247  -0.47217
 Alpha  occ. eigenvalues --   -0.46792  -0.46652  -0.46452  -0.46260  -0.46060
 Alpha  occ. eigenvalues --   -0.45845  -0.45671  -0.45511  -0.45381  -0.45064
 Alpha  occ. eigenvalues --   -0.44759  -0.44696  -0.44462  -0.44434  -0.44387
 Alpha  occ. eigenvalues --   -0.44242  -0.44039  -0.43776  -0.43575  -0.43492
 Alpha  occ. eigenvalues --   -0.43109  -0.42980  -0.42865  -0.42787  -0.42477
 Alpha  occ. eigenvalues --   -0.42111  -0.41920  -0.41735  -0.41589  -0.41494
 Alpha  occ. eigenvalues --   -0.41270  -0.40931  -0.40898  -0.40598  -0.40370
 Alpha  occ. eigenvalues --   -0.40310  -0.40109  -0.39902  -0.39879  -0.39552
 Alpha  occ. eigenvalues --   -0.39312  -0.39252  -0.39110  -0.38908  -0.38513
 Alpha  occ. eigenvalues --   -0.38336  -0.38265  -0.38095  -0.37929  -0.37838
 Alpha  occ. eigenvalues --   -0.37615  -0.37282  -0.37212  -0.36687  -0.36637
 Alpha  occ. eigenvalues --   -0.36489  -0.36351  -0.36249  -0.36078  -0.35991
 Alpha  occ. eigenvalues --   -0.35951  -0.35815  -0.35109  -0.34890  -0.34670
 Alpha  occ. eigenvalues --   -0.34659  -0.34512  -0.34072  -0.34000  -0.33455
 Alpha  occ. eigenvalues --   -0.33249  -0.33109  -0.33024  -0.32860  -0.32724
 Alpha  occ. eigenvalues --   -0.32436  -0.32154  -0.31888  -0.31756  -0.31410
 Alpha  occ. eigenvalues --   -0.30779  -0.30373  -0.29929  -0.29797  -0.29380
 Alpha  occ. eigenvalues --   -0.29156  -0.28920  -0.27923  -0.26875  -0.26246
 Alpha  occ. eigenvalues --   -0.25937  -0.25525  -0.25300  -0.24793  -0.20818
 Alpha  occ. eigenvalues --   -0.19084
 Alpha virt. eigenvalues --   -0.11352  -0.05261  -0.04165  -0.02211  -0.00897
 Alpha virt. eigenvalues --    0.00548   0.00870   0.00974   0.01469   0.02782
 Alpha virt. eigenvalues --    0.03700   0.04295   0.05286   0.05607   0.05923

 Mulliken charges:
               1
     1  Mg   0.986894
     2  C    0.001577
     3  C   -0.076211
     4  C   -0.045759
     5  C   -0.074027
     6  N   -0.389136
     7  C    0.074861
     8  C   -0.138727
     9  C   -0.165987
    10  C    0.113379
    11  C   -0.025005
    12  C    0.007166
    13  C    0.049343
    14  C    0.188550
    15  O   -0.281475
    16  O   -0.332835
    17  N   -0.499218
    18  C    0.165092
    19  C   -0.137925
    20  C   -0.106470
    21  C    0.185393
    22  C    0.040499
    23  C    0.080544
    24  O   -0.251548
    25  C   -0.017949
    26  N   -0.450493
    27  C    0.046815
    28  C   -0.133522
    29  C   -0.106425
    30  C    0.141285
    31  C    0.006971
    32  C   -0.032236
    33  C   -0.064155
    34  N   -0.432790
    35  C    0.100582
    36  C   -0.184660
    37  C    0.015498
    38  C    0.140432
    39  C    0.065389
    40  C    0.112806
    41  O   -0.245458
    42  C   -0.109872
    43  C    0.289454
    44  O   -0.263439
    45  O   -0.388337
    46  C    0.125969
    47  C    0.242643
    48  C   -0.158483
    49  C   -0.251124
    50  C    0.027686
    51  C    0.013146
    52  C   -0.060177
    53  C   -0.019897
    54  C   -0.198757
    55  C   -0.012573
    56  C    0.020579
    57  C   -0.087603
    58  C   -0.022010
    59  C   -0.209797
    60  C    0.013634
    61  C   -0.005686
    62  C   -0.022022
    63  C   -0.030225
    64  C   -0.269275
    65  C   -0.016632
    66  C   -0.004844
    67  H    0.002062
    68  H    0.024036
    69  H   -0.005795
    70  H    0.108180
    71  H    0.043572
    72  H    0.055032
    73  H    0.057527
    74  H    0.050596
    75  H    0.041181
    76  H    0.043416
    77  H    0.055549
    78  H    0.065753
    79  H    0.054131
    80  H    0.026997
    81  H    0.055538
    82  H    0.066940
    83  H    0.070919
    84  H    0.045315
    85  H    0.052604
    86  H    0.048805
    87  H    0.053596
    88  H    0.065840
    89  H    0.047345
    90  H    0.037211
    91  H    0.031436
    92  H    0.047110
    93  H    0.040486
    94  H    0.048726
    95  H    0.034818
    96  H    0.071857
    97  H    0.062815
    98  H    0.085665
    99  H    0.047881
   100  H    0.059949
   101  H    0.047897
   102  H    0.077998
   103  H    0.052766
   104  H    0.022700
   105  H    0.036548
   106  H    0.040419
   107  H    0.062828
   108  H    0.028085
   109  H    0.038621
   110  H    0.035877
   111  H    0.035089
   112  H    0.037365
   113  H    0.029623
   114  H    0.042466
   115  H    0.033994
   116  H    0.029015
   117  H    0.033282
   118  H    0.031891
   119  H    0.032900
   120  H    0.031920
   121  H    0.013916
   122  H    0.025156
   123  H    0.018212
   124  H    0.018814
   125  H    0.040619
   126  H    0.042506
   127  H    0.036227
   128  H    0.018699
   129  H    0.014538
   130  H    0.035101
   131  H    0.033354
   132  H    0.023632
   133  H    0.035254
   134  H    0.027739
   135  H    0.052497
   136  H    0.030618
   137  H    0.031588
   138  H    0.027015
   139  H    0.034495
   140  H    0.028221
 Sum of Mulliken charges =  -0.00000

 Dipole moment (field-independent basis, Debye):
    X=             -4.7795    Y=              4.3120    Z=              2.6680  Tot=              6.9682
 Quadrupole moment (field-independent basis, Debye-Ang):
   XX=           -379.0723   YY=           -434.9380   ZZ=           -402.3535
   XY=             31.7000   XZ=             23.8506   YZ=             -5.6107

 Normal termination of Gaussian 16 at Tue May  3 23:32:54 2022.
