 Gaussian 16, Revision A.03,
 Gaussian 16:  ES64L-G16RevA.03 25-Dec-2016

 --------------------------------
 #p wB97XD/Def2SVP td=(nstates=5)
 --------------------------------

 -----------------------------------------------------
 step_1101_chromophore_21 TDDFT with wB97XD functional
 -----------------------------------------------------
 Symbolic Z-matrix:
 Charge =  0 Multiplicity = 1

                         Standard orientation:
 ---------------------------------------------------------------------
 Center     Atomic      Atomic             Coordinates (Angstroms)
 Number     Number       Type             X           Y           Z
 ---------------------------------------------------------------------
      1         12           0        5.251986    1.175214    0.032042
      2          6           0        4.799786   -2.286073    0.194105
      3          6           0        1.862195    1.625542   -0.062366
      4          6           0        5.812542    4.330873   -0.103489
      5          6           0        8.766560    0.519897    0.077934
      6          7           0        3.542058   -0.284751    0.096591
      7          6           0        3.544421   -1.626303    0.336370
      8          6           0        2.141583   -2.277997    0.442545
      9          6           0        1.239130   -0.889210    0.119785
     10          6           0        2.262516    0.259741    0.096194
     11          6           0        0.412458   -1.030888   -1.231783
     12          6           0        1.927394   -2.863531    1.900544
     13          6           0        0.635686   -3.595805    2.058128
     14          6           0       -0.110722   -4.046064    0.869197
     15          8           0        0.192973   -4.969521    0.109081
     16          8           0       -1.186817   -3.271297    0.673621
     17          7           0        3.979260    2.766245   -0.185398
     18          6           0        2.619656    2.815271   -0.129894
     19          6           0        2.123341    4.138023   -0.233811
     20          6           0        3.301766    4.991713   -0.177622
     21          6           0        4.444135    4.048077   -0.187023
     22          6           0        0.628457    4.593921   -0.280461
     23          6           0        3.449514    6.525013   -0.290244
     24          8           0        4.570827    7.055836   -0.394684
     25          6           0        2.193511    7.265979   -0.219587
     26          7           0        7.001611    2.233475    0.049993
     27          6           0        6.977063    3.608629   -0.088421
     28          6           0        8.381869    4.266510   -0.001908
     29          6           0        9.335057    2.974106    0.123928
     30          6           0        8.328779    1.820167    0.114954
     31          6           0        8.801242    5.205074   -1.213455
     32          6           0       10.294464    2.960275    1.415258
     33          6           0       11.637491    2.179904    1.291394
     34          7           0        6.587698   -0.475741   -0.024117
     35          6           0        7.941916   -0.596737   -0.072963
     36          6           0        8.348995   -1.984634   -0.047621
     37          6           0        7.145121   -2.648722   -0.040490
     38          6           0        6.107572   -1.725289    0.069482
     39          6           0        9.793741   -2.510291   -0.225628
     40          6           0        6.588008   -3.934313   -0.069704
     41          8           0        7.155646   -5.029692   -0.290061
     42          6           0        5.064566   -3.755029    0.187413
     43          6           0        4.307923   -4.471459   -0.872255
     44          8           0        4.216658   -4.209589   -2.076740
     45          8           0        3.523051   -5.513135   -0.344082
     46          6           0        2.756959   -6.313790   -1.308603
     47          6           0       -1.909785   -3.613345   -0.540665
     48          6           0       -3.242397   -2.910678   -0.365620
     49          6           0       -4.317788   -2.753540   -1.191288
     50          6           0       -4.269812   -3.380684   -2.555795
     51          6           0       -5.591025   -1.974307   -0.830551
     52          6           0       -6.821843   -2.793402   -0.206056
     53          6           0       -7.180250   -2.204235    1.211440
     54          6           0       -7.674865   -0.762517    1.164173
     55          6           0       -6.729256    0.124552    2.041887
     56          6           0       -9.256584   -0.637241    1.465920
     57          6           0      -10.128121   -1.057519    0.305940
     58          6           0      -11.676189   -0.987056    0.454086
     59          6           0      -12.321431    0.342259    0.782802
     60          6           0      -12.308553    0.569353    2.362122
     61          6           0      -13.664170    0.499327    0.221795
     62          6           0      -13.932843    1.829761   -0.628359
     63          6           0      -15.167095    2.551180   -0.049799
     64          6           0      -16.057384    3.244017   -1.097458
     65          6           0      -17.031546    4.236175   -0.398297
     66          6           0      -16.690157    2.189562   -2.005334
     67          1           0        0.776624    1.750144   -0.051751
     68          1           0        6.156524    5.356439    0.040194
     69          1           0        9.829639    0.282181    0.005146
     70          1           0        1.930506   -3.033505   -0.314449
     71          1           0        0.375011   -0.700052    0.756592
     72          1           0        0.566132   -2.047437   -1.595923
     73          1           0        0.762160   -0.232359   -1.886449
     74          1           0       -0.650368   -0.946038   -1.005093
     75          1           0        1.957439   -2.194748    2.760946
     76          1           0        2.753498   -3.536205    2.129776
     77          1           0        0.000147   -2.856551    2.546154
     78          1           0        0.919380   -4.463358    2.653140
     79          1           0        0.365638    5.217715    0.574048
     80          1           0        0.013711    3.694206   -0.256349
     81          1           0        0.194928    5.087623   -1.149908
     82          1           0        1.642183    7.021962    0.688209
     83          1           0        1.596730    7.183460   -1.128374
     84          1           0        2.403381    8.334633   -0.177035
     85          1           0        8.494364    4.836584    0.920981
     86          1           0        9.942309    2.983351   -0.781822
     87          1           0        8.461435    6.207413   -0.956747
     88          1           0        8.288926    4.790791   -2.081994
     89          1           0        9.886506    5.301661   -1.176116
     90          1           0        9.762931    2.714306    2.334644
     91          1           0       10.501892    4.006394    1.639560
     92          1           0       12.518504    2.749840    1.586312
     93          1           0       11.759921    1.883799    0.249962
     94          1           0       11.647687    1.249094    1.858507
     95          1           0       10.412915   -1.732163   -0.671330
     96          1           0        9.902573   -3.329606   -0.935632
     97          1           0       10.163034   -2.728414    0.776222
     98          1           0        4.878532   -4.218580    1.156145
     99          1           0        2.405195   -5.784825   -2.194080
    100          1           0        1.815719   -6.692745   -0.911596
    101          1           0        3.318211   -7.167459   -1.686762
    102          1           0       -1.991895   -4.641252   -0.893295
    103          1           0       -1.487025   -3.107091   -1.408861
    104          1           0       -3.341228   -2.419127    0.601805
    105          1           0       -3.233785   -3.535792   -2.857262
    106          1           0       -4.726457   -2.656737   -3.230237
    107          1           0       -4.845896   -4.303612   -2.489976
    108          1           0       -5.954753   -1.533240   -1.759061
    109          1           0       -5.369074   -1.214166   -0.081513
    110          1           0       -6.478248   -3.826502   -0.153862
    111          1           0       -7.709378   -2.753813   -0.838290
    112          1           0       -6.286022   -2.379456    1.808020
    113          1           0       -7.950676   -2.878517    1.587325
    114          1           0       -7.581481   -0.356010    0.156762
    115          1           0       -7.151751    0.566482    2.944801
    116          1           0       -6.408725    0.983108    1.451817
    117          1           0       -5.826859   -0.389089    2.374240
    118          1           0       -9.457571    0.421495    1.628834
    119          1           0       -9.601596   -1.327748    2.236035
    120          1           0       -9.968894   -2.094447    0.013185
    121          1           0       -9.866347   -0.492069   -0.588799
    122          1           0      -12.016163   -1.794415    1.103332
    123          1           0      -12.018853   -1.181184   -0.562669
    124          1           0      -11.689179    1.047417    0.244228
    125          1           0      -11.639596    1.421348    2.482599
    126          1           0      -11.930102   -0.329211    2.847866
    127          1           0      -13.320756    0.844312    2.659991
    128          1           0      -14.363617    0.198672    1.001767
    129          1           0      -13.911876   -0.269212   -0.510898
    130          1           0      -14.007865    1.514720   -1.669379
    131          1           0      -13.164173    2.601676   -0.653032
    132          1           0      -14.942750    3.410964    0.581810
    133          1           0      -15.754918    1.848970    0.540653
    134          1           0      -15.495948    3.889630   -1.772393
    135          1           0      -16.350331    5.083517   -0.330518
    136          1           0      -17.376619    3.808822    0.543339
    137          1           0      -17.984417    4.360020   -0.912764
    138          1           0      -16.496339    1.235872   -1.515069
    139          1           0      -16.231186    2.134524   -2.992805
    140          1           0      -17.760082    2.340156   -2.148997
 ---------------------------------------------------------------------

 SCF Done:  E(RwB97XD) =  -3007.85753051     A.U. after   19 cycles

 Excitation energies and oscillator strengths:

 Excited State   1:      Singlet-A      1.6655 eV  744.44 nm  f=0.3872  <S**2>=0.000
     245 -> 248       -0.19414
     246 -> 247        0.68124
     245 <- 248       -0.11764
 This state for optimization and/or second-order correction.
 Total Energy, E(TD-HF/TD-DFT) =  -3007.79632533
 Copying the excited state density for this state as the 1-particle RhoCI density.

 Excited State   2:      Singlet-A      2.1187 eV  585.20 nm  f=0.1358  <S**2>=0.000
     245 -> 247        0.65000
     246 -> 248        0.26614

 Excited State   3:      Singlet-A      3.3550 eV  369.55 nm  f=0.0023  <S**2>=0.000
     241 -> 247        0.43880
     241 -> 249       -0.25428
     241 -> 250       -0.19716
     242 -> 247        0.33787
     242 -> 249       -0.16903
     242 -> 250       -0.13001
     243 -> 247       -0.11041

 Excited State   4:      Singlet-A      3.4349 eV  360.96 nm  f=0.0015  <S**2>=0.000
     242 -> 247        0.22095
     243 -> 247        0.65035

 Excited State   5:      Singlet-A      3.5463 eV  349.62 nm  f=0.2878  <S**2>=0.000
     241 -> 247       -0.24634
     242 -> 247        0.32554
     243 -> 247       -0.12786
     245 -> 247       -0.16391
     246 -> 248        0.51602

 The electronic state is 1-A.
 Alpha  occ. eigenvalues --  -46.94658 -19.32486 -19.28658 -19.25236 -19.24151
 Alpha  occ. eigenvalues --  -19.23782 -19.23451 -14.47390 -14.46356 -14.44236
 Alpha  occ. eigenvalues --  -14.43447 -10.43749 -10.42582 -10.39406 -10.38240
 Alpha  occ. eigenvalues --  -10.36796 -10.35953 -10.35609 -10.34600 -10.34544
 Alpha  occ. eigenvalues --  -10.34296 -10.33970 -10.33858 -10.33306 -10.33168
 Alpha  occ. eigenvalues --  -10.32954 -10.32696 -10.32685 -10.32549 -10.32165
 Alpha  occ. eigenvalues --  -10.32034 -10.32017 -10.31999 -10.31918 -10.31842
 Alpha  occ. eigenvalues --  -10.31701 -10.31476 -10.31204 -10.31187 -10.30936
 Alpha  occ. eigenvalues --  -10.30767 -10.30349 -10.30315 -10.30048 -10.29987
 Alpha  occ. eigenvalues --  -10.29942 -10.29940 -10.29911 -10.29836 -10.29802
 Alpha  occ. eigenvalues --  -10.29677 -10.29559 -10.29523 -10.29276 -10.29219
 Alpha  occ. eigenvalues --  -10.29087 -10.28928 -10.28870 -10.28792 -10.28646
 Alpha  occ. eigenvalues --  -10.28584 -10.28489 -10.28433 -10.28428 -10.28325
 Alpha  occ. eigenvalues --  -10.27675  -3.20686  -1.94288  -1.93817  -1.93667
 Alpha  occ. eigenvalues --   -1.21265  -1.15997  -1.11146  -1.10631  -1.10023
 Alpha  occ. eigenvalues --   -1.07413  -1.06631  -1.05657  -1.04561  -1.03860
 Alpha  occ. eigenvalues --   -0.95350  -0.92781  -0.92349  -0.91706  -0.90643
 Alpha  occ. eigenvalues --   -0.90628  -0.89786  -0.89397  -0.89210  -0.88725
 Alpha  occ. eigenvalues --   -0.88230  -0.87443  -0.86369  -0.85487  -0.85281
 Alpha  occ. eigenvalues --   -0.84506  -0.84212  -0.83222  -0.82831  -0.81920
 Alpha  occ. eigenvalues --   -0.81788  -0.80106  -0.79927  -0.78817  -0.77818
 Alpha  occ. eigenvalues --   -0.77659  -0.77593  -0.77351  -0.76834  -0.76209
 Alpha  occ. eigenvalues --   -0.75749  -0.75080  -0.73263  -0.72584  -0.71424
 Alpha  occ. eigenvalues --   -0.70903  -0.70696  -0.69457  -0.69200  -0.68242
 Alpha  occ. eigenvalues --   -0.67621  -0.67210  -0.66977  -0.66315  -0.66183
 Alpha  occ. eigenvalues --   -0.65410  -0.64815  -0.64095  -0.63280  -0.62521
 Alpha  occ. eigenvalues --   -0.62066  -0.61175  -0.60915  -0.60498  -0.59922
 Alpha  occ. eigenvalues --   -0.59608  -0.59460  -0.58621  -0.58323  -0.57599
 Alpha  occ. eigenvalues --   -0.57145  -0.56892  -0.56723  -0.56052  -0.55910
 Alpha  occ. eigenvalues --   -0.55552  -0.55286  -0.54900  -0.54806  -0.54632
 Alpha  occ. eigenvalues --   -0.54188  -0.54030  -0.53816  -0.53689  -0.53403
 Alpha  occ. eigenvalues --   -0.53224  -0.53020  -0.52901  -0.52688  -0.52371
 Alpha  occ. eigenvalues --   -0.52093  -0.52029  -0.51815  -0.51756  -0.51740
 Alpha  occ. eigenvalues --   -0.51583  -0.51365  -0.51081  -0.50895  -0.50841
 Alpha  occ. eigenvalues --   -0.50387  -0.50276  -0.50146  -0.50112  -0.49732
 Alpha  occ. eigenvalues --   -0.49350  -0.49189  -0.48986  -0.48895  -0.48733
 Alpha  occ. eigenvalues --   -0.48508  -0.48173  -0.48005  -0.47764  -0.47615
 Alpha  occ. eigenvalues --   -0.47516  -0.47288  -0.47167  -0.47055  -0.46773
 Alpha  occ. eigenvalues --   -0.46511  -0.46399  -0.46286  -0.46068  -0.45761
 Alpha  occ. eigenvalues --   -0.45554  -0.45398  -0.45230  -0.45055  -0.45016
 Alpha  occ. eigenvalues --   -0.44734  -0.44377  -0.44316  -0.43805  -0.43784
 Alpha  occ. eigenvalues --   -0.43634  -0.43443  -0.43355  -0.43132  -0.43035
 Alpha  occ. eigenvalues --   -0.43005  -0.42782  -0.42184  -0.41934  -0.41759
 Alpha  occ. eigenvalues --   -0.41736  -0.41642  -0.41074  -0.40907  -0.40498
 Alpha  occ. eigenvalues --   -0.40245  -0.40087  -0.39973  -0.39852  -0.39753
 Alpha  occ. eigenvalues --   -0.39444  -0.39225  -0.38836  -0.38671  -0.38397
 Alpha  occ. eigenvalues --   -0.37697  -0.37346  -0.36953  -0.36735  -0.36484
 Alpha  occ. eigenvalues --   -0.35993  -0.35648  -0.35070  -0.33531  -0.33247
 Alpha  occ. eigenvalues --   -0.32610  -0.32526  -0.32085  -0.31509  -0.25781
 Alpha  occ. eigenvalues --   -0.23288
 Alpha virt. eigenvalues --   -0.07269   0.00173   0.02107   0.04250   0.05922
 Alpha virt. eigenvalues --    0.06586   0.07543   0.07633   0.07878   0.09134
 Alpha virt. eigenvalues --    0.10276   0.11132   0.12022   0.12352   0.12725

 Mulliken charges:
               1
     1  Mg   0.974617
     2  C   -0.003324
     3  C   -0.090682
     4  C   -0.057260
     5  C   -0.091210
     6  N   -0.354944
     7  C    0.040680
     8  C   -0.102316
     9  C   -0.147216
    10  C    0.098929
    11  C   -0.007936
    12  C    0.012747
    13  C    0.064671
    14  C    0.173620
    15  O   -0.276874
    16  O   -0.328340
    17  N   -0.465977
    18  C    0.161011
    19  C   -0.134448
    20  C   -0.103328
    21  C    0.177915
    22  C    0.054326
    23  C    0.077910
    24  O   -0.245315
    25  C   -0.007995
    26  N   -0.421678
    27  C    0.033345
    28  C   -0.109882
    29  C   -0.080997
    30  C    0.133940
    31  C    0.019561
    32  C   -0.020973
    33  C   -0.047813
    34  N   -0.393623
    35  C    0.094851
    36  C   -0.187145
    37  C    0.026195
    38  C    0.126439
    39  C    0.077057
    40  C    0.090594
    41  O   -0.234043
    42  C   -0.068450
    43  C    0.265199
    44  O   -0.257063
    45  O   -0.385879
    46  C    0.139895
    47  C    0.256993
    48  C   -0.166275
    49  C   -0.234897
    50  C    0.041863
    51  C    0.035066
    52  C   -0.042714
    53  C   -0.001523
    54  C   -0.171412
    55  C   -0.002030
    56  C    0.040791
    57  C   -0.070709
    58  C   -0.004892
    59  C   -0.181786
    60  C    0.026778
    61  C    0.008537
    62  C   -0.011086
    63  C   -0.006979
    64  C   -0.243039
    65  C   -0.003594
    66  C    0.006604
    67  H   -0.005398
    68  H    0.016654
    69  H   -0.018096
    70  H    0.089616
    71  H    0.033678
    72  H    0.046220
    73  H    0.051473
    74  H    0.042043
    75  H    0.036406
    76  H    0.032101
    77  H    0.050019
    78  H    0.061758
    79  H    0.048160
    80  H    0.021279
    81  H    0.051341
    82  H    0.061060
    83  H    0.066240
    84  H    0.043827
    85  H    0.042697
    86  H    0.037239
    87  H    0.048350
    88  H    0.060101
    89  H    0.040767
    90  H    0.030362
    91  H    0.022442
    92  H    0.042949
    93  H    0.033060
    94  H    0.042725
    95  H    0.029544
    96  H    0.069203
    97  H    0.058457
    98  H    0.079888
    99  H    0.044066
   100  H    0.056670
   101  H    0.044307
   102  H    0.074806
   103  H    0.041086
   104  H    0.017691
   105  H    0.030763
   106  H    0.034426
   107  H    0.057075
   108  H    0.020274
   109  H    0.023463
   110  H    0.027689
   111  H    0.025165
   112  H    0.026359
   113  H    0.021085
   114  H    0.027383
   115  H    0.029367
   116  H    0.023912
   117  H    0.027134
   118  H    0.020241
   119  H    0.022759
   120  H    0.021316
   121  H    0.004581
   122  H    0.016623
   123  H    0.008122
   124  H    0.003676
   125  H    0.034871
   126  H    0.035593
   127  H    0.030227
   128  H    0.009041
   129  H    0.005575
   130  H    0.027633
   131  H    0.026295
   132  H    0.014030
   133  H    0.022966
   134  H    0.017099
   135  H    0.046152
   136  H    0.023777
   137  H    0.026425
   138  H    0.017333
   139  H    0.029231
   140  H    0.023061
 Sum of Mulliken charges =  -0.00000

 Dipole moment (field-independent basis, Debye):
    X=             -4.8570    Y=              4.2051    Z=              2.6870  Tot=              6.9637
 Quadrupole moment (field-independent basis, Debye-Ang):
   XX=           -379.7877   YY=           -433.7139   ZZ=           -401.9761
   XY=             30.0366   XZ=             23.8196   YZ=             -5.7055

 Normal termination of Gaussian 16 at Tue May  3 23:58:13 2022.
