 Gaussian 16, Revision A.03,
 Gaussian 16:  ES64L-G16RevA.03 25-Dec-2016

 --------------------
 #p ZINDO=(nstates=5)
 --------------------

 ------------------------------
 step_1101_chromophore_21 ZINDO
 ------------------------------
 Symbolic Z-matrix:
 Charge =  0 Multiplicity = 1

                         Standard orientation:
 ---------------------------------------------------------------------
 Center     Atomic      Atomic             Coordinates (Angstroms)
 Number     Number       Type             X           Y           Z
 ---------------------------------------------------------------------
      1         12           0        5.251986    1.175214    0.032042
      2          6           0        4.799786   -2.286073    0.194105
      3          6           0        1.862195    1.625542   -0.062366
      4          6           0        5.812542    4.330873   -0.103489
      5          6           0        8.766560    0.519897    0.077934
      6          7           0        3.542058   -0.284751    0.096591
      7          6           0        3.544421   -1.626303    0.336370
      8          6           0        2.141583   -2.277997    0.442545
      9          6           0        1.239130   -0.889210    0.119785
     10          6           0        2.262516    0.259741    0.096194
     11          6           0        0.412458   -1.030888   -1.231783
     12          6           0        1.927394   -2.863531    1.900544
     13          6           0        0.635686   -3.595805    2.058128
     14          6           0       -0.110722   -4.046064    0.869197
     15          8           0        0.192973   -4.969521    0.109081
     16          8           0       -1.186817   -3.271297    0.673621
     17          7           0        3.979260    2.766245   -0.185398
     18          6           0        2.619656    2.815271   -0.129894
     19          6           0        2.123341    4.138023   -0.233811
     20          6           0        3.301766    4.991713   -0.177622
     21          6           0        4.444135    4.048077   -0.187023
     22          6           0        0.628457    4.593921   -0.280461
     23          6           0        3.449514    6.525013   -0.290244
     24          8           0        4.570827    7.055836   -0.394684
     25          6           0        2.193511    7.265979   -0.219587
     26          7           0        7.001611    2.233475    0.049993
     27          6           0        6.977063    3.608629   -0.088421
     28          6           0        8.381869    4.266510   -0.001908
     29          6           0        9.335057    2.974106    0.123928
     30          6           0        8.328779    1.820167    0.114954
     31          6           0        8.801242    5.205074   -1.213455
     32          6           0       10.294464    2.960275    1.415258
     33          6           0       11.637491    2.179904    1.291394
     34          7           0        6.587698   -0.475741   -0.024117
     35          6           0        7.941916   -0.596737   -0.072963
     36          6           0        8.348995   -1.984634   -0.047621
     37          6           0        7.145121   -2.648722   -0.040490
     38          6           0        6.107572   -1.725289    0.069482
     39          6           0        9.793741   -2.510291   -0.225628
     40          6           0        6.588008   -3.934313   -0.069704
     41          8           0        7.155646   -5.029692   -0.290061
     42          6           0        5.064566   -3.755029    0.187413
     43          6           0        4.307923   -4.471459   -0.872255
     44          8           0        4.216658   -4.209589   -2.076740
     45          8           0        3.523051   -5.513135   -0.344082
     46          6           0        2.756959   -6.313790   -1.308603
     47          6           0       -1.909785   -3.613345   -0.540665
     48          6           0       -3.242397   -2.910678   -0.365620
     49          6           0       -4.317788   -2.753540   -1.191288
     50          6           0       -4.269812   -3.380684   -2.555795
     51          6           0       -5.591025   -1.974307   -0.830551
     52          6           0       -6.821843   -2.793402   -0.206056
     53          6           0       -7.180250   -2.204235    1.211440
     54          6           0       -7.674865   -0.762517    1.164173
     55          6           0       -6.729256    0.124552    2.041887
     56          6           0       -9.256584   -0.637241    1.465920
     57          6           0      -10.128121   -1.057519    0.305940
     58          6           0      -11.676189   -0.987056    0.454086
     59          6           0      -12.321431    0.342259    0.782802
     60          6           0      -12.308553    0.569353    2.362122
     61          6           0      -13.664170    0.499327    0.221795
     62          6           0      -13.932843    1.829761   -0.628359
     63          6           0      -15.167095    2.551180   -0.049799
     64          6           0      -16.057384    3.244017   -1.097458
     65          6           0      -17.031546    4.236175   -0.398297
     66          6           0      -16.690157    2.189562   -2.005334
     67          1           0        0.776624    1.750144   -0.051751
     68          1           0        6.156524    5.356439    0.040194
     69          1           0        9.829639    0.282181    0.005146
     70          1           0        1.930506   -3.033505   -0.314449
     71          1           0        0.375011   -0.700052    0.756592
     72          1           0        0.566132   -2.047437   -1.595923
     73          1           0        0.762160   -0.232359   -1.886449
     74          1           0       -0.650368   -0.946038   -1.005093
     75          1           0        1.957439   -2.194748    2.760946
     76          1           0        2.753498   -3.536205    2.129776
     77          1           0        0.000147   -2.856551    2.546154
     78          1           0        0.919380   -4.463358    2.653140
     79          1           0        0.365638    5.217715    0.574048
     80          1           0        0.013711    3.694206   -0.256349
     81          1           0        0.194928    5.087623   -1.149908
     82          1           0        1.642183    7.021962    0.688209
     83          1           0        1.596730    7.183460   -1.128374
     84          1           0        2.403381    8.334633   -0.177035
     85          1           0        8.494364    4.836584    0.920981
     86          1           0        9.942309    2.983351   -0.781822
     87          1           0        8.461435    6.207413   -0.956747
     88          1           0        8.288926    4.790791   -2.081994
     89          1           0        9.886506    5.301661   -1.176116
     90          1           0        9.762931    2.714306    2.334644
     91          1           0       10.501892    4.006394    1.639560
     92          1           0       12.518504    2.749840    1.586312
     93          1           0       11.759921    1.883799    0.249962
     94          1           0       11.647687    1.249094    1.858507
     95          1           0       10.412915   -1.732163   -0.671330
     96          1           0        9.902573   -3.329606   -0.935632
     97          1           0       10.163034   -2.728414    0.776222
     98          1           0        4.878532   -4.218580    1.156145
     99          1           0        2.405195   -5.784825   -2.194080
    100          1           0        1.815719   -6.692745   -0.911596
    101          1           0        3.318211   -7.167459   -1.686762
    102          1           0       -1.991895   -4.641252   -0.893295
    103          1           0       -1.487025   -3.107091   -1.408861
    104          1           0       -3.341228   -2.419127    0.601805
    105          1           0       -3.233785   -3.535792   -2.857262
    106          1           0       -4.726457   -2.656737   -3.230237
    107          1           0       -4.845896   -4.303612   -2.489976
    108          1           0       -5.954753   -1.533240   -1.759061
    109          1           0       -5.369074   -1.214166   -0.081513
    110          1           0       -6.478248   -3.826502   -0.153862
    111          1           0       -7.709378   -2.753813   -0.838290
    112          1           0       -6.286022   -2.379456    1.808020
    113          1           0       -7.950676   -2.878517    1.587325
    114          1           0       -7.581481   -0.356010    0.156762
    115          1           0       -7.151751    0.566482    2.944801
    116          1           0       -6.408725    0.983108    1.451817
    117          1           0       -5.826859   -0.389089    2.374240
    118          1           0       -9.457571    0.421495    1.628834
    119          1           0       -9.601596   -1.327748    2.236035
    120          1           0       -9.968894   -2.094447    0.013185
    121          1           0       -9.866347   -0.492069   -0.588799
    122          1           0      -12.016163   -1.794415    1.103332
    123          1           0      -12.018853   -1.181184   -0.562669
    124          1           0      -11.689179    1.047417    0.244228
    125          1           0      -11.639596    1.421348    2.482599
    126          1           0      -11.930102   -0.329211    2.847866
    127          1           0      -13.320756    0.844312    2.659991
    128          1           0      -14.363617    0.198672    1.001767
    129          1           0      -13.911876   -0.269212   -0.510898
    130          1           0      -14.007865    1.514720   -1.669379
    131          1           0      -13.164173    2.601676   -0.653032
    132          1           0      -14.942750    3.410964    0.581810
    133          1           0      -15.754918    1.848970    0.540653
    134          1           0      -15.495948    3.889630   -1.772393
    135          1           0      -16.350331    5.083517   -0.330518
    136          1           0      -17.376619    3.808822    0.543339
    137          1           0      -17.984417    4.360020   -0.912764
    138          1           0      -16.496339    1.235872   -1.515069
    139          1           0      -16.231186    2.134524   -2.992805
    140          1           0      -17.760082    2.340156   -2.148997
 ---------------------------------------------------------------------

 SCF Done:  E(RZINDO/S) =  -474.126151359     A.U. after   20 cycles

 Excitation energies and oscillator strengths:

 Excited State   1:      Singlet-A      1.2520 eV  990.31 nm  f=0.6224  <S**2>=0.000
     175 ->178        -0.19457
     176 ->177         0.66163
 This state for optimization and/or second-order correction.
 Total Energy, E(CIS/TDA) =  -474.080142094
 Copying the excited state density for this state as the 1-particle RhoCI density.

 Excited State   2:      Singlet-A      1.8852 eV  657.66 nm  f=0.0798  <S**2>=0.000
     175 ->177         0.57111
     176 ->178         0.38453

 Excited State   3:      Singlet-A      2.8363 eV  437.13 nm  f=0.0063  <S**2>=0.000
     169 ->177         0.37385
     169 ->178        -0.19127
     169 ->179        -0.33538
     169 ->180         0.28346
     169 ->185        -0.16372
     169 ->200         0.11231
     171 ->177         0.10623

 Excited State   4:      Singlet-A      2.9949 eV  413.98 nm  f=0.8142  <S**2>=0.000
     171 ->177         0.12395
     175 ->177        -0.30757
     176 ->178         0.52669
     176 ->179         0.26281

 Excited State   5:      Singlet-A      3.0457 eV  407.08 nm  f=0.0102  <S**2>=0.000
     168 ->177         0.24599
     168 ->179         0.34407
     168 ->180         0.32209
     168 ->185         0.20183
     168 ->187         0.15556
     170 ->179        -0.11414
     170 ->180        -0.12264
     172 ->177         0.10801
     176 ->179        -0.16234

 The electronic state is 1-A.
 Alpha  occ. eigenvalues --   -1.86231  -1.80370  -1.78659  -1.76082  -1.69950
 Alpha  occ. eigenvalues --   -1.68386  -1.66128  -1.61240  -1.58774  -1.57086
 Alpha  occ. eigenvalues --   -1.56807  -1.52086  -1.47961  -1.46801  -1.45296
 Alpha  occ. eigenvalues --   -1.43626  -1.41766  -1.39787  -1.39022  -1.37903
 Alpha  occ. eigenvalues --   -1.36131  -1.32942  -1.32102  -1.30792  -1.28794
 Alpha  occ. eigenvalues --   -1.27017  -1.25088  -1.22870  -1.21188  -1.18377
 Alpha  occ. eigenvalues --   -1.17163  -1.16744  -1.16713  -1.14216  -1.13333
 Alpha  occ. eigenvalues --   -1.11852  -1.10178  -1.09740  -1.05273  -1.04557
 Alpha  occ. eigenvalues --   -1.03461  -1.01280  -0.98433  -0.97885  -0.97282
 Alpha  occ. eigenvalues --   -0.96308  -0.95121  -0.94646  -0.92932  -0.92506
 Alpha  occ. eigenvalues --   -0.90534  -0.89467  -0.87430  -0.87362  -0.87176
 Alpha  occ. eigenvalues --   -0.86712  -0.86306  -0.83397  -0.82114  -0.80117
 Alpha  occ. eigenvalues --   -0.79784  -0.79434  -0.77509  -0.76916  -0.76187
 Alpha  occ. eigenvalues --   -0.75308  -0.74954  -0.74460  -0.73523  -0.73235
 Alpha  occ. eigenvalues --   -0.72763  -0.72215  -0.71647  -0.71066  -0.70731
 Alpha  occ. eigenvalues --   -0.69966  -0.69279  -0.68715  -0.68100  -0.67767
 Alpha  occ. eigenvalues --   -0.67197  -0.66636  -0.66291  -0.65898  -0.65448
 Alpha  occ. eigenvalues --   -0.65239  -0.64933  -0.64335  -0.64036  -0.63715
 Alpha  occ. eigenvalues --   -0.62924  -0.62656  -0.62226  -0.62015  -0.61563
 Alpha  occ. eigenvalues --   -0.61112  -0.61082  -0.60492  -0.60401  -0.60168
 Alpha  occ. eigenvalues --   -0.59637  -0.59518  -0.59106  -0.58638  -0.58003
 Alpha  occ. eigenvalues --   -0.57594  -0.57284  -0.57094  -0.57076  -0.56449
 Alpha  occ. eigenvalues --   -0.55827  -0.55435  -0.55368  -0.55138  -0.54502
 Alpha  occ. eigenvalues --   -0.53734  -0.53649  -0.53307  -0.53102  -0.52721
 Alpha  occ. eigenvalues --   -0.52520  -0.52159  -0.51944  -0.51680  -0.51604
 Alpha  occ. eigenvalues --   -0.51285  -0.50862  -0.50467  -0.50462  -0.50015
 Alpha  occ. eigenvalues --   -0.49798  -0.49522  -0.49349  -0.48898  -0.48602
 Alpha  occ. eigenvalues --   -0.48479  -0.48189  -0.47985  -0.47664  -0.47457
 Alpha  occ. eigenvalues --   -0.47096  -0.47074  -0.46607  -0.46539  -0.46255
 Alpha  occ. eigenvalues --   -0.46134  -0.45968  -0.45676  -0.45623  -0.45446
 Alpha  occ. eigenvalues --   -0.45252  -0.44839  -0.44604  -0.44428  -0.44310
 Alpha  occ. eigenvalues --   -0.44176  -0.43784  -0.43100  -0.42976  -0.42518
 Alpha  occ. eigenvalues --   -0.42285  -0.41559  -0.40922  -0.39026  -0.38675
 Alpha  occ. eigenvalues --   -0.37890  -0.37513  -0.35492  -0.35061  -0.34928
 Alpha  occ. eigenvalues --   -0.33497  -0.32802  -0.32407  -0.31722  -0.26582
 Alpha  occ. eigenvalues --   -0.22135
 Alpha virt. eigenvalues --   -0.08897  -0.02227  -0.00648   0.01156   0.01563
 Alpha virt. eigenvalues --    0.02662   0.02733   0.03468   0.04765   0.04792
 Alpha virt. eigenvalues --    0.05941   0.06619   0.07109   0.07603   0.08157

 Mulliken charges:
               1
     1  Mg   0.429401
     2  C   -0.038973
     3  C   -0.066618
     4  C   -0.056000
     5  C   -0.069344
     6  N   -0.271788
     7  C    0.127245
     8  C    0.002400
     9  C   -0.019284
    10  C    0.108074
    11  C   -0.059199
    12  C   -0.015408
    13  C    0.006255
    14  C    0.478022
    15  O   -0.539516
    16  O   -0.250414
    17  N   -0.315987
    18  C    0.110269
    19  C   -0.004285
    20  C   -0.069971
    21  C    0.142165
    22  C   -0.048443
    23  C    0.338121
    24  O   -0.530247
    25  C   -0.026201
    26  N   -0.279948
    27  C    0.128563
    28  C   -0.009906
    29  C   -0.008236
    30  C    0.139705
    31  C   -0.055314
    32  C   -0.031596
    33  C   -0.054964
    34  N   -0.322514
    35  C    0.115069
    36  C    0.030862
    37  C   -0.026438
    38  C    0.117520
    39  C   -0.037079
    40  C    0.329793
    41  O   -0.533220
    42  C    0.068141
    43  C    0.487105
    44  O   -0.522317
    45  O   -0.276722
    46  C    0.074415
    47  C    0.106880
    48  C   -0.100384
    49  C   -0.019197
    50  C   -0.046029
    51  C   -0.026383
    52  C   -0.040643
    53  C   -0.028380
    54  C   -0.008829
    55  C   -0.060209
    56  C   -0.033303
    57  C   -0.036329
    58  C   -0.035516
    59  C   -0.009192
    60  C   -0.065550
    61  C   -0.034453
    62  C   -0.037001
    63  C   -0.031385
    64  C   -0.018131
    65  C   -0.066921
    66  C   -0.059882
    67  H    0.022815
    68  H    0.034536
    69  H    0.029009
    70  H    0.068854
    71  H    0.031457
    72  H    0.030817
    73  H    0.031887
    74  H    0.019985
    75  H    0.027369
    76  H    0.018918
    77  H    0.031036
    78  H    0.046338
    79  H    0.028112
    80  H    0.013926
    81  H    0.034537
    82  H    0.040710
    83  H    0.044862
    84  H    0.024577
    85  H    0.033831
    86  H    0.035328
    87  H    0.023540
    88  H    0.040365
    89  H    0.026158
    90  H    0.024870
    91  H    0.012726
    92  H    0.024041
    93  H    0.017039
    94  H    0.020057
    95  H    0.018565
    96  H    0.043615
    97  H    0.037321
    98  H    0.054078
    99  H    0.043486
   100  H    0.037775
   101  H    0.037943
   102  H    0.069665
   103  H    0.044527
   104  H    0.018416
   105  H    0.025481
   106  H    0.022906
   107  H    0.036205
   108  H    0.021020
   109  H    0.026428
   110  H    0.019277
   111  H    0.023220
   112  H    0.023261
   113  H    0.010981
   114  H    0.022087
   115  H    0.017665
   116  H    0.011505
   117  H    0.020165
   118  H    0.024203
   119  H    0.028810
   120  H    0.010870
   121  H    0.010669
   122  H    0.019423
   123  H    0.005436
   124  H    0.017152
   125  H    0.018820
   126  H    0.029448
   127  H    0.025196
   128  H    0.023312
   129  H    0.004960
   130  H    0.024154
   131  H    0.021997
   132  H    0.013539
   133  H    0.022796
   134  H    0.014234
   135  H    0.030499
   136  H    0.016898
   137  H    0.021893
   138  H    0.016543
   139  H    0.016247
   140  H    0.017248
 Sum of Mulliken charges =  -0.00000

 Dipole moment (field-independent basis, Debye):
    X=             -5.7651    Y=              3.8990    Z=              4.8545  Tot=              8.4856
 N-N= 4.290905951179D+03 E-N= 0.000000000000D+00  KE=-9.256095212818D+03
 Leave Link  601 at Wed May  4 00:10:54 2022, MaxMem=  6710886400 cpu:               0.8 elap:               0.0
 (Enter /sw/apps/gaussian-16.0/g16/l9999.exe)
 1\1\GINC-BP1-COMPUTE089\SP\RZINDO CIS\STO-3G\C55H74Mg1N4O6\OF15641\04-
 May-2022\0\\#p ZINDO=(nstates=5)\\step_1101_chromophore_21 ZINDO\\0,1\
 Mg,0,15.787,51.559,25.432\C,0,17.505,50.666,28.341\C,0,13.191,52.748,2
 7.316\C,0,14.327,52.335,22.683\C,0,18.56,50.216,23.618\N,0,15.48,51.68
 ,27.657\C,0,16.35,51.431,28.676\C,0,15.816,51.764,30.093\C,0,14.27,52.
 253,29.626\C,0,14.306,52.288,28.088\C,0,13.15,51.288,30.213\C,0,16.69,
 52.917,30.742\C,0,16.301,53.231,32.149\C,0,15.486,52.277,32.923\O,0,15

 Normal termination of Gaussian 16 at Wed May  4 00:10:58 2022.
