 Gaussian 16, Revision A.03,
 Gaussian 16:  ES64L-G16RevA.03 25-Dec-2016

 ------------------------------
 #p blyp/Def2SVP td=(nstates=5)
 ------------------------------

 --------------------------------------------------
 step_1151_chromophore_3 TDDFT with blyp functional
 --------------------------------------------------
 Symbolic Z-matrix:
 Charge =  0 Multiplicity = 1

                         Standard orientation:
 ---------------------------------------------------------------------
 Center     Atomic      Atomic             Coordinates (Angstroms)
 Number     Number       Type             X           Y           Z
 ---------------------------------------------------------------------
      1         12           0       -5.380473    0.716394    0.054806
      2          6           0       -4.080274   -2.518077    0.217319
      3          6           0       -2.236115    1.922397    0.028955
      4          6           0       -6.735049    3.869897    0.187990
      5          6           0       -8.564353   -0.519890    0.408928
      6          7           0       -3.463091   -0.211916    0.032902
      7          6           0       -3.116252   -1.517824    0.028175
      8          6           0       -1.718679   -1.724932   -0.365835
      9          6           0       -1.060710   -0.309280   -0.134577
     10          6           0       -2.329003    0.523743    0.062592
     11          6           0        0.052791   -0.207530    0.998651
     12          6           0       -1.489134   -2.237519   -1.828432
     13          6           0       -0.346249   -3.318246   -2.047839
     14          6           0        1.010053   -3.182706   -1.256569
     15          8           0        1.279884   -3.618290   -0.110300
     16          8           0        1.951260   -2.536223   -1.975409
     17          7           0       -4.596872    2.594289    0.095866
     18          6           0       -3.264157    2.907895    0.050624
     19          6           0       -3.063696    4.310147   -0.037458
     20          6           0       -4.304407    4.964894    0.177906
     21          6           0       -5.292682    3.807979    0.195782
     22          6           0       -1.755762    5.025611   -0.195804
     23          6           0       -4.622847    6.466795    0.315889
     24          8           0       -5.718575    6.883569    0.712520
     25          6           0       -3.649693    7.444422   -0.099687
     26          7           0       -7.433993    1.578269    0.307445
     27          6           0       -7.699392    2.872840    0.186573
     28          6           0       -9.176058    3.122062    0.031134
     29          6           0       -9.797178    1.708965    0.153905
     30          6           0       -8.530900    0.811528    0.222868
     31          6           0       -9.575279    4.071660    1.164586
     32          6           0      -10.790636    1.326726   -0.917954
     33          6           0      -12.325263    1.015466   -0.597345
     34          7           0       -6.207184   -1.111774    0.382660
     35          6           0       -7.510258   -1.458692    0.492900
     36          6           0       -7.630066   -2.962072    0.621098
     37          6           0       -6.287620   -3.419895    0.501362
     38          6           0       -5.458697   -2.238770    0.353726
     39          6           0       -8.888430   -3.755557    0.646955
     40          6           0       -5.388885   -4.550424    0.567843
     41          8           0       -5.529564   -5.741640    0.907138
     42          6           0       -4.011392   -4.035733    0.236334
     43          6           0       -3.030671   -4.618563    1.251689
     44          8           0       -2.689340   -4.219847    2.367471
     45          8           0       -2.507837   -5.731568    0.625987
     46          6           0       -1.391741   -6.316372    1.397432
     47          6           0        3.278532   -2.628272   -1.438998
     48          6           0        4.308302   -2.010240   -2.398787
     49          6           0        5.606095   -2.240722   -2.319284
     50          6           0        6.237051   -2.944548   -1.175018
     51          6           0        6.518937   -1.755016   -3.453314
     52          6           0        7.075995   -0.307777   -3.509493
     53          6           0        8.616604   -0.186812   -3.569254
     54          6           0        9.334304    0.502033   -2.363439
     55          6           0        9.748246   -0.582721   -1.360074
     56          6           0       10.411118    1.549071   -2.747558
     57          6           0       10.527734    2.676644   -1.616911
     58          6           0       12.023111    2.918208   -1.184463
     59          6           0       12.186235    2.940078    0.366331
     60          6           0       13.125614    4.130611    0.771600
     61          6           0       12.730995    1.558955    0.898207
     62          6           0       11.739018    0.675207    1.653633
     63          6           0       11.763144    0.814738    3.179683
     64          6           0       12.204644   -0.489049    3.871290
     65          6           0       11.354240   -0.925795    5.106958
     66          6           0       13.756535   -0.359616    4.295821
     67          1           0       -1.254214    2.398166   -0.034553
     68          1           0       -6.963874    4.919151   -0.007567
     69          1           0       -9.545746   -0.957472    0.603396
     70          1           0       -1.385207   -2.480345    0.345849
     71          1           0       -0.572868    0.154757   -0.992090
     72          1           0        0.942977    0.324768    0.665205
     73          1           0        0.446230   -1.211014    1.164997
     74          1           0       -0.262983    0.385085    1.856360
     75          1           0       -1.222460   -1.468483   -2.554092
     76          1           0       -2.417459   -2.680818   -2.190841
     77          1           0        0.028880   -3.270809   -3.070946
     78          1           0       -0.737678   -4.321617   -1.881763
     79          1           0       -1.657680    5.548508    0.755681
     80          1           0       -1.747544    5.700916   -1.050475
     81          1           0       -0.964614    4.278942   -0.262583
     82          1           0       -4.025007    8.461392    0.015394
     83          1           0       -3.344170    7.223624   -1.122570
     84          1           0       -2.850439    7.314635    0.629580
     85          1           0       -9.293438    3.657630   -0.911344
     86          1           0      -10.184423    1.547029    1.160239
     87          1           0       -8.798536    4.120654    1.926561
     88          1           0      -10.568898    3.940184    1.591844
     89          1           0       -9.595514    5.105972    0.821996
     90          1           0      -10.371207    0.523744   -1.524720
     91          1           0      -10.784721    2.085878   -1.699616
     92          1           0      -12.878118    1.876165   -0.220010
     93          1           0      -12.438680    0.213610    0.133037
     94          1           0      -12.725252    0.638756   -1.539277
     95          1           0       -9.733340   -3.120326    0.381447
     96          1           0       -8.959299   -4.166597    1.654318
     97          1           0       -8.914704   -4.593406   -0.049495
     98          1           0       -3.768948   -4.355791   -0.776039
     99          1           0       -1.762589   -6.491484    2.407706
    100          1           0       -0.490566   -5.706404    1.330361
    101          1           0       -1.152874   -7.303229    1.000825
    102          1           0        3.403433   -3.711280   -1.419817
    103          1           0        3.421826   -2.213834   -0.440669
    104          1           0        3.841144   -1.301927   -3.083444
    105          1           0        5.537961   -3.480773   -0.532884
    106          1           0        7.044996   -2.418118   -0.668087
    107          1           0        6.724482   -3.802118   -1.638672
    108          1           0        6.326843   -2.150370   -4.450978
    109          1           0        7.404684   -2.357315   -3.250430
    110          1           0        6.726370    0.230846   -2.628526
    111          1           0        6.597301    0.302309   -4.274420
    112          1           0        8.853113    0.347885   -4.488928
    113          1           0        9.038321   -1.184384   -3.691509
    114          1           0        8.542242    0.977157   -1.784605
    115          1           0        9.899925   -1.529856   -1.876753
    116          1           0        8.970132   -0.519090   -0.598654
    117          1           0       10.669971   -0.273903   -0.867880
    118          1           0       10.113589    2.052471   -3.667938
    119          1           0       11.378260    1.061237   -2.864142
    120          1           0        9.774103    2.449563   -0.863632
    121          1           0       10.263194    3.633587   -2.067041
    122          1           0       12.574061    3.697624   -1.710954
    123          1           0       12.602399    2.051511   -1.502508
    124          1           0       11.210123    3.209776    0.768730
    125          1           0       13.537967    4.555528   -0.143464
    126          1           0       14.029509    3.828410    1.300392
    127          1           0       12.634605    4.896871    1.371972
    128          1           0       13.590735    1.872462    1.489199
    129          1           0       13.082243    0.874704    0.126023
    130          1           0       11.770188   -0.337335    1.250470
    131          1           0       10.717270    0.954453    1.398508
    132          1           0       10.765064    1.128390    3.484684
    133          1           0       12.339027    1.679175    3.510909
    134          1           0       12.054983   -1.312004    3.172664
    135          1           0       10.940387   -1.909037    4.882806
    136          1           0       10.528624   -0.240637    5.301351
    137          1           0       12.003778   -0.951047    5.982280
    138          1           0       14.314851    0.066872    3.461834
    139          1           0       14.210051   -1.318589    4.546817
    140          1           0       13.777631    0.326690    5.141572
 ---------------------------------------------------------------------

 SCF Done:  E(RB-LYP) =  -3007.36744590     A.U. after   21 cycles

 Excitation energies and oscillator strengths:

 Excited State   1:      Singlet-A      1.8065 eV  686.33 nm  f=0.3061  <S**2>=0.000
     245 -> 248       -0.17983
     246 -> 247        0.68575
     246 <- 247       -0.14972
 This state for optimization and/or second-order correction.
 Total Energy, E(TD-HF/TD-DFT) =  -3007.30105864
 Copying the excited state density for this state as the 1-particle RhoCI density.

 Excited State   2:      Singlet-A      1.9160 eV  647.09 nm  f=0.0102  <S**2>=0.000
     243 -> 247        0.13995
     244 -> 247        0.62125
     245 -> 247        0.29609

 Excited State   3:      Singlet-A      1.9775 eV  626.97 nm  f=0.0354  <S**2>=0.000
     243 -> 247        0.49498
     244 -> 247       -0.30365
     245 -> 247        0.36936
     246 -> 248        0.12088

 Excited State   4:      Singlet-A      2.0849 eV  594.68 nm  f=0.0502  <S**2>=0.000
     243 -> 247        0.47710
     244 -> 247        0.13470
     245 -> 247       -0.44760
     246 -> 248       -0.20043

 Excited State   5:      Singlet-A      2.5137 eV  493.23 nm  f=0.0000  <S**2>=0.000
     241 -> 247        0.25655
     242 -> 247        0.65884

 The electronic state is 1-A.
 Alpha  occ. eigenvalues --  -46.26474 -18.83518 -18.81139 -18.77465 -18.76539
 Alpha  occ. eigenvalues --  -18.75370 -18.74924 -14.03253 -14.02329 -14.01124
 Alpha  occ. eigenvalues --  -14.01026 -10.05230 -10.03495  -9.99893  -9.99105
 Alpha  occ. eigenvalues --   -9.98219  -9.96408  -9.96391  -9.96194  -9.96129
 Alpha  occ. eigenvalues --   -9.95789  -9.95724  -9.95462  -9.95336  -9.94898
 Alpha  occ. eigenvalues --   -9.94766  -9.94659  -9.94175  -9.94088  -9.94036
 Alpha  occ. eigenvalues --   -9.93595  -9.93561  -9.93418  -9.93267  -9.93260
 Alpha  occ. eigenvalues --   -9.93227  -9.93120  -9.93088  -9.92708  -9.92633
 Alpha  occ. eigenvalues --   -9.92622  -9.92431  -9.92352  -9.92201  -9.92107
 Alpha  occ. eigenvalues --   -9.92099  -9.92080  -9.92071  -9.92056  -9.92043
 Alpha  occ. eigenvalues --   -9.91964  -9.91946  -9.91920  -9.91795  -9.91600
 Alpha  occ. eigenvalues --   -9.91378  -9.91336  -9.91291  -9.91265  -9.91209
 Alpha  occ. eigenvalues --   -9.91101  -9.91007  -9.90905  -9.90825  -9.90672
 Alpha  occ. eigenvalues --   -9.90618  -2.91259  -1.71686  -1.71124  -1.70988
 Alpha  occ. eigenvalues --   -0.99775  -0.96458  -0.90880  -0.89697  -0.89364
 Alpha  occ. eigenvalues --   -0.88594  -0.87319  -0.86939  -0.85556  -0.84494
 Alpha  occ. eigenvalues --   -0.75652  -0.74131  -0.72866  -0.72585  -0.72211
 Alpha  occ. eigenvalues --   -0.72048  -0.71954  -0.71171  -0.70828  -0.70439
 Alpha  occ. eigenvalues --   -0.69601  -0.69187  -0.67983  -0.67363  -0.67232
 Alpha  occ. eigenvalues --   -0.66553  -0.66344  -0.65577  -0.65009  -0.64384
 Alpha  occ. eigenvalues --   -0.64285  -0.62664  -0.62317  -0.61608  -0.60960
 Alpha  occ. eigenvalues --   -0.60318  -0.59783  -0.59610  -0.59546  -0.59300
 Alpha  occ. eigenvalues --   -0.58814  -0.57366  -0.56770  -0.56190  -0.54950
 Alpha  occ. eigenvalues --   -0.54237  -0.53994  -0.53070  -0.52703  -0.51841
 Alpha  occ. eigenvalues --   -0.51580  -0.51542  -0.50642  -0.50463  -0.50185
 Alpha  occ. eigenvalues --   -0.50152  -0.49346  -0.48970  -0.47624  -0.46961
 Alpha  occ. eigenvalues --   -0.46207  -0.45868  -0.45270  -0.45033  -0.44057
 Alpha  occ. eigenvalues --   -0.43999  -0.43771  -0.42809  -0.42491  -0.42394
 Alpha  occ. eigenvalues --   -0.42130  -0.41830  -0.41385  -0.41214  -0.41114
 Alpha  occ. eigenvalues --   -0.40818  -0.40776  -0.40627  -0.40345  -0.40220
 Alpha  occ. eigenvalues --   -0.40004  -0.39839  -0.39418  -0.39228  -0.39062
 Alpha  occ. eigenvalues --   -0.38949  -0.38837  -0.38554  -0.38438  -0.38276
 Alpha  occ. eigenvalues --   -0.38074  -0.38046  -0.37688  -0.37565  -0.37465
 Alpha  occ. eigenvalues --   -0.37294  -0.36963  -0.36843  -0.36751  -0.36483
 Alpha  occ. eigenvalues --   -0.36457  -0.36159  -0.36064  -0.35922  -0.35412
 Alpha  occ. eigenvalues --   -0.35251  -0.35097  -0.35002  -0.34898  -0.34689
 Alpha  occ. eigenvalues --   -0.34559  -0.34465  -0.34241  -0.34037  -0.33864
 Alpha  occ. eigenvalues --   -0.33797  -0.33729  -0.33663  -0.33203  -0.32871
 Alpha  occ. eigenvalues --   -0.32762  -0.32710  -0.32398  -0.32287  -0.32254
 Alpha  occ. eigenvalues --   -0.32208  -0.32046  -0.31882  -0.31790  -0.31532
 Alpha  occ. eigenvalues --   -0.31406  -0.31128  -0.30935  -0.30667  -0.30509
 Alpha  occ. eigenvalues --   -0.30342  -0.30103  -0.30015  -0.29972  -0.29879
 Alpha  occ. eigenvalues --   -0.29644  -0.29351  -0.29320  -0.28899  -0.28533
 Alpha  occ. eigenvalues --   -0.28506  -0.28407  -0.28172  -0.28046  -0.27890
 Alpha  occ. eigenvalues --   -0.27624  -0.27505  -0.27274  -0.26783  -0.26751
 Alpha  occ. eigenvalues --   -0.26257  -0.26178  -0.26044  -0.26011  -0.25535
 Alpha  occ. eigenvalues --   -0.25179  -0.24451  -0.24319  -0.23590  -0.23515
 Alpha  occ. eigenvalues --   -0.23084  -0.22218  -0.21950  -0.21407  -0.20755
 Alpha  occ. eigenvalues --   -0.20564  -0.20546  -0.18638  -0.18292  -0.17051
 Alpha  occ. eigenvalues --   -0.15570
 Alpha virt. eigenvalues --   -0.11311  -0.06559  -0.06100  -0.04602  -0.04395
 Alpha virt. eigenvalues --   -0.02406  -0.02116  -0.01972  -0.01098   0.00334
 Alpha virt. eigenvalues --    0.01648   0.01788   0.01992   0.02171   0.02577

 Mulliken charges:
               1
     1  Mg   0.706360
     2  C    0.014988
     3  C   -0.104449
     4  C   -0.029694
     5  C   -0.077312
     6  N   -0.214238
     7  C   -0.098525
     8  C    0.073956
     9  C   -0.038524
    10  C    0.101122
    11  C    0.113974
    12  C    0.129397
    13  C    0.101959
    14  C    0.092983
    15  O   -0.233796
    16  O   -0.242504
    17  N   -0.313792
    18  C    0.144357
    19  C   -0.175729
    20  C    0.020268
    21  C    0.038265
    22  C    0.194747
    23  C   -0.091827
    24  O   -0.178944
    25  C    0.183183
    26  N   -0.162110
    27  C    0.010426
    28  C    0.030388
    29  C    0.109754
    30  C   -0.015752
    31  C    0.113253
    32  C    0.103484
    33  C    0.060935
    34  N   -0.257717
    35  C    0.100544
    36  C   -0.183636
    37  C    0.101834
    38  C    0.033032
    39  C    0.168861
    40  C   -0.059346
    41  O   -0.157648
    42  C    0.100795
    43  C    0.132413
    44  O   -0.186568
    45  O   -0.278774
    46  C    0.211456
    47  C    0.267943
    48  C   -0.097253
    49  C   -0.145187
    50  C    0.166783
    51  C    0.140110
    52  C    0.094245
    53  C    0.101933
    54  C   -0.129460
    55  C    0.116965
    56  C    0.123257
    57  C    0.062692
    58  C    0.106036
    59  C   -0.092864
    60  C    0.094056
    61  C    0.121035
    62  C    0.038004
    63  C    0.133008
    64  C   -0.095768
    65  C    0.108735
    66  C    0.078497
    67  H   -0.077946
    68  H   -0.048244
    69  H   -0.061884
    70  H   -0.004816
    71  H   -0.016506
    72  H   -0.029519
    73  H    0.016903
    74  H   -0.001197
    75  H   -0.012338
    76  H   -0.016110
    77  H   -0.008023
    78  H    0.012731
    79  H    0.010512
    80  H    0.008348
    81  H   -0.023700
    82  H   -0.008841
    83  H    0.015431
    84  H   -0.003905
    85  H   -0.016531
    86  H   -0.026762
    87  H    0.001654
    88  H   -0.010488
    89  H   -0.015936
    90  H   -0.036766
    91  H   -0.041457
    92  H    0.004115
    93  H   -0.007227
    94  H   -0.005580
    95  H   -0.016071
    96  H    0.015572
    97  H    0.007309
    98  H    0.006148
    99  H    0.019680
   100  H    0.027162
   101  H   -0.001015
   102  H    0.001225
   103  H    0.021357
   104  H   -0.033023
   105  H   -0.014137
   106  H    0.013002
   107  H   -0.017303
   108  H   -0.017601
   109  H   -0.062996
   110  H   -0.044221
   111  H   -0.029782
   112  H   -0.043808
   113  H   -0.035621
   114  H   -0.040339
   115  H   -0.009586
   116  H   -0.003385
   117  H   -0.025664
   118  H   -0.033854
   119  H   -0.024269
   120  H   -0.014686
   121  H   -0.027663
   122  H   -0.031025
   123  H   -0.050426
   124  H   -0.029526
   125  H   -0.029072
   126  H   -0.025801
   127  H   -0.006942
   128  H   -0.031239
   129  H   -0.030729
   130  H   -0.018655
   131  H   -0.036194
   132  H   -0.052103
   133  H   -0.039149
   134  H   -0.033866
   135  H   -0.013949
   136  H   -0.019621
   137  H   -0.019862
   138  H   -0.013144
   139  H   -0.010064
   140  H   -0.005594
 Sum of Mulliken charges =  -0.00000

 Dipole moment (field-independent basis, Debye):
    X=              3.6396    Y=              2.9030    Z=             -5.7491  Tot=              7.3977
 Quadrupole moment (field-independent basis, Debye-Ang):
   XX=           -375.4154   YY=           -435.2548   ZZ=           -409.8972
   XY=             -9.9418   XZ=             13.3506   YZ=              7.3117

 Normal termination of Gaussian 16 at Wed Apr 27 13:03:41 2022.
