 Gaussian 16, Revision A.03,
 Gaussian 16:  ES64L-G16RevA.03 25-Dec-2016

 -----------------------------------
 #p cam-b3lyp/Def2SVP td=(nstates=5)
 -----------------------------------

 -------------------------------------------------------
 step_1151_chromophore_3 TDDFT with cam-b3lyp functional
 -------------------------------------------------------
 Symbolic Z-matrix:
 Charge =  0 Multiplicity = 1

                         Standard orientation:
 ---------------------------------------------------------------------
 Center     Atomic      Atomic             Coordinates (Angstroms)
 Number     Number       Type             X           Y           Z
 ---------------------------------------------------------------------
      1         12           0       -5.380473    0.716394    0.054806
      2          6           0       -4.080274   -2.518077    0.217319
      3          6           0       -2.236115    1.922397    0.028955
      4          6           0       -6.735049    3.869897    0.187990
      5          6           0       -8.564353   -0.519890    0.408928
      6          7           0       -3.463091   -0.211916    0.032902
      7          6           0       -3.116252   -1.517824    0.028175
      8          6           0       -1.718679   -1.724932   -0.365835
      9          6           0       -1.060710   -0.309280   -0.134577
     10          6           0       -2.329003    0.523743    0.062592
     11          6           0        0.052791   -0.207530    0.998651
     12          6           0       -1.489134   -2.237519   -1.828432
     13          6           0       -0.346249   -3.318246   -2.047839
     14          6           0        1.010053   -3.182706   -1.256569
     15          8           0        1.279884   -3.618290   -0.110300
     16          8           0        1.951260   -2.536223   -1.975409
     17          7           0       -4.596872    2.594289    0.095866
     18          6           0       -3.264157    2.907895    0.050624
     19          6           0       -3.063696    4.310147   -0.037458
     20          6           0       -4.304407    4.964894    0.177906
     21          6           0       -5.292682    3.807979    0.195782
     22          6           0       -1.755762    5.025611   -0.195804
     23          6           0       -4.622847    6.466795    0.315889
     24          8           0       -5.718575    6.883569    0.712520
     25          6           0       -3.649693    7.444422   -0.099687
     26          7           0       -7.433993    1.578269    0.307445
     27          6           0       -7.699392    2.872840    0.186573
     28          6           0       -9.176058    3.122062    0.031134
     29          6           0       -9.797178    1.708965    0.153905
     30          6           0       -8.530900    0.811528    0.222868
     31          6           0       -9.575279    4.071660    1.164586
     32          6           0      -10.790636    1.326726   -0.917954
     33          6           0      -12.325263    1.015466   -0.597345
     34          7           0       -6.207184   -1.111774    0.382660
     35          6           0       -7.510258   -1.458692    0.492900
     36          6           0       -7.630066   -2.962072    0.621098
     37          6           0       -6.287620   -3.419895    0.501362
     38          6           0       -5.458697   -2.238770    0.353726
     39          6           0       -8.888430   -3.755557    0.646955
     40          6           0       -5.388885   -4.550424    0.567843
     41          8           0       -5.529564   -5.741640    0.907138
     42          6           0       -4.011392   -4.035733    0.236334
     43          6           0       -3.030671   -4.618563    1.251689
     44          8           0       -2.689340   -4.219847    2.367471
     45          8           0       -2.507837   -5.731568    0.625987
     46          6           0       -1.391741   -6.316372    1.397432
     47          6           0        3.278532   -2.628272   -1.438998
     48          6           0        4.308302   -2.010240   -2.398787
     49          6           0        5.606095   -2.240722   -2.319284
     50          6           0        6.237051   -2.944548   -1.175018
     51          6           0        6.518937   -1.755016   -3.453314
     52          6           0        7.075995   -0.307777   -3.509493
     53          6           0        8.616604   -0.186812   -3.569254
     54          6           0        9.334304    0.502033   -2.363439
     55          6           0        9.748246   -0.582721   -1.360074
     56          6           0       10.411118    1.549071   -2.747558
     57          6           0       10.527734    2.676644   -1.616911
     58          6           0       12.023111    2.918208   -1.184463
     59          6           0       12.186235    2.940078    0.366331
     60          6           0       13.125614    4.130611    0.771600
     61          6           0       12.730995    1.558955    0.898207
     62          6           0       11.739018    0.675207    1.653633
     63          6           0       11.763144    0.814738    3.179683
     64          6           0       12.204644   -0.489049    3.871290
     65          6           0       11.354240   -0.925795    5.106958
     66          6           0       13.756535   -0.359616    4.295821
     67          1           0       -1.254214    2.398166   -0.034553
     68          1           0       -6.963874    4.919151   -0.007567
     69          1           0       -9.545746   -0.957472    0.603396
     70          1           0       -1.385207   -2.480345    0.345849
     71          1           0       -0.572868    0.154757   -0.992090
     72          1           0        0.942977    0.324768    0.665205
     73          1           0        0.446230   -1.211014    1.164997
     74          1           0       -0.262983    0.385085    1.856360
     75          1           0       -1.222460   -1.468483   -2.554092
     76          1           0       -2.417459   -2.680818   -2.190841
     77          1           0        0.028880   -3.270809   -3.070946
     78          1           0       -0.737678   -4.321617   -1.881763
     79          1           0       -1.657680    5.548508    0.755681
     80          1           0       -1.747544    5.700916   -1.050475
     81          1           0       -0.964614    4.278942   -0.262583
     82          1           0       -4.025007    8.461392    0.015394
     83          1           0       -3.344170    7.223624   -1.122570
     84          1           0       -2.850439    7.314635    0.629580
     85          1           0       -9.293438    3.657630   -0.911344
     86          1           0      -10.184423    1.547029    1.160239
     87          1           0       -8.798536    4.120654    1.926561
     88          1           0      -10.568898    3.940184    1.591844
     89          1           0       -9.595514    5.105972    0.821996
     90          1           0      -10.371207    0.523744   -1.524720
     91          1           0      -10.784721    2.085878   -1.699616
     92          1           0      -12.878118    1.876165   -0.220010
     93          1           0      -12.438680    0.213610    0.133037
     94          1           0      -12.725252    0.638756   -1.539277
     95          1           0       -9.733340   -3.120326    0.381447
     96          1           0       -8.959299   -4.166597    1.654318
     97          1           0       -8.914704   -4.593406   -0.049495
     98          1           0       -3.768948   -4.355791   -0.776039
     99          1           0       -1.762589   -6.491484    2.407706
    100          1           0       -0.490566   -5.706404    1.330361
    101          1           0       -1.152874   -7.303229    1.000825
    102          1           0        3.403433   -3.711280   -1.419817
    103          1           0        3.421826   -2.213834   -0.440669
    104          1           0        3.841144   -1.301927   -3.083444
    105          1           0        5.537961   -3.480773   -0.532884
    106          1           0        7.044996   -2.418118   -0.668087
    107          1           0        6.724482   -3.802118   -1.638672
    108          1           0        6.326843   -2.150370   -4.450978
    109          1           0        7.404684   -2.357315   -3.250430
    110          1           0        6.726370    0.230846   -2.628526
    111          1           0        6.597301    0.302309   -4.274420
    112          1           0        8.853113    0.347885   -4.488928
    113          1           0        9.038321   -1.184384   -3.691509
    114          1           0        8.542242    0.977157   -1.784605
    115          1           0        9.899925   -1.529856   -1.876753
    116          1           0        8.970132   -0.519090   -0.598654
    117          1           0       10.669971   -0.273903   -0.867880
    118          1           0       10.113589    2.052471   -3.667938
    119          1           0       11.378260    1.061237   -2.864142
    120          1           0        9.774103    2.449563   -0.863632
    121          1           0       10.263194    3.633587   -2.067041
    122          1           0       12.574061    3.697624   -1.710954
    123          1           0       12.602399    2.051511   -1.502508
    124          1           0       11.210123    3.209776    0.768730
    125          1           0       13.537967    4.555528   -0.143464
    126          1           0       14.029509    3.828410    1.300392
    127          1           0       12.634605    4.896871    1.371972
    128          1           0       13.590735    1.872462    1.489199
    129          1           0       13.082243    0.874704    0.126023
    130          1           0       11.770188   -0.337335    1.250470
    131          1           0       10.717270    0.954453    1.398508
    132          1           0       10.765064    1.128390    3.484684
    133          1           0       12.339027    1.679175    3.510909
    134          1           0       12.054983   -1.312004    3.172664
    135          1           0       10.940387   -1.909037    4.882806
    136          1           0       10.528624   -0.240637    5.301351
    137          1           0       12.003778   -0.951047    5.982280
    138          1           0       14.314851    0.066872    3.461834
    139          1           0       14.210051   -1.318589    4.546817
    140          1           0       13.777631    0.326690    5.141572
 ---------------------------------------------------------------------

 SCF Done:  E(RCAM-B3LYP) =  -3007.16060760     A.U. after   17 cycles

 Excitation energies and oscillator strengths:

 Excited State   1:      Singlet-A      1.7000 eV  729.33 nm  f=0.3940  <S**2>=0.000
     245 -> 248       -0.18146
     246 -> 247        0.68571
     245 <- 248       -0.10904
 This state for optimization and/or second-order correction.
 Total Energy, E(TD-HF/TD-DFT) =  -3007.09813463
 Copying the excited state density for this state as the 1-particle RhoCI density.

 Excited State   2:      Singlet-A      2.2512 eV  550.75 nm  f=0.1173  <S**2>=0.000
     245 -> 247        0.63960
     246 -> 248        0.29107

 Excited State   3:      Singlet-A      3.5028 eV  353.96 nm  f=0.0085  <S**2>=0.000
     240 -> 247        0.11855
     241 -> 247        0.39874
     241 -> 249       -0.30779
     241 -> 250       -0.14057
     243 -> 247       -0.27827
     244 -> 247        0.27834

 Excited State   4:      Singlet-A      3.5216 eV  352.07 nm  f=0.3262  <S**2>=0.000
     241 -> 247       -0.21552
     243 -> 247       -0.38606
     244 -> 247        0.16355
     245 -> 247       -0.18868
     246 -> 248        0.47361

 Excited State   5:      Singlet-A      3.5918 eV  345.18 nm  f=0.2685  <S**2>=0.000
     239 -> 247        0.12473
     241 -> 247       -0.29187
     241 -> 249        0.12488
     243 -> 247       -0.17257
     244 -> 247        0.39879
     245 -> 247        0.17458
     246 -> 248       -0.36387

 The electronic state is 1-A.
 Alpha  occ. eigenvalues --  -46.87988 -19.26346 -19.23965 -19.20406 -19.19559
 Alpha  occ. eigenvalues --  -19.18750 -19.18146 -14.42147 -14.41138 -14.39718
 Alpha  occ. eigenvalues --  -14.39451 -10.40579 -10.38938 -10.35250 -10.34432
 Alpha  occ. eigenvalues --  -10.32183 -10.31117 -10.30974 -10.30600 -10.30177
 Alpha  occ. eigenvalues --  -10.30042 -10.29942 -10.29838 -10.29668 -10.28981
 Alpha  occ. eigenvalues --  -10.28916 -10.28729 -10.28574 -10.28338 -10.28208
 Alpha  occ. eigenvalues --  -10.28033 -10.27935 -10.27792 -10.27473 -10.27321
 Alpha  occ. eigenvalues --  -10.27266 -10.27165 -10.27119 -10.26804 -10.26326
 Alpha  occ. eigenvalues --  -10.26320 -10.26214 -10.26087 -10.26057 -10.26042
 Alpha  occ. eigenvalues --  -10.26007 -10.25939 -10.25910 -10.25856 -10.25841
 Alpha  occ. eigenvalues --  -10.25801 -10.25728 -10.25702 -10.25516 -10.25435
 Alpha  occ. eigenvalues --  -10.25317 -10.25076 -10.24925 -10.24887 -10.24840
 Alpha  occ. eigenvalues --  -10.24812 -10.24693 -10.24551 -10.24463 -10.24299
 Alpha  occ. eigenvalues --  -10.24207  -3.16684  -1.91585  -1.91118  -1.91019
 Alpha  occ. eigenvalues --   -1.18177  -1.14904  -1.09433  -1.08068  -1.07175
 Alpha  occ. eigenvalues --   -1.06416  -1.05118  -1.04664  -1.03070  -1.02160
 Alpha  occ. eigenvalues --   -0.92813  -0.91011  -0.89646  -0.89328  -0.88986
 Alpha  occ. eigenvalues --   -0.88738  -0.88571  -0.87979  -0.87498  -0.86989
 Alpha  occ. eigenvalues --   -0.86113  -0.85464  -0.84281  -0.83680  -0.83396
 Alpha  occ. eigenvalues --   -0.82765  -0.82438  -0.81442  -0.80887  -0.80192
 Alpha  occ. eigenvalues --   -0.80093  -0.78367  -0.78072  -0.77113  -0.76309
 Alpha  occ. eigenvalues --   -0.75682  -0.75049  -0.74912  -0.74835  -0.74548
 Alpha  occ. eigenvalues --   -0.73932  -0.72379  -0.71689  -0.71035  -0.69570
 Alpha  occ. eigenvalues --   -0.68854  -0.68672  -0.67554  -0.67100  -0.65911
 Alpha  occ. eigenvalues --   -0.65812  -0.65783  -0.64690  -0.64394  -0.64222
 Alpha  occ. eigenvalues --   -0.64149  -0.63307  -0.62885  -0.61353  -0.60457
 Alpha  occ. eigenvalues --   -0.59863  -0.59453  -0.58828  -0.58329  -0.57580
 Alpha  occ. eigenvalues --   -0.57449  -0.57078  -0.55969  -0.55859  -0.55577
 Alpha  occ. eigenvalues --   -0.55294  -0.55067  -0.54231  -0.54117  -0.54016
 Alpha  occ. eigenvalues --   -0.53621  -0.53444  -0.53334  -0.53232  -0.52898
 Alpha  occ. eigenvalues --   -0.52690  -0.52548  -0.52331  -0.51904  -0.51459
 Alpha  occ. eigenvalues --   -0.51420  -0.51341  -0.51086  -0.50854  -0.50810
 Alpha  occ. eigenvalues --   -0.50470  -0.50314  -0.50198  -0.49928  -0.49681
 Alpha  occ. eigenvalues --   -0.49571  -0.49435  -0.49241  -0.49139  -0.48734
 Alpha  occ. eigenvalues --   -0.48600  -0.48521  -0.48161  -0.48125  -0.47638
 Alpha  occ. eigenvalues --   -0.47417  -0.47284  -0.47229  -0.46775  -0.46728
 Alpha  occ. eigenvalues --   -0.46541  -0.46239  -0.46134  -0.45737  -0.45685
 Alpha  occ. eigenvalues --   -0.45598  -0.45501  -0.45310  -0.44938  -0.44602
 Alpha  occ. eigenvalues --   -0.44422  -0.44378  -0.44174  -0.44086  -0.43948
 Alpha  occ. eigenvalues --   -0.43732  -0.43661  -0.43611  -0.43301  -0.43134
 Alpha  occ. eigenvalues --   -0.43058  -0.42700  -0.42364  -0.42023  -0.41847
 Alpha  occ. eigenvalues --   -0.41745  -0.41525  -0.41486  -0.41268  -0.41130
 Alpha  occ. eigenvalues --   -0.40853  -0.40833  -0.40547  -0.40387  -0.39975
 Alpha  occ. eigenvalues --   -0.39551  -0.39372  -0.39152  -0.38981  -0.38822
 Alpha  occ. eigenvalues --   -0.38666  -0.38394  -0.38099  -0.38084  -0.37579
 Alpha  occ. eigenvalues --   -0.37429  -0.36938  -0.36893  -0.36768  -0.36324
 Alpha  occ. eigenvalues --   -0.35817  -0.35786  -0.34899  -0.34313  -0.34160
 Alpha  occ. eigenvalues --   -0.33994  -0.33789  -0.32729  -0.31367  -0.31082
 Alpha  occ. eigenvalues --   -0.30603  -0.30256  -0.30201  -0.29839  -0.23852
 Alpha  occ. eigenvalues --   -0.20860
 Alpha virt. eigenvalues --   -0.08445  -0.01356   0.00336   0.02103   0.02916
 Alpha virt. eigenvalues --    0.03403   0.05412   0.05581   0.06091   0.06675
 Alpha virt. eigenvalues --    0.08039   0.08162   0.08573   0.08827   0.09107

 Mulliken charges:
               1
     1  Mg   0.841661
     2  C   -0.014961
     3  C   -0.112935
     4  C   -0.046552
     5  C   -0.081941
     6  N   -0.288991
     7  C   -0.050254
     8  C    0.014014
     9  C   -0.090116
    10  C    0.117444
    11  C    0.060269
    12  C    0.080583
    13  C    0.042912
    14  C    0.165129
    15  O   -0.275721
    16  O   -0.305913
    17  N   -0.402321
    18  C    0.152148
    19  C   -0.179395
    20  C   -0.047793
    21  C    0.068252
    22  C    0.133658
    23  C   -0.005942
    24  O   -0.217686
    25  C    0.090016
    26  N   -0.234869
    27  C    0.030583
    28  C   -0.023743
    29  C    0.045065
    30  C    0.006049
    31  C    0.052845
    32  C    0.039392
    33  C    0.007037
    34  N   -0.347872
    35  C    0.104947
    36  C   -0.174604
    37  C    0.020721
    38  C    0.067113
    39  C    0.116687
    40  C    0.044379
    41  O   -0.196011
    42  C    0.027710
    43  C    0.216168
    44  O   -0.224550
    45  O   -0.342104
    46  C    0.171400
    47  C    0.233352
    48  C   -0.109068
    49  C   -0.171315
    50  C    0.097124
    51  C    0.082382
    52  C    0.040991
    53  C    0.044639
    54  C   -0.181442
    55  C    0.066658
    56  C    0.070719
    57  C    0.006812
    58  C    0.056151
    59  C   -0.151301
    60  C    0.040186
    61  C    0.071490
    62  C   -0.016529
    63  C    0.076760
    64  C   -0.155102
    65  C    0.049721
    66  C    0.024204
    67  H   -0.043785
    68  H   -0.009697
    69  H   -0.028229
    70  H    0.029193
    71  H    0.018392
    72  H   -0.004905
    73  H    0.039720
    74  H    0.024855
    75  H    0.017681
    76  H    0.014415
    77  H    0.026627
    78  H    0.041728
    79  H    0.036878
    80  H    0.035134
    81  H    0.005676
    82  H    0.029105
    83  H    0.042645
    84  H    0.023890
    85  H    0.018474
    86  H    0.009868
    87  H    0.029134
    88  H    0.014687
    89  H    0.009654
    90  H   -0.004502
    91  H   -0.011141
    92  H    0.025112
    93  H    0.013080
    94  H    0.017903
    95  H    0.007690
    96  H    0.041657
    97  H    0.033662
    98  H    0.047628
    99  H    0.044324
   100  H    0.048742
   101  H    0.023101
   102  H    0.028079
   103  H    0.047404
   104  H    0.002661
   105  H    0.012718
   106  H    0.035991
   107  H    0.007903
   108  H    0.013150
   109  H   -0.032466
   110  H   -0.014258
   111  H   -0.000446
   112  H   -0.012380
   113  H   -0.007935
   114  H   -0.009438
   115  H    0.012838
   116  H    0.017044
   117  H   -0.007484
   118  H   -0.003813
   119  H    0.002662
   120  H    0.009986
   121  H    0.002081
   122  H   -0.001454
   123  H   -0.022791
   124  H    0.001668
   125  H   -0.005445
   126  H   -0.001726
   127  H    0.016607
   128  H   -0.005774
   129  H   -0.002839
   130  H    0.007497
   131  H   -0.010036
   132  H   -0.020301
   133  H   -0.010547
   134  H   -0.002376
   135  H    0.009737
   136  H    0.004396
   137  H    0.004332
   138  H    0.008098
   139  H    0.014148
   140  H    0.015771
 Sum of Mulliken charges =  -0.00000

 Dipole moment (field-independent basis, Debye):
    X=              3.8511    Y=              3.5714    Z=             -6.0939  Tot=              8.0450
 Quadrupole moment (field-independent basis, Debye-Ang):
   XX=           -374.9145   YY=           -431.1183   ZZ=           -410.2222
   XY=            -11.4643   XZ=             14.5256   YZ=              7.6391

 Normal termination of Gaussian 16 at Wed Apr 27 12:07:42 2022.
