 Gaussian 16, Revision A.03,
 Gaussian 16:  ES64L-G16RevA.03 25-Dec-2016

 ---------------------------------
 #p PBE1PBE/Def2SVP td=(nstates=5)
 ---------------------------------

 -----------------------------------------------------
 step_1151_chromophore_3 TDDFT with PBE1PBE functional
 -----------------------------------------------------
 Symbolic Z-matrix:
 Charge =  0 Multiplicity = 1

                         Standard orientation:
 ---------------------------------------------------------------------
 Center     Atomic      Atomic             Coordinates (Angstroms)
 Number     Number       Type             X           Y           Z
 ---------------------------------------------------------------------
      1         12           0       -5.380473    0.716394    0.054806
      2          6           0       -4.080274   -2.518077    0.217319
      3          6           0       -2.236115    1.922397    0.028955
      4          6           0       -6.735049    3.869897    0.187990
      5          6           0       -8.564353   -0.519890    0.408928
      6          7           0       -3.463091   -0.211916    0.032902
      7          6           0       -3.116252   -1.517824    0.028175
      8          6           0       -1.718679   -1.724932   -0.365835
      9          6           0       -1.060710   -0.309280   -0.134577
     10          6           0       -2.329003    0.523743    0.062592
     11          6           0        0.052791   -0.207530    0.998651
     12          6           0       -1.489134   -2.237519   -1.828432
     13          6           0       -0.346249   -3.318246   -2.047839
     14          6           0        1.010053   -3.182706   -1.256569
     15          8           0        1.279884   -3.618290   -0.110300
     16          8           0        1.951260   -2.536223   -1.975409
     17          7           0       -4.596872    2.594289    0.095866
     18          6           0       -3.264157    2.907895    0.050624
     19          6           0       -3.063696    4.310147   -0.037458
     20          6           0       -4.304407    4.964894    0.177906
     21          6           0       -5.292682    3.807979    0.195782
     22          6           0       -1.755762    5.025611   -0.195804
     23          6           0       -4.622847    6.466795    0.315889
     24          8           0       -5.718575    6.883569    0.712520
     25          6           0       -3.649693    7.444422   -0.099687
     26          7           0       -7.433993    1.578269    0.307445
     27          6           0       -7.699392    2.872840    0.186573
     28          6           0       -9.176058    3.122062    0.031134
     29          6           0       -9.797178    1.708965    0.153905
     30          6           0       -8.530900    0.811528    0.222868
     31          6           0       -9.575279    4.071660    1.164586
     32          6           0      -10.790636    1.326726   -0.917954
     33          6           0      -12.325263    1.015466   -0.597345
     34          7           0       -6.207184   -1.111774    0.382660
     35          6           0       -7.510258   -1.458692    0.492900
     36          6           0       -7.630066   -2.962072    0.621098
     37          6           0       -6.287620   -3.419895    0.501362
     38          6           0       -5.458697   -2.238770    0.353726
     39          6           0       -8.888430   -3.755557    0.646955
     40          6           0       -5.388885   -4.550424    0.567843
     41          8           0       -5.529564   -5.741640    0.907138
     42          6           0       -4.011392   -4.035733    0.236334
     43          6           0       -3.030671   -4.618563    1.251689
     44          8           0       -2.689340   -4.219847    2.367471
     45          8           0       -2.507837   -5.731568    0.625987
     46          6           0       -1.391741   -6.316372    1.397432
     47          6           0        3.278532   -2.628272   -1.438998
     48          6           0        4.308302   -2.010240   -2.398787
     49          6           0        5.606095   -2.240722   -2.319284
     50          6           0        6.237051   -2.944548   -1.175018
     51          6           0        6.518937   -1.755016   -3.453314
     52          6           0        7.075995   -0.307777   -3.509493
     53          6           0        8.616604   -0.186812   -3.569254
     54          6           0        9.334304    0.502033   -2.363439
     55          6           0        9.748246   -0.582721   -1.360074
     56          6           0       10.411118    1.549071   -2.747558
     57          6           0       10.527734    2.676644   -1.616911
     58          6           0       12.023111    2.918208   -1.184463
     59          6           0       12.186235    2.940078    0.366331
     60          6           0       13.125614    4.130611    0.771600
     61          6           0       12.730995    1.558955    0.898207
     62          6           0       11.739018    0.675207    1.653633
     63          6           0       11.763144    0.814738    3.179683
     64          6           0       12.204644   -0.489049    3.871290
     65          6           0       11.354240   -0.925795    5.106958
     66          6           0       13.756535   -0.359616    4.295821
     67          1           0       -1.254214    2.398166   -0.034553
     68          1           0       -6.963874    4.919151   -0.007567
     69          1           0       -9.545746   -0.957472    0.603396
     70          1           0       -1.385207   -2.480345    0.345849
     71          1           0       -0.572868    0.154757   -0.992090
     72          1           0        0.942977    0.324768    0.665205
     73          1           0        0.446230   -1.211014    1.164997
     74          1           0       -0.262983    0.385085    1.856360
     75          1           0       -1.222460   -1.468483   -2.554092
     76          1           0       -2.417459   -2.680818   -2.190841
     77          1           0        0.028880   -3.270809   -3.070946
     78          1           0       -0.737678   -4.321617   -1.881763
     79          1           0       -1.657680    5.548508    0.755681
     80          1           0       -1.747544    5.700916   -1.050475
     81          1           0       -0.964614    4.278942   -0.262583
     82          1           0       -4.025007    8.461392    0.015394
     83          1           0       -3.344170    7.223624   -1.122570
     84          1           0       -2.850439    7.314635    0.629580
     85          1           0       -9.293438    3.657630   -0.911344
     86          1           0      -10.184423    1.547029    1.160239
     87          1           0       -8.798536    4.120654    1.926561
     88          1           0      -10.568898    3.940184    1.591844
     89          1           0       -9.595514    5.105972    0.821996
     90          1           0      -10.371207    0.523744   -1.524720
     91          1           0      -10.784721    2.085878   -1.699616
     92          1           0      -12.878118    1.876165   -0.220010
     93          1           0      -12.438680    0.213610    0.133037
     94          1           0      -12.725252    0.638756   -1.539277
     95          1           0       -9.733340   -3.120326    0.381447
     96          1           0       -8.959299   -4.166597    1.654318
     97          1           0       -8.914704   -4.593406   -0.049495
     98          1           0       -3.768948   -4.355791   -0.776039
     99          1           0       -1.762589   -6.491484    2.407706
    100          1           0       -0.490566   -5.706404    1.330361
    101          1           0       -1.152874   -7.303229    1.000825
    102          1           0        3.403433   -3.711280   -1.419817
    103          1           0        3.421826   -2.213834   -0.440669
    104          1           0        3.841144   -1.301927   -3.083444
    105          1           0        5.537961   -3.480773   -0.532884
    106          1           0        7.044996   -2.418118   -0.668087
    107          1           0        6.724482   -3.802118   -1.638672
    108          1           0        6.326843   -2.150370   -4.450978
    109          1           0        7.404684   -2.357315   -3.250430
    110          1           0        6.726370    0.230846   -2.628526
    111          1           0        6.597301    0.302309   -4.274420
    112          1           0        8.853113    0.347885   -4.488928
    113          1           0        9.038321   -1.184384   -3.691509
    114          1           0        8.542242    0.977157   -1.784605
    115          1           0        9.899925   -1.529856   -1.876753
    116          1           0        8.970132   -0.519090   -0.598654
    117          1           0       10.669971   -0.273903   -0.867880
    118          1           0       10.113589    2.052471   -3.667938
    119          1           0       11.378260    1.061237   -2.864142
    120          1           0        9.774103    2.449563   -0.863632
    121          1           0       10.263194    3.633587   -2.067041
    122          1           0       12.574061    3.697624   -1.710954
    123          1           0       12.602399    2.051511   -1.502508
    124          1           0       11.210123    3.209776    0.768730
    125          1           0       13.537967    4.555528   -0.143464
    126          1           0       14.029509    3.828410    1.300392
    127          1           0       12.634605    4.896871    1.371972
    128          1           0       13.590735    1.872462    1.489199
    129          1           0       13.082243    0.874704    0.126023
    130          1           0       11.770188   -0.337335    1.250470
    131          1           0       10.717270    0.954453    1.398508
    132          1           0       10.765064    1.128390    3.484684
    133          1           0       12.339027    1.679175    3.510909
    134          1           0       12.054983   -1.312004    3.172664
    135          1           0       10.940387   -1.909037    4.882806
    136          1           0       10.528624   -0.240637    5.301351
    137          1           0       12.003778   -0.951047    5.982280
    138          1           0       14.314851    0.066872    3.461834
    139          1           0       14.210051   -1.318589    4.546817
    140          1           0       13.777631    0.326690    5.141572
 ---------------------------------------------------------------------

 SCF Done:  E(RPBE1PBE) =  -3005.34928384     A.U. after   15 cycles

 Excitation energies and oscillator strengths:

 Excited State   1:      Singlet-A      1.8553 eV  668.26 nm  f=0.3813  <S**2>=0.000
     245 -> 248       -0.17339
     246 -> 247        0.69309
     246 <- 247       -0.10884
 This state for optimization and/or second-order correction.
 Total Energy, E(TD-HF/TD-DFT) =  -3005.28110212
 Copying the excited state density for this state as the 1-particle RhoCI density.

 Excited State   2:      Singlet-A      2.2518 eV  550.59 nm  f=0.1151  <S**2>=0.000
     245 -> 247        0.65154
     246 -> 248        0.26391

 Excited State   3:      Singlet-A      3.0215 eV  410.34 nm  f=0.0002  <S**2>=0.000
     242 -> 247        0.23519
     244 -> 247        0.61550
     244 -> 249       -0.17665

 Excited State   4:      Singlet-A      3.1763 eV  390.34 nm  f=0.0038  <S**2>=0.000
     240 -> 247        0.55724
     240 -> 249        0.12056
     240 -> 250        0.10483
     241 -> 247        0.32193
     242 -> 247       -0.14613

 Excited State   5:      Singlet-A      3.2224 eV  384.75 nm  f=0.0023  <S**2>=0.000
     240 -> 247       -0.13639
     241 -> 247        0.42773
     242 -> 247        0.46988
     244 -> 247       -0.25455

 The electronic state is 1-A.
 Alpha  occ. eigenvalues --  -46.91392 -19.27041 -19.24699 -19.20726 -19.19861
 Alpha  occ. eigenvalues --  -19.18889 -19.18445 -14.41655 -14.40603 -14.39332
 Alpha  occ. eigenvalues --  -14.39124 -10.37667 -10.36032 -10.32285 -10.31606
 Alpha  occ. eigenvalues --  -10.29616 -10.28757 -10.28605 -10.28360 -10.27801
 Alpha  occ. eigenvalues --  -10.27800 -10.27452 -10.27390 -10.27317 -10.26719
 Alpha  occ. eigenvalues --  -10.26495 -10.26382 -10.26359 -10.26015 -10.25859
 Alpha  occ. eigenvalues --  -10.25842 -10.25576 -10.25430 -10.25313 -10.25095
 Alpha  occ. eigenvalues --  -10.24898 -10.24810 -10.24674 -10.24432 -10.23965
 Alpha  occ. eigenvalues --  -10.23724 -10.23680 -10.23676 -10.23577 -10.23545
 Alpha  occ. eigenvalues --  -10.23534 -10.23514 -10.23484 -10.23449 -10.23432
 Alpha  occ. eigenvalues --  -10.23429 -10.23285 -10.23266 -10.23259 -10.23111
 Alpha  occ. eigenvalues --  -10.22904 -10.22679 -10.22421 -10.22404 -10.22278
 Alpha  occ. eigenvalues --  -10.22277 -10.22242 -10.22098 -10.22009 -10.21727
 Alpha  occ. eigenvalues --  -10.21591  -3.13663  -1.86506  -1.86016  -1.85922
 Alpha  occ. eigenvalues --   -1.13040  -1.09720  -1.04071  -1.02832  -1.02038
 Alpha  occ. eigenvalues --   -1.01299  -0.99735  -0.99286  -0.97819  -0.96743
 Alpha  occ. eigenvalues --   -0.87224  -0.85167  -0.83762  -0.83530  -0.83268
 Alpha  occ. eigenvalues --   -0.82878  -0.82856  -0.82186  -0.81818  -0.81096
 Alpha  occ. eigenvalues --   -0.80454  -0.79706  -0.78475  -0.77872  -0.77701
 Alpha  occ. eigenvalues --   -0.76950  -0.76616  -0.75693  -0.75188  -0.74558
 Alpha  occ. eigenvalues --   -0.74257  -0.72670  -0.72305  -0.71410  -0.70508
 Alpha  occ. eigenvalues --   -0.70023  -0.69384  -0.69064  -0.68942  -0.68730
 Alpha  occ. eigenvalues --   -0.68230  -0.66847  -0.66101  -0.65363  -0.63920
 Alpha  occ. eigenvalues --   -0.63204  -0.63007  -0.61998  -0.61338  -0.60330
 Alpha  occ. eigenvalues --   -0.60257  -0.60006  -0.59237  -0.58922  -0.58717
 Alpha  occ. eigenvalues --   -0.58375  -0.57486  -0.57073  -0.55969  -0.54896
 Alpha  occ. eigenvalues --   -0.54391  -0.53974  -0.53414  -0.52973  -0.52081
 Alpha  occ. eigenvalues --   -0.51952  -0.51437  -0.50573  -0.50441  -0.50096
 Alpha  occ. eigenvalues --   -0.49856  -0.49690  -0.48664  -0.48556  -0.48353
 Alpha  occ. eigenvalues --   -0.48210  -0.47952  -0.47828  -0.47714  -0.47548
 Alpha  occ. eigenvalues --   -0.47214  -0.47057  -0.46921  -0.46474  -0.46019
 Alpha  occ. eigenvalues --   -0.45948  -0.45898  -0.45610  -0.45433  -0.45347
 Alpha  occ. eigenvalues --   -0.45079  -0.44854  -0.44717  -0.44493  -0.44274
 Alpha  occ. eigenvalues --   -0.44134  -0.44022  -0.43890  -0.43752  -0.43361
 Alpha  occ. eigenvalues --   -0.43194  -0.43146  -0.42826  -0.42771  -0.42329
 Alpha  occ. eigenvalues --   -0.42008  -0.41940  -0.41887  -0.41417  -0.41345
 Alpha  occ. eigenvalues --   -0.41224  -0.40903  -0.40854  -0.40524  -0.40418
 Alpha  occ. eigenvalues --   -0.40328  -0.40060  -0.39933  -0.39745  -0.39424
 Alpha  occ. eigenvalues --   -0.39197  -0.39130  -0.38923  -0.38847  -0.38696
 Alpha  occ. eigenvalues --   -0.38493  -0.38364  -0.38337  -0.38022  -0.37967
 Alpha  occ. eigenvalues --   -0.37924  -0.37528  -0.37115  -0.36859  -0.36717
 Alpha  occ. eigenvalues --   -0.36558  -0.36433  -0.36271  -0.36024  -0.35991
 Alpha  occ. eigenvalues --   -0.35652  -0.35606  -0.35389  -0.35189  -0.34878
 Alpha  occ. eigenvalues --   -0.34493  -0.34201  -0.34121  -0.33832  -0.33631
 Alpha  occ. eigenvalues --   -0.33578  -0.33155  -0.33091  -0.32903  -0.32546
 Alpha  occ. eigenvalues --   -0.32252  -0.31945  -0.31793  -0.31596  -0.31413
 Alpha  occ. eigenvalues --   -0.30796  -0.30621  -0.29886  -0.29312  -0.29148
 Alpha  occ. eigenvalues --   -0.28948  -0.28779  -0.28225  -0.26832  -0.25854
 Alpha  occ. eigenvalues --   -0.25769  -0.25604  -0.25517  -0.25369  -0.20774
 Alpha  occ. eigenvalues --   -0.18502
 Alpha virt. eigenvalues --   -0.10912  -0.04877  -0.03888  -0.02070  -0.01265
 Alpha virt. eigenvalues --    0.00031   0.00921   0.01000   0.01689   0.03227
 Alpha virt. eigenvalues --    0.04198   0.04896   0.04948   0.05064   0.05455

 Mulliken charges:
               1
     1  Mg   0.994444
     2  C   -0.024974
     3  C   -0.099056
     4  C   -0.035788
     5  C   -0.074244
     6  N   -0.399932
     7  C    0.020074
     8  C   -0.057592
     9  C   -0.160887
    10  C    0.151398
    11  C    0.003124
    12  C    0.031694
    13  C   -0.029978
    14  C    0.226945
    15  O   -0.307119
    16  O   -0.338530
    17  N   -0.518373
    18  C    0.172427
    19  C   -0.204315
    20  C   -0.094549
    21  C    0.104445
    22  C    0.067729
    23  C    0.044704
    24  O   -0.254860
    25  C    0.010659
    26  N   -0.341511
    27  C    0.062148
    28  C   -0.105809
    29  C   -0.035772
    30  C    0.047621
    31  C   -0.001356
    32  C   -0.017999
    33  C   -0.066581
    34  N   -0.479180
    35  C    0.131134
    36  C   -0.186859
    37  C   -0.021804
    38  C    0.116583
    39  C    0.063571
    40  C    0.133759
    41  O   -0.240255
    42  C   -0.079208
    43  C    0.296818
    44  O   -0.258850
    45  O   -0.371120
    46  C    0.114976
    47  C    0.193882
    48  C   -0.109626
    49  C   -0.223353
    50  C    0.027175
    51  C    0.020245
    52  C   -0.015454
    53  C   -0.013724
    54  C   -0.264767
    55  C    0.003108
    56  C    0.012304
    57  C   -0.055492
    58  C    0.006110
    59  C   -0.237694
    60  C   -0.015989
    61  C    0.019039
    62  C   -0.081498
    63  C    0.026481
    64  C   -0.245376
    65  C   -0.009627
    66  C   -0.043011
    67  H   -0.010060
    68  H    0.022850
    69  H    0.005103
    70  H    0.071618
    71  H    0.054449
    72  H    0.022543
    73  H    0.067450
    74  H    0.051832
    75  H    0.048923
    76  H    0.047931
    77  H    0.058616
    78  H    0.073215
    79  H    0.065539
    80  H    0.062199
    81  H    0.034707
    82  H    0.056759
    83  H    0.069306
    84  H    0.051879
    85  H    0.054309
    86  H    0.047874
    87  H    0.057485
    88  H    0.042400
    89  H    0.037711
    90  H    0.028250
    91  H    0.022291
    92  H    0.052620
    93  H    0.040604
    94  H    0.045852
    95  H    0.034310
    96  H    0.069733
    97  H    0.061099
    98  H    0.085602
    99  H    0.066443
   100  H    0.071707
   101  H    0.045938
   102  H    0.055772
   103  H    0.073059
   104  H    0.032309
   105  H    0.039170
   106  H    0.066025
   107  H    0.036722
   108  H    0.044709
   109  H    0.002116
   110  H    0.019240
   111  H    0.031578
   112  H    0.020647
   113  H    0.024071
   114  H    0.029627
   115  H    0.038552
   116  H    0.043230
   117  H    0.029411
   118  H    0.029014
   119  H    0.034633
   120  H    0.039153
   121  H    0.036659
   122  H    0.028462
   123  H    0.009809
   124  H    0.039484
   125  H    0.021893
   126  H    0.024641
   127  H    0.043458
   128  H    0.026028
   129  H    0.027457
   130  H    0.036536
   131  H    0.024392
   132  H    0.012124
   133  H    0.021504
   134  H    0.035362
   135  H    0.036894
   136  H    0.031332
   137  H    0.031588
   138  H    0.038107
   139  H    0.042239
   140  H    0.043422
 Sum of Mulliken charges =  -0.00000

 Dipole moment (field-independent basis, Debye):
    X=              3.7799    Y=              3.3789    Z=             -6.1086  Tot=              7.9385
 Quadrupole moment (field-independent basis, Debye-Ang):
   XX=           -368.3338   YY=           -428.6294   ZZ=           -407.8187
   XY=            -10.7851   XZ=             14.5854   YZ=              7.4173

 Normal termination of Gaussian 16 at Wed Apr 27 12:25:14 2022.
