 Gaussian 16, Revision A.03,
 Gaussian 16:  ES64L-G16RevA.03 25-Dec-2016

 --------------------------------
 #p wB97XD/Def2SVP td=(nstates=5)
 --------------------------------

 ----------------------------------------------------
 step_1151_chromophore_3 TDDFT with wB97XD functional
 ----------------------------------------------------
 Symbolic Z-matrix:
 Charge =  0 Multiplicity = 1

                         Standard orientation:
 ---------------------------------------------------------------------
 Center     Atomic      Atomic             Coordinates (Angstroms)
 Number     Number       Type             X           Y           Z
 ---------------------------------------------------------------------
      1         12           0       -5.380473    0.716394    0.054806
      2          6           0       -4.080274   -2.518077    0.217319
      3          6           0       -2.236115    1.922397    0.028955
      4          6           0       -6.735049    3.869897    0.187990
      5          6           0       -8.564353   -0.519890    0.408928
      6          7           0       -3.463091   -0.211916    0.032902
      7          6           0       -3.116252   -1.517824    0.028175
      8          6           0       -1.718679   -1.724932   -0.365835
      9          6           0       -1.060710   -0.309280   -0.134577
     10          6           0       -2.329003    0.523743    0.062592
     11          6           0        0.052791   -0.207530    0.998651
     12          6           0       -1.489134   -2.237519   -1.828432
     13          6           0       -0.346249   -3.318246   -2.047839
     14          6           0        1.010053   -3.182706   -1.256569
     15          8           0        1.279884   -3.618290   -0.110300
     16          8           0        1.951260   -2.536223   -1.975409
     17          7           0       -4.596872    2.594289    0.095866
     18          6           0       -3.264157    2.907895    0.050624
     19          6           0       -3.063696    4.310147   -0.037458
     20          6           0       -4.304407    4.964894    0.177906
     21          6           0       -5.292682    3.807979    0.195782
     22          6           0       -1.755762    5.025611   -0.195804
     23          6           0       -4.622847    6.466795    0.315889
     24          8           0       -5.718575    6.883569    0.712520
     25          6           0       -3.649693    7.444422   -0.099687
     26          7           0       -7.433993    1.578269    0.307445
     27          6           0       -7.699392    2.872840    0.186573
     28          6           0       -9.176058    3.122062    0.031134
     29          6           0       -9.797178    1.708965    0.153905
     30          6           0       -8.530900    0.811528    0.222868
     31          6           0       -9.575279    4.071660    1.164586
     32          6           0      -10.790636    1.326726   -0.917954
     33          6           0      -12.325263    1.015466   -0.597345
     34          7           0       -6.207184   -1.111774    0.382660
     35          6           0       -7.510258   -1.458692    0.492900
     36          6           0       -7.630066   -2.962072    0.621098
     37          6           0       -6.287620   -3.419895    0.501362
     38          6           0       -5.458697   -2.238770    0.353726
     39          6           0       -8.888430   -3.755557    0.646955
     40          6           0       -5.388885   -4.550424    0.567843
     41          8           0       -5.529564   -5.741640    0.907138
     42          6           0       -4.011392   -4.035733    0.236334
     43          6           0       -3.030671   -4.618563    1.251689
     44          8           0       -2.689340   -4.219847    2.367471
     45          8           0       -2.507837   -5.731568    0.625987
     46          6           0       -1.391741   -6.316372    1.397432
     47          6           0        3.278532   -2.628272   -1.438998
     48          6           0        4.308302   -2.010240   -2.398787
     49          6           0        5.606095   -2.240722   -2.319284
     50          6           0        6.237051   -2.944548   -1.175018
     51          6           0        6.518937   -1.755016   -3.453314
     52          6           0        7.075995   -0.307777   -3.509493
     53          6           0        8.616604   -0.186812   -3.569254
     54          6           0        9.334304    0.502033   -2.363439
     55          6           0        9.748246   -0.582721   -1.360074
     56          6           0       10.411118    1.549071   -2.747558
     57          6           0       10.527734    2.676644   -1.616911
     58          6           0       12.023111    2.918208   -1.184463
     59          6           0       12.186235    2.940078    0.366331
     60          6           0       13.125614    4.130611    0.771600
     61          6           0       12.730995    1.558955    0.898207
     62          6           0       11.739018    0.675207    1.653633
     63          6           0       11.763144    0.814738    3.179683
     64          6           0       12.204644   -0.489049    3.871290
     65          6           0       11.354240   -0.925795    5.106958
     66          6           0       13.756535   -0.359616    4.295821
     67          1           0       -1.254214    2.398166   -0.034553
     68          1           0       -6.963874    4.919151   -0.007567
     69          1           0       -9.545746   -0.957472    0.603396
     70          1           0       -1.385207   -2.480345    0.345849
     71          1           0       -0.572868    0.154757   -0.992090
     72          1           0        0.942977    0.324768    0.665205
     73          1           0        0.446230   -1.211014    1.164997
     74          1           0       -0.262983    0.385085    1.856360
     75          1           0       -1.222460   -1.468483   -2.554092
     76          1           0       -2.417459   -2.680818   -2.190841
     77          1           0        0.028880   -3.270809   -3.070946
     78          1           0       -0.737678   -4.321617   -1.881763
     79          1           0       -1.657680    5.548508    0.755681
     80          1           0       -1.747544    5.700916   -1.050475
     81          1           0       -0.964614    4.278942   -0.262583
     82          1           0       -4.025007    8.461392    0.015394
     83          1           0       -3.344170    7.223624   -1.122570
     84          1           0       -2.850439    7.314635    0.629580
     85          1           0       -9.293438    3.657630   -0.911344
     86          1           0      -10.184423    1.547029    1.160239
     87          1           0       -8.798536    4.120654    1.926561
     88          1           0      -10.568898    3.940184    1.591844
     89          1           0       -9.595514    5.105972    0.821996
     90          1           0      -10.371207    0.523744   -1.524720
     91          1           0      -10.784721    2.085878   -1.699616
     92          1           0      -12.878118    1.876165   -0.220010
     93          1           0      -12.438680    0.213610    0.133037
     94          1           0      -12.725252    0.638756   -1.539277
     95          1           0       -9.733340   -3.120326    0.381447
     96          1           0       -8.959299   -4.166597    1.654318
     97          1           0       -8.914704   -4.593406   -0.049495
     98          1           0       -3.768948   -4.355791   -0.776039
     99          1           0       -1.762589   -6.491484    2.407706
    100          1           0       -0.490566   -5.706404    1.330361
    101          1           0       -1.152874   -7.303229    1.000825
    102          1           0        3.403433   -3.711280   -1.419817
    103          1           0        3.421826   -2.213834   -0.440669
    104          1           0        3.841144   -1.301927   -3.083444
    105          1           0        5.537961   -3.480773   -0.532884
    106          1           0        7.044996   -2.418118   -0.668087
    107          1           0        6.724482   -3.802118   -1.638672
    108          1           0        6.326843   -2.150370   -4.450978
    109          1           0        7.404684   -2.357315   -3.250430
    110          1           0        6.726370    0.230846   -2.628526
    111          1           0        6.597301    0.302309   -4.274420
    112          1           0        8.853113    0.347885   -4.488928
    113          1           0        9.038321   -1.184384   -3.691509
    114          1           0        8.542242    0.977157   -1.784605
    115          1           0        9.899925   -1.529856   -1.876753
    116          1           0        8.970132   -0.519090   -0.598654
    117          1           0       10.669971   -0.273903   -0.867880
    118          1           0       10.113589    2.052471   -3.667938
    119          1           0       11.378260    1.061237   -2.864142
    120          1           0        9.774103    2.449563   -0.863632
    121          1           0       10.263194    3.633587   -2.067041
    122          1           0       12.574061    3.697624   -1.710954
    123          1           0       12.602399    2.051511   -1.502508
    124          1           0       11.210123    3.209776    0.768730
    125          1           0       13.537967    4.555528   -0.143464
    126          1           0       14.029509    3.828410    1.300392
    127          1           0       12.634605    4.896871    1.371972
    128          1           0       13.590735    1.872462    1.489199
    129          1           0       13.082243    0.874704    0.126023
    130          1           0       11.770188   -0.337335    1.250470
    131          1           0       10.717270    0.954453    1.398508
    132          1           0       10.765064    1.128390    3.484684
    133          1           0       12.339027    1.679175    3.510909
    134          1           0       12.054983   -1.312004    3.172664
    135          1           0       10.940387   -1.909037    4.882806
    136          1           0       10.528624   -0.240637    5.301351
    137          1           0       12.003778   -0.951047    5.982280
    138          1           0       14.314851    0.066872    3.461834
    139          1           0       14.210051   -1.318589    4.546817
    140          1           0       13.777631    0.326690    5.141572
 ---------------------------------------------------------------------

 SCF Done:  E(RwB97XD) =  -3007.85753193     A.U. after   19 cycles

 Excitation energies and oscillator strengths:

 Excited State   1:      Singlet-A      1.6425 eV  754.84 nm  f=0.3921  <S**2>=0.000
     245 -> 248       -0.18718
     246 -> 247        0.68345
     245 <- 248       -0.11827
 This state for optimization and/or second-order correction.
 Total Energy, E(TD-HF/TD-DFT) =  -3007.79717057
 Copying the excited state density for this state as the 1-particle RhoCI density.

 Excited State   2:      Singlet-A      2.1962 eV  564.53 nm  f=0.1131  <S**2>=0.000
     245 -> 247        0.63736
     246 -> 248        0.29394

 Excited State   3:      Singlet-A      3.5304 eV  351.19 nm  f=0.2078  <S**2>=0.000
     241 -> 249        0.15249
     242 -> 247        0.46748
     244 -> 247       -0.26397
     245 -> 247        0.14419
     246 -> 248       -0.37318

 Excited State   4:      Singlet-A      3.5349 eV  350.74 nm  f=0.1761  <S**2>=0.000
     241 -> 247        0.39412
     241 -> 249       -0.26551
     241 -> 250       -0.15075
     242 -> 247       -0.13360
     242 -> 249        0.14612
     244 -> 247        0.19619
     245 -> 247        0.14108
     246 -> 248       -0.33493

 Excited State   5:      Singlet-A      3.6157 eV  342.91 nm  f=0.2458  <S**2>=0.000
     239 -> 247       -0.10123
     241 -> 247        0.37438
     241 -> 249       -0.13191
     242 -> 247        0.10891
     242 -> 249        0.10363
     244 -> 247       -0.36628
     245 -> 247       -0.16683
     246 -> 248        0.33259

 The electronic state is 1-A.
 Alpha  occ. eigenvalues --  -46.94342 -19.31565 -19.29206 -19.25330 -19.24513
 Alpha  occ. eigenvalues --  -19.23818 -19.23204 -14.46737 -14.45717 -14.44355
 Alpha  occ. eigenvalues --  -14.44017 -10.44398 -10.42813 -10.39236 -10.38430
 Alpha  occ. eigenvalues --  -10.36077 -10.35230 -10.35017 -10.34580 -10.34185
 Alpha  occ. eigenvalues --  -10.33927 -10.33907 -10.33786 -10.33624 -10.32901
 Alpha  occ. eigenvalues --  -10.32890 -10.32706 -10.32691 -10.32504 -10.32272
 Alpha  occ. eigenvalues --  -10.32087 -10.31966 -10.31950 -10.31581 -10.31296
 Alpha  occ. eigenvalues --  -10.31291 -10.31155 -10.31142 -10.30870 -10.30262
 Alpha  occ. eigenvalues --  -10.30160 -10.30134 -10.30100 -10.30047 -10.29911
 Alpha  occ. eigenvalues --  -10.29899 -10.29857 -10.29844 -10.29840 -10.29815
 Alpha  occ. eigenvalues --  -10.29695 -10.29665 -10.29660 -10.29474 -10.29465
 Alpha  occ. eigenvalues --  -10.29262 -10.29028 -10.28791 -10.28763 -10.28729
 Alpha  occ. eigenvalues --  -10.28673 -10.28636 -10.28477 -10.28378 -10.28137
 Alpha  occ. eigenvalues --  -10.28010  -3.20450  -1.94045  -1.93558  -1.93458
 Alpha  occ. eigenvalues --   -1.20365  -1.17076  -1.11677  -1.10286  -1.09348
 Alpha  occ. eigenvalues --   -1.08623  -1.07113  -1.06660  -1.05084  -1.04231
 Alpha  occ. eigenvalues --   -0.94790  -0.92833  -0.91423  -0.91161  -0.90913
 Alpha  occ. eigenvalues --   -0.90518  -0.90435  -0.89937  -0.89438  -0.88763
 Alpha  occ. eigenvalues --   -0.88039  -0.87342  -0.86156  -0.85591  -0.85305
 Alpha  occ. eigenvalues --   -0.84671  -0.84275  -0.83326  -0.82801  -0.82157
 Alpha  occ. eigenvalues --   -0.81921  -0.80320  -0.80003  -0.79021  -0.78166
 Alpha  occ. eigenvalues --   -0.77620  -0.76965  -0.76741  -0.76645  -0.76391
 Alpha  occ. eigenvalues --   -0.75839  -0.74365  -0.73648  -0.72965  -0.71475
 Alpha  occ. eigenvalues --   -0.70785  -0.70616  -0.69554  -0.68969  -0.67816
 Alpha  occ. eigenvalues --   -0.67766  -0.67652  -0.66699  -0.66365  -0.66144
 Alpha  occ. eigenvalues --   -0.66041  -0.65133  -0.64716  -0.63367  -0.62380
 Alpha  occ. eigenvalues --   -0.61876  -0.61399  -0.60834  -0.60308  -0.59518
 Alpha  occ. eigenvalues --   -0.59442  -0.58922  -0.57950  -0.57857  -0.57483
 Alpha  occ. eigenvalues --   -0.57228  -0.57059  -0.56143  -0.56021  -0.55936
 Alpha  occ. eigenvalues --   -0.55572  -0.55297  -0.55280  -0.55132  -0.54864
 Alpha  occ. eigenvalues --   -0.54575  -0.54426  -0.54234  -0.53822  -0.53351
 Alpha  occ. eigenvalues --   -0.53306  -0.53249  -0.53059  -0.52764  -0.52733
 Alpha  occ. eigenvalues --   -0.52379  -0.52213  -0.52155  -0.51826  -0.51562
 Alpha  occ. eigenvalues --   -0.51470  -0.51370  -0.51180  -0.51040  -0.50656
 Alpha  occ. eigenvalues --   -0.50481  -0.50424  -0.50050  -0.50041  -0.49573
 Alpha  occ. eigenvalues --   -0.49394  -0.49165  -0.49151  -0.48671  -0.48630
 Alpha  occ. eigenvalues --   -0.48476  -0.48129  -0.48043  -0.47659  -0.47610
 Alpha  occ. eigenvalues --   -0.47503  -0.47336  -0.47165  -0.46863  -0.46530
 Alpha  occ. eigenvalues --   -0.46347  -0.46282  -0.46112  -0.46001  -0.45848
 Alpha  occ. eigenvalues --   -0.45640  -0.45561  -0.45515  -0.45164  -0.45031
 Alpha  occ. eigenvalues --   -0.44988  -0.44621  -0.44250  -0.43949  -0.43811
 Alpha  occ. eigenvalues --   -0.43641  -0.43522  -0.43451  -0.43136  -0.43045
 Alpha  occ. eigenvalues --   -0.42774  -0.42712  -0.42481  -0.42261  -0.41876
 Alpha  occ. eigenvalues --   -0.41468  -0.41228  -0.41041  -0.40851  -0.40680
 Alpha  occ. eigenvalues --   -0.40550  -0.40230  -0.40040  -0.39945  -0.39585
 Alpha  occ. eigenvalues --   -0.39297  -0.38902  -0.38799  -0.38616  -0.38375
 Alpha  occ. eigenvalues --   -0.37835  -0.37633  -0.36753  -0.36209  -0.36134
 Alpha  occ. eigenvalues --   -0.35836  -0.35752  -0.34959  -0.33498  -0.33111
 Alpha  occ. eigenvalues --   -0.32602  -0.32391  -0.32283  -0.31998  -0.25774
 Alpha  occ. eigenvalues --   -0.22661
 Alpha virt. eigenvalues --   -0.06795   0.00554   0.02382   0.04354   0.05551
 Alpha virt. eigenvalues --    0.05980   0.07656   0.07795   0.08434   0.09578
 Alpha virt. eigenvalues --    0.10601   0.11596   0.11642   0.11832   0.12181

 Mulliken charges:
               1
     1  Mg   0.982907
     2  C   -0.029762
     3  C   -0.116928
     4  C   -0.056192
     5  C   -0.090529
     6  N   -0.364230
     7  C   -0.009024
     8  C   -0.029897
     9  C   -0.137571
    10  C    0.138002
    11  C    0.015450
    12  C    0.039569
    13  C   -0.012045
    14  C    0.211912
    15  O   -0.303666
    16  O   -0.337191
    17  N   -0.487107
    18  C    0.166935
    19  C   -0.194008
    20  C   -0.089721
    21  C    0.095512
    22  C    0.083098
    23  C    0.042875
    24  O   -0.248393
    25  C    0.023483
    26  N   -0.305429
    27  C    0.055580
    28  C   -0.081558
    29  C   -0.010442
    30  C    0.034268
    31  C    0.008018
    32  C   -0.007610
    33  C   -0.047822
    34  N   -0.438942
    35  C    0.120342
    36  C   -0.185949
    37  C   -0.021230
    38  C    0.099379
    39  C    0.075245
    40  C    0.118577
    41  O   -0.231399
    42  C   -0.039425
    43  C    0.277402
    44  O   -0.253313
    45  O   -0.372004
    46  C    0.130037
    47  C    0.207784
    48  C   -0.122282
    49  C   -0.207476
    50  C    0.043885
    51  C    0.043072
    52  C   -0.004302
    53  C    0.004624
    54  C   -0.230850
    55  C    0.023021
    56  C    0.028574
    57  C   -0.040404
    58  C    0.024791
    59  C   -0.212195
    60  C   -0.001874
    61  C    0.037461
    62  C   -0.061221
    63  C    0.037903
    64  C   -0.217459
    65  C    0.001843
    66  C   -0.026055
    67  H   -0.019406
    68  H    0.016421
    69  H   -0.003085
    70  H    0.053821
    71  H    0.044104
    72  H    0.016737
    73  H    0.060617
    74  H    0.046845
    75  H    0.042147
    76  H    0.039349
    77  H    0.053456
    78  H    0.068720
    79  H    0.058947
    80  H    0.057273
    81  H    0.031168
    82  H    0.056611
    83  H    0.063927
    84  H    0.044890
    85  H    0.045625
    86  H    0.037059
    87  H    0.050414
    88  H    0.037363
    89  H    0.032072
    90  H    0.019752
    91  H    0.014067
    92  H    0.046408
    93  H    0.033683
    94  H    0.040239
    95  H    0.028125
    96  H    0.064742
    97  H    0.056494
    98  H    0.077352
    99  H    0.061673
   100  H    0.069391
   101  H    0.042211
   102  H    0.048061
   103  H    0.067792
   104  H    0.030905
   105  H    0.034678
   106  H    0.059296
   107  H    0.029616
   108  H    0.039418
   109  H   -0.013564
   110  H    0.007954
   111  H    0.025771
   112  H    0.013108
   113  H    0.012665
   114  H    0.012376
   115  H    0.032783
   116  H    0.037107
   117  H    0.009898
   118  H    0.021388
   119  H    0.025179
   120  H    0.028532
   121  H    0.029256
   122  H    0.021756
   123  H   -0.004779
   124  H    0.026687
   125  H    0.014365
   126  H    0.018382
   127  H    0.038614
   128  H    0.012788
   129  H    0.019693
   130  H    0.028304
   131  H    0.011456
   132  H    0.004548
   133  H    0.011973
   134  H    0.023655
   135  H    0.031802
   136  H    0.025298
   137  H    0.025390
   138  H    0.029758
   139  H    0.037083
   140  H    0.035754
 Sum of Mulliken charges =  -0.00000

 Dipole moment (field-independent basis, Debye):
    X=              3.9200    Y=              3.7021    Z=             -6.1573  Tot=              8.1844
 Quadrupole moment (field-independent basis, Debye-Ang):
   XX=           -370.1388   YY=           -426.4345   ZZ=           -407.4648
   XY=            -11.7005   XZ=             15.0729   YZ=              7.4977

 Normal termination of Gaussian 16 at Wed Apr 27 12:53:00 2022.
