 Gaussian 16, Revision A.03,
 Gaussian 16:  ES64L-G16RevA.03 25-Dec-2016

 --------------------
 #p ZINDO=(nstates=5)
 --------------------

 -----------------------------
 step_1151_chromophore_3 ZINDO
 -----------------------------
 Symbolic Z-matrix:
 Charge =  0 Multiplicity = 1

                         Standard orientation:
 ---------------------------------------------------------------------
 Center     Atomic      Atomic             Coordinates (Angstroms)
 Number     Number       Type             X           Y           Z
 ---------------------------------------------------------------------
      1         12           0       -5.380473    0.716394    0.054806
      2          6           0       -4.080274   -2.518077    0.217319
      3          6           0       -2.236115    1.922397    0.028955
      4          6           0       -6.735049    3.869897    0.187990
      5          6           0       -8.564353   -0.519890    0.408928
      6          7           0       -3.463091   -0.211916    0.032902
      7          6           0       -3.116252   -1.517824    0.028175
      8          6           0       -1.718679   -1.724932   -0.365835
      9          6           0       -1.060710   -0.309280   -0.134577
     10          6           0       -2.329003    0.523743    0.062592
     11          6           0        0.052791   -0.207530    0.998651
     12          6           0       -1.489134   -2.237519   -1.828432
     13          6           0       -0.346249   -3.318246   -2.047839
     14          6           0        1.010053   -3.182706   -1.256569
     15          8           0        1.279884   -3.618290   -0.110300
     16          8           0        1.951260   -2.536223   -1.975409
     17          7           0       -4.596872    2.594289    0.095866
     18          6           0       -3.264157    2.907895    0.050624
     19          6           0       -3.063696    4.310147   -0.037458
     20          6           0       -4.304407    4.964894    0.177906
     21          6           0       -5.292682    3.807979    0.195782
     22          6           0       -1.755762    5.025611   -0.195804
     23          6           0       -4.622847    6.466795    0.315889
     24          8           0       -5.718575    6.883569    0.712520
     25          6           0       -3.649693    7.444422   -0.099687
     26          7           0       -7.433993    1.578269    0.307445
     27          6           0       -7.699392    2.872840    0.186573
     28          6           0       -9.176058    3.122062    0.031134
     29          6           0       -9.797178    1.708965    0.153905
     30          6           0       -8.530900    0.811528    0.222868
     31          6           0       -9.575279    4.071660    1.164586
     32          6           0      -10.790636    1.326726   -0.917954
     33          6           0      -12.325263    1.015466   -0.597345
     34          7           0       -6.207184   -1.111774    0.382660
     35          6           0       -7.510258   -1.458692    0.492900
     36          6           0       -7.630066   -2.962072    0.621098
     37          6           0       -6.287620   -3.419895    0.501362
     38          6           0       -5.458697   -2.238770    0.353726
     39          6           0       -8.888430   -3.755557    0.646955
     40          6           0       -5.388885   -4.550424    0.567843
     41          8           0       -5.529564   -5.741640    0.907138
     42          6           0       -4.011392   -4.035733    0.236334
     43          6           0       -3.030671   -4.618563    1.251689
     44          8           0       -2.689340   -4.219847    2.367471
     45          8           0       -2.507837   -5.731568    0.625987
     46          6           0       -1.391741   -6.316372    1.397432
     47          6           0        3.278532   -2.628272   -1.438998
     48          6           0        4.308302   -2.010240   -2.398787
     49          6           0        5.606095   -2.240722   -2.319284
     50          6           0        6.237051   -2.944548   -1.175018
     51          6           0        6.518937   -1.755016   -3.453314
     52          6           0        7.075995   -0.307777   -3.509493
     53          6           0        8.616604   -0.186812   -3.569254
     54          6           0        9.334304    0.502033   -2.363439
     55          6           0        9.748246   -0.582721   -1.360074
     56          6           0       10.411118    1.549071   -2.747558
     57          6           0       10.527734    2.676644   -1.616911
     58          6           0       12.023111    2.918208   -1.184463
     59          6           0       12.186235    2.940078    0.366331
     60          6           0       13.125614    4.130611    0.771600
     61          6           0       12.730995    1.558955    0.898207
     62          6           0       11.739018    0.675207    1.653633
     63          6           0       11.763144    0.814738    3.179683
     64          6           0       12.204644   -0.489049    3.871290
     65          6           0       11.354240   -0.925795    5.106958
     66          6           0       13.756535   -0.359616    4.295821
     67          1           0       -1.254214    2.398166   -0.034553
     68          1           0       -6.963874    4.919151   -0.007567
     69          1           0       -9.545746   -0.957472    0.603396
     70          1           0       -1.385207   -2.480345    0.345849
     71          1           0       -0.572868    0.154757   -0.992090
     72          1           0        0.942977    0.324768    0.665205
     73          1           0        0.446230   -1.211014    1.164997
     74          1           0       -0.262983    0.385085    1.856360
     75          1           0       -1.222460   -1.468483   -2.554092
     76          1           0       -2.417459   -2.680818   -2.190841
     77          1           0        0.028880   -3.270809   -3.070946
     78          1           0       -0.737678   -4.321617   -1.881763
     79          1           0       -1.657680    5.548508    0.755681
     80          1           0       -1.747544    5.700916   -1.050475
     81          1           0       -0.964614    4.278942   -0.262583
     82          1           0       -4.025007    8.461392    0.015394
     83          1           0       -3.344170    7.223624   -1.122570
     84          1           0       -2.850439    7.314635    0.629580
     85          1           0       -9.293438    3.657630   -0.911344
     86          1           0      -10.184423    1.547029    1.160239
     87          1           0       -8.798536    4.120654    1.926561
     88          1           0      -10.568898    3.940184    1.591844
     89          1           0       -9.595514    5.105972    0.821996
     90          1           0      -10.371207    0.523744   -1.524720
     91          1           0      -10.784721    2.085878   -1.699616
     92          1           0      -12.878118    1.876165   -0.220010
     93          1           0      -12.438680    0.213610    0.133037
     94          1           0      -12.725252    0.638756   -1.539277
     95          1           0       -9.733340   -3.120326    0.381447
     96          1           0       -8.959299   -4.166597    1.654318
     97          1           0       -8.914704   -4.593406   -0.049495
     98          1           0       -3.768948   -4.355791   -0.776039
     99          1           0       -1.762589   -6.491484    2.407706
    100          1           0       -0.490566   -5.706404    1.330361
    101          1           0       -1.152874   -7.303229    1.000825
    102          1           0        3.403433   -3.711280   -1.419817
    103          1           0        3.421826   -2.213834   -0.440669
    104          1           0        3.841144   -1.301927   -3.083444
    105          1           0        5.537961   -3.480773   -0.532884
    106          1           0        7.044996   -2.418118   -0.668087
    107          1           0        6.724482   -3.802118   -1.638672
    108          1           0        6.326843   -2.150370   -4.450978
    109          1           0        7.404684   -2.357315   -3.250430
    110          1           0        6.726370    0.230846   -2.628526
    111          1           0        6.597301    0.302309   -4.274420
    112          1           0        8.853113    0.347885   -4.488928
    113          1           0        9.038321   -1.184384   -3.691509
    114          1           0        8.542242    0.977157   -1.784605
    115          1           0        9.899925   -1.529856   -1.876753
    116          1           0        8.970132   -0.519090   -0.598654
    117          1           0       10.669971   -0.273903   -0.867880
    118          1           0       10.113589    2.052471   -3.667938
    119          1           0       11.378260    1.061237   -2.864142
    120          1           0        9.774103    2.449563   -0.863632
    121          1           0       10.263194    3.633587   -2.067041
    122          1           0       12.574061    3.697624   -1.710954
    123          1           0       12.602399    2.051511   -1.502508
    124          1           0       11.210123    3.209776    0.768730
    125          1           0       13.537967    4.555528   -0.143464
    126          1           0       14.029509    3.828410    1.300392
    127          1           0       12.634605    4.896871    1.371972
    128          1           0       13.590735    1.872462    1.489199
    129          1           0       13.082243    0.874704    0.126023
    130          1           0       11.770188   -0.337335    1.250470
    131          1           0       10.717270    0.954453    1.398508
    132          1           0       10.765064    1.128390    3.484684
    133          1           0       12.339027    1.679175    3.510909
    134          1           0       12.054983   -1.312004    3.172664
    135          1           0       10.940387   -1.909037    4.882806
    136          1           0       10.528624   -0.240637    5.301351
    137          1           0       12.003778   -0.951047    5.982280
    138          1           0       14.314851    0.066872    3.461834
    139          1           0       14.210051   -1.318589    4.546817
    140          1           0       13.777631    0.326690    5.141572
 ---------------------------------------------------------------------

 SCF Done:  E(RZINDO/S) =  -474.302840940     A.U. after   20 cycles

 Excitation energies and oscillator strengths:

 Excited State   1:      Singlet-A      1.2476 eV  993.75 nm  f=0.6056  <S**2>=0.000
     175 ->178        -0.19582
     176 ->177         0.66215
 This state for optimization and/or second-order correction.
 Total Energy, E(CIS/TDA) =  -474.256991148
 Copying the excited state density for this state as the 1-particle RhoCI density.

 Excited State   2:      Singlet-A      1.9281 eV  643.03 nm  f=0.0332  <S**2>=0.000
     175 ->177         0.53570
     176 ->178         0.43869

 Excited State   3:      Singlet-A      2.9502 eV  420.26 nm  f=0.2516  <S**2>=0.000
     175 ->177        -0.19905
     176 ->178         0.27874
     176 ->179         0.55815
     176 ->181        -0.13344

 Excited State   4:      Singlet-A      2.9861 eV  415.20 nm  f=0.0049  <S**2>=0.000
     169 ->177         0.31228
     169 ->178         0.14580
     169 ->179         0.40229
     169 ->181        -0.29184
     169 ->186         0.17777
     169 ->187         0.13943
     169 ->200        -0.12355
     176 ->179         0.11520

 Excited State   5:      Singlet-A      3.0141 eV  411.35 nm  f=0.0354  <S**2>=0.000
     168 ->177         0.27933
     168 ->178         0.10678
     168 ->179        -0.33773
     168 ->181        -0.37330
     168 ->186        -0.22923
     168 ->187         0.12920
     176 ->179         0.11743

 The electronic state is 1-A.
 Alpha  occ. eigenvalues --   -1.84623  -1.82932  -1.80123  -1.75448  -1.72269
 Alpha  occ. eigenvalues --   -1.70800  -1.64503  -1.60117  -1.59676  -1.58349
 Alpha  occ. eigenvalues --   -1.54198  -1.50687  -1.46937  -1.46633  -1.45566
 Alpha  occ. eigenvalues --   -1.43244  -1.41992  -1.41128  -1.40259  -1.38515
 Alpha  occ. eigenvalues --   -1.36765  -1.33989  -1.33528  -1.32288  -1.28622
 Alpha  occ. eigenvalues --   -1.27245  -1.25179  -1.23148  -1.20940  -1.18637
 Alpha  occ. eigenvalues --   -1.17496  -1.15267  -1.14717  -1.14271  -1.13583
 Alpha  occ. eigenvalues --   -1.12882  -1.10946  -1.09947  -1.04277  -1.03354
 Alpha  occ. eigenvalues --   -1.02872  -1.00521  -0.99815  -0.97926  -0.96887
 Alpha  occ. eigenvalues --   -0.96172  -0.95228  -0.94765  -0.93966  -0.93342
 Alpha  occ. eigenvalues --   -0.91102  -0.90859  -0.89545  -0.88218  -0.87410
 Alpha  occ. eigenvalues --   -0.85916  -0.84930  -0.82843  -0.81903  -0.80442
 Alpha  occ. eigenvalues --   -0.79227  -0.77613  -0.76027  -0.75620  -0.75297
 Alpha  occ. eigenvalues --   -0.74733  -0.74690  -0.73942  -0.73519  -0.72752
 Alpha  occ. eigenvalues --   -0.72416  -0.71971  -0.71419  -0.71086  -0.70846
 Alpha  occ. eigenvalues --   -0.69982  -0.69477  -0.69090  -0.68920  -0.68291
 Alpha  occ. eigenvalues --   -0.68038  -0.67129  -0.67029  -0.66395  -0.65990
 Alpha  occ. eigenvalues --   -0.65213  -0.64822  -0.64259  -0.64022  -0.63465
 Alpha  occ. eigenvalues --   -0.63142  -0.63012  -0.62722  -0.62542  -0.62114
 Alpha  occ. eigenvalues --   -0.61588  -0.61424  -0.61145  -0.60705  -0.60369
 Alpha  occ. eigenvalues --   -0.59961  -0.59679  -0.59297  -0.58883  -0.58473
 Alpha  occ. eigenvalues --   -0.58206  -0.57941  -0.57749  -0.57650  -0.57467
 Alpha  occ. eigenvalues --   -0.56813  -0.55612  -0.55019  -0.54708  -0.54301
 Alpha  occ. eigenvalues --   -0.54194  -0.54041  -0.53528  -0.52862  -0.52528
 Alpha  occ. eigenvalues --   -0.52460  -0.52259  -0.51834  -0.51513  -0.50994
 Alpha  occ. eigenvalues --   -0.50836  -0.50615  -0.50481  -0.50388  -0.49977
 Alpha  occ. eigenvalues --   -0.49707  -0.49651  -0.49329  -0.49283  -0.49184
 Alpha  occ. eigenvalues --   -0.48749  -0.48418  -0.48245  -0.47894  -0.47552
 Alpha  occ. eigenvalues --   -0.47482  -0.47339  -0.46933  -0.46807  -0.46678
 Alpha  occ. eigenvalues --   -0.46033  -0.45857  -0.45217  -0.45136  -0.44759
 Alpha  occ. eigenvalues --   -0.44726  -0.44584  -0.44421  -0.43986  -0.43897
 Alpha  occ. eigenvalues --   -0.43498  -0.43175  -0.42552  -0.42488  -0.42132
 Alpha  occ. eigenvalues --   -0.41734  -0.41635  -0.41052  -0.39006  -0.38479
 Alpha  occ. eigenvalues --   -0.37909  -0.36868  -0.35597  -0.34884  -0.34363
 Alpha  occ. eigenvalues --   -0.33337  -0.32629  -0.32623  -0.32067  -0.26467
 Alpha  occ. eigenvalues --   -0.21469
 Alpha virt. eigenvalues --   -0.08220  -0.01853  -0.00402   0.01171   0.01305
 Alpha virt. eigenvalues --    0.02856   0.03033   0.03114   0.04758   0.04946
 Alpha virt. eigenvalues --    0.06463   0.07030   0.07396   0.07642   0.08106

 Mulliken charges:
               1
     1  Mg   0.421565
     2  C   -0.056515
     3  C   -0.092128
     4  C   -0.075696
     5  C   -0.060774
     6  N   -0.272994
     7  C    0.130900
     8  C    0.017622
     9  C   -0.004612
    10  C    0.138951
    11  C   -0.056970
    12  C   -0.014402
    13  C    0.002490
    14  C    0.459419
    15  O   -0.532481
    16  O   -0.259635
    17  N   -0.326301
    18  C    0.118814
    19  C    0.016325
    20  C   -0.058835
    21  C    0.122386
    22  C   -0.047331
    23  C    0.339853
    24  O   -0.533378
    25  C   -0.022097
    26  N   -0.271307
    27  C    0.163485
    28  C    0.012125
    29  C    0.010580
    30  C    0.112238
    31  C   -0.053821
    32  C   -0.033929
    33  C   -0.056729
    34  N   -0.300215
    35  C    0.085298
    36  C    0.023523
    37  C   -0.066742
    38  C    0.097206
    39  C   -0.032733
    40  C    0.341371
    41  O   -0.534797
    42  C    0.065492
    43  C    0.490449
    44  O   -0.516031
    45  O   -0.269020
    46  C    0.071870
    47  C    0.099609
    48  C   -0.088910
    49  C    0.005667
    50  C   -0.043257
    51  C   -0.033488
    52  C   -0.027346
    53  C   -0.035553
    54  C   -0.018910
    55  C   -0.062777
    56  C   -0.035613
    57  C   -0.046353
    58  C   -0.041936
    59  C   -0.013158
    60  C   -0.066145
    61  C   -0.034094
    62  C   -0.035714
    63  C   -0.026640
    64  C   -0.018648
    65  C   -0.061211
    66  C   -0.059971
    67  H    0.023826
    68  H    0.040489
    69  H    0.019121
    70  H    0.045967
    71  H    0.031151
    72  H    0.010805
    73  H    0.037853
    74  H    0.033009
    75  H    0.027294
    76  H    0.022432
    77  H    0.030629
    78  H    0.044584
    79  H    0.034423
    80  H    0.036393
    81  H    0.023385
    82  H    0.038904
    83  H    0.040948
    84  H    0.041839
    85  H    0.039810
    86  H    0.035692
    87  H    0.030250
    88  H    0.020105
    89  H    0.013406
    90  H    0.017638
    91  H    0.011439
    92  H    0.027243
    93  H    0.019920
    94  H    0.020442
    95  H    0.021147
    96  H    0.041028
    97  H    0.033336
    98  H    0.056273
    99  H    0.051071
   100  H    0.050247
   101  H    0.023656
   102  H    0.044538
   103  H    0.058289
   104  H    0.034821
   105  H    0.029302
   106  H    0.041305
   107  H    0.015704
   108  H    0.031542
   109  H    0.003982
   110  H    0.012953
   111  H    0.018805
   112  H    0.010647
   113  H    0.019245
   114  H    0.015629
   115  H    0.029153
   116  H    0.022772
   117  H    0.015266
   118  H    0.019053
   119  H    0.026900
   120  H    0.035042
   121  H    0.012192
   122  H    0.029965
   123  H    0.009293
   124  H    0.024274
   125  H    0.015600
   126  H    0.016265
   127  H    0.021226
   128  H    0.022152
   129  H    0.019188
   130  H    0.022344
   131  H    0.008641
   132  H    0.010024
   133  H    0.020040
   134  H    0.020696
   135  H    0.018907
   136  H    0.019837
   137  H    0.021099
   138  H    0.015342
   139  H    0.020599
   140  H    0.023576
 Sum of Mulliken charges =  -0.00000

 Dipole moment (field-independent basis, Debye):
    X=              4.8562    Y=              5.1583    Z=             -8.9786  Tot=             11.4370
 N-N= 4.277089426768D+03 E-N= 0.000000000000D+00  KE=-9.228626800215D+03
 Leave Link  601 at Wed Apr 27 13:03:48 2022, MaxMem=  6710886400 cpu:               1.1 elap:               0.1
 (Enter /sw/apps/gaussian-16.0/g16/l9999.exe)
 1\1\GINC-BP1-COMPUTE174\SP\RZINDO CIS\STO-3G\C55H74Mg1N4O6\OF15641\27-
 Apr-2022\0\\#p ZINDO=(nstates=5)\\step_1151_chromophore_3 ZINDO\\0,1\M
 g,0,1.995,7.595,26.669\C,0,2.47,9.693,29.417\C,0,2.452,4.937,28.686\C,
 0,1.805,5.612,23.871\C,0,1.856,10.319,24.583\N,0,2.319,7.394,28.765\C,
 0,2.412,8.329,29.736\C,0,2.261,7.759,31.079\C,0,2.554,6.224,30.859\C,0
 ,2.513,6.181,29.33\C,0,3.852,5.629,31.563\C,0,0.873,7.99,31.768\C,0,0.
 879,8.308,33.324\C,0,1.879,7.538,34.268\O,0,3.067,7.839,34.541\O,0,1.3

 Normal termination of Gaussian 16 at Wed Apr 27 13:03:48 2022.
