 Gaussian 16, Revision A.03,
 Gaussian 16:  ES64L-G16RevA.03 25-Dec-2016

 ------------------------------
 #p blyp/Def2SVP td=(nstates=5)
 ------------------------------

 --------------------------------------------------
 step_1701_chromophore_6 TDDFT with blyp functional
 --------------------------------------------------
 Symbolic Z-matrix:
 Charge =  0 Multiplicity = 1

                         Standard orientation:
 ---------------------------------------------------------------------
 Center     Atomic      Atomic             Coordinates (Angstroms)
 Number     Number       Type             X           Y           Z
 ---------------------------------------------------------------------
      1         12           0        5.479977    1.042822    0.181226
      2          6           0        4.603460   -2.337124    0.303444
      3          6           0        2.256170    1.996565   -0.162451
      4          6           0        6.624880    4.309160   -0.145989
      5          6           0        8.783162   -0.056843   -0.064170
      6          7           0        3.686276   -0.079180   -0.078704
      7          6           0        3.475487   -1.395861    0.234927
      8          6           0        1.994032   -1.778920    0.359067
      9          6           0        1.273472   -0.410918   -0.056266
     10          6           0        2.451917    0.581363   -0.191048
     11          6           0        0.492193   -0.449114   -1.316348
     12          6           0        1.674229   -2.370076    1.731548
     13          6           0        0.651303   -3.522954    1.865824
     14          6           0       -0.017199   -3.938852    0.574242
     15          8           0        0.373491   -4.814313   -0.194118
     16          8           0       -1.097867   -3.079266    0.265045
     17          7           0        4.544322    2.924878   -0.013572
     18          6           0        3.152242    3.066163    0.019880
     19          6           0        2.884882    4.491271    0.103917
     20          6           0        4.130619    5.224249    0.033628
     21          6           0        5.183791    4.127301   -0.036356
     22          6           0        1.514073    5.013347    0.147384
     23          6           0        4.483839    6.733726   -0.051107
     24          8           0        5.653417    7.145301   -0.120713
     25          6           0        3.424894    7.724156   -0.082066
     26          7           0        7.442710    1.970372   -0.215214
     27          6           0        7.634285    3.315883   -0.223643
     28          6           0        9.134901    3.726288   -0.511108
     29          6           0        9.793449    2.306514   -0.213271
     30          6           0        8.625748    1.330048   -0.214442
     31          6           0        9.347870    4.243789   -1.940569
     32          6           0       10.437080    2.295156    1.138110
     33          6           0       11.805328    1.565785    1.232161
     34          7           0        6.440816   -0.741999    0.155032
     35          6           0        7.777640   -1.049656    0.167811
     36          6           0        8.036367   -2.494822    0.244858
     37          6           0        6.755906   -3.039034    0.278666
     38          6           0        5.876299   -1.931068    0.254353
     39          6           0        9.289131   -3.238757    0.224627
     40          6           0        5.972868   -4.271702    0.271081
     41          8           0        6.336513   -5.467343    0.242963
     42          6           0        4.494541   -3.858902    0.376361
     43          6           0        3.667495   -4.466185   -0.681452
     44          8           0        3.366738   -3.991709   -1.804506
     45          8           0        3.385906   -5.763308   -0.311973
     46          6           0        2.581565   -6.745918   -1.137970
     47          6           0       -1.696357   -3.409787   -1.029028
     48          6           0       -3.001421   -2.600366   -1.157570
     49          6           0       -4.224917   -2.906354   -0.696136
     50          6           0       -4.464662   -4.304351   -0.023016
     51          6           0       -5.429545   -2.020695   -1.091072
     52          6           0       -6.063639   -1.274159    0.046200
     53          6           0       -7.567952   -1.574467    0.187067
     54          6           0       -8.453397   -0.477150    0.895576
     55          6           0       -8.502063   -0.688935    2.461252
     56          6           0       -9.962436   -0.686939    0.449985
     57          6           0      -10.476204    0.589513   -0.295188
     58          6           0      -11.158348    1.580073    0.742873
     59          6           0      -12.427597    2.080556    0.125746
     60          6           0      -12.689375    3.556871    0.524440
     61          6           0      -13.665714    1.181570    0.451883
     62          6           0      -14.496089    0.854014   -0.744373
     63          6           0      -15.902106    0.561020   -0.315072
     64          6           0      -16.804912    1.848628   -0.467429
     65          6           0      -17.668797    1.762287   -1.732718
     66          6           0      -17.681023    1.881066    0.835866
     67          1           0        1.183449    2.199396   -0.128091
     68          1           0        6.991665    5.327708   -0.290275
     69          1           0        9.798992   -0.456221   -0.018898
     70          1           0        1.664998   -2.490829   -0.398886
     71          1           0        0.699328   -0.009832    0.778536
     72          1           0        0.510197   -1.430559   -1.790316
     73          1           0        0.937478    0.221100   -2.050859
     74          1           0       -0.564108   -0.220459   -1.173040
     75          1           0        1.344688   -1.555036    2.376017
     76          1           0        2.574858   -2.658903    2.273957
     77          1           0       -0.082332   -3.237601    2.619040
     78          1           0        1.143682   -4.359955    2.361883
     79          1           0        1.259292    5.627872   -0.715981
     80          1           0        1.447824    5.612869    1.055306
     81          1           0        0.752351    4.234456    0.190187
     82          1           0        3.785570    8.711586   -0.367898
     83          1           0        3.128169    7.736784    0.966743
     84          1           0        2.469796    7.451688   -0.530582
     85          1           0        9.490939    4.480405    0.191935
     86          1           0       10.525925    2.148523   -1.004376
     87          1           0        9.900617    5.164905   -1.760031
     88          1           0        8.380823    4.445038   -2.401138
     89          1           0       10.041724    3.593381   -2.472692
     90          1           0        9.823891    1.824433    1.906640
     91          1           0       10.697418    3.271595    1.546066
     92          1           0       12.672539    2.186495    1.008031
     93          1           0       11.946299    0.605061    0.736200
     94          1           0       11.970973    1.377612    2.291946
     95          1           0       10.081621   -2.510646    0.393305
     96          1           0        9.404855   -3.651391   -0.776987
     97          1           0        9.279797   -4.144489    0.831656
     98          1           0        4.144118   -4.082934    1.383519
     99          1           0        3.267016   -7.434931   -1.632093
    100          1           0        2.074961   -6.229167   -1.953589
    101          1           0        1.805184   -7.280336   -0.589240
    102          1           0       -1.808056   -4.491768   -1.093441
    103          1           0       -0.963233   -3.073084   -1.762773
    104          1           0       -2.889703   -1.633869   -1.648618
    105          1           0       -4.859287   -4.204798    0.987772
    106          1           0       -3.568485   -4.913811    0.093656
    107          1           0       -5.195882   -4.876801   -0.592638
    108          1           0       -6.075866   -2.743694   -1.589028
    109          1           0       -5.027177   -1.222080   -1.713990
    110          1           0       -5.723923   -0.238188    0.063474
    111          1           0       -5.566374   -1.703998    0.915000
    112          1           0       -7.717110   -2.610317    0.491242
    113          1           0       -7.953943   -1.613563   -0.831413
    114          1           0       -8.148438    0.538174    0.641736
    115          1           0       -8.262738   -1.746337    2.577143
    116          1           0       -9.457478   -0.459066    2.931738
    117          1           0       -7.754486   -0.011966    2.873333
    118          1           0      -10.625174   -0.991523    1.259242
    119          1           0      -10.131284   -1.461339   -0.298114
    120          1           0      -11.230265    0.184899   -0.971560
    121          1           0       -9.702816    1.159870   -0.810699
    122          1           0      -10.418597    2.367088    0.890153
    123          1           0      -11.255603    1.140994    1.735351
    124          1           0      -12.226498    2.175388   -0.941613
    125          1           0      -12.185511    3.772885    1.465514
    126          1           0      -13.762526    3.731230    0.603412
    127          1           0      -12.378785    4.255327   -0.252163
    128          1           0      -14.336059    1.656581    1.167934
    129          1           0      -13.243473    0.245237    0.817409
    130          1           0      -14.031611   -0.046842   -1.144159
    131          1           0      -14.461391    1.629916   -1.509512
    132          1           0      -15.894489    0.244527    0.727691
    133          1           0      -16.285832   -0.287331   -0.880367
    134          1           0      -16.208839    2.758304   -0.544070
    135          1           0      -17.190404    0.920787   -2.233757
    136          1           0      -17.876084    2.718875   -2.211689
    137          1           0      -18.648679    1.362268   -1.470975
    138          1           0      -17.270988    2.683282    1.450135
    139          1           0      -17.816818    0.901090    1.291764
    140          1           0      -18.693092    2.270061    0.722271
 ---------------------------------------------------------------------

 SCF Done:  E(RB-LYP) =  -3007.36646710     A.U. after   21 cycles

 Excitation energies and oscillator strengths:

 Excited State   1:      Singlet-A      1.7972 eV  689.88 nm  f=0.3030  <S**2>=0.000
     245 -> 248       -0.19787
     246 -> 247        0.68408
     246 <- 247       -0.13979
 This state for optimization and/or second-order correction.
 Total Energy, E(TD-HF/TD-DFT) =  -3007.30042138
 Copying the excited state density for this state as the 1-particle RhoCI density.

 Excited State   2:      Singlet-A      1.9947 eV  621.56 nm  f=0.0601  <S**2>=0.000
     244 -> 247        0.11177
     245 -> 247        0.63676
     246 -> 248        0.24071
     246 -> 249       -0.10769

 Excited State   3:      Singlet-A      2.0535 eV  603.76 nm  f=0.0020  <S**2>=0.000
     244 -> 247        0.69755

 Excited State   4:      Singlet-A      2.1384 eV  579.79 nm  f=0.0001  <S**2>=0.000
     243 -> 247        0.70451

 Excited State   5:      Singlet-A      2.5547 eV  485.32 nm  f=0.0016  <S**2>=0.000
     242 -> 247        0.67847
     246 -> 248       -0.13564

 The electronic state is 1-A.
 Alpha  occ. eigenvalues --  -46.26775 -18.82233 -18.80384 -18.78226 -18.75758
 Alpha  occ. eigenvalues --  -18.75579 -18.75029 -14.03485 -14.02696 -14.00989
 Alpha  occ. eigenvalues --  -14.00860 -10.04978 -10.03447  -9.99960  -9.99799
 Alpha  occ. eigenvalues --   -9.97730  -9.96943  -9.96600  -9.96445  -9.96156
 Alpha  occ. eigenvalues --   -9.95909  -9.95899  -9.95789  -9.95431  -9.94275
 Alpha  occ. eigenvalues --   -9.94102  -9.94037  -9.93951  -9.93832  -9.93687
 Alpha  occ. eigenvalues --   -9.93675  -9.93670  -9.93656  -9.93303  -9.93147
 Alpha  occ. eigenvalues --   -9.93022  -9.92937  -9.92873  -9.92803  -9.92801
 Alpha  occ. eigenvalues --   -9.92688  -9.92534  -9.92369  -9.92349  -9.92254
 Alpha  occ. eigenvalues --   -9.92246  -9.92084  -9.92042  -9.91816  -9.91794
 Alpha  occ. eigenvalues --   -9.91718  -9.91593  -9.91520  -9.91511  -9.91310
 Alpha  occ. eigenvalues --   -9.91220  -9.91103  -9.91084  -9.90930  -9.90845
 Alpha  occ. eigenvalues --   -9.90790  -9.90669  -9.90663  -9.90654  -9.90447
 Alpha  occ. eigenvalues --   -9.90417  -2.91453  -1.71871  -1.71326  -1.71182
 Alpha  occ. eigenvalues --   -0.97549  -0.94595  -0.90319  -0.90260  -0.89955
 Alpha  occ. eigenvalues --   -0.87449  -0.86787  -0.85651  -0.84701  -0.83641
 Alpha  occ. eigenvalues --   -0.76025  -0.73846  -0.73609  -0.73179  -0.72152
 Alpha  occ. eigenvalues --   -0.71919  -0.71667  -0.70928  -0.70797  -0.70474
 Alpha  occ. eigenvalues --   -0.69914  -0.69040  -0.68283  -0.67234  -0.67036
 Alpha  occ. eigenvalues --   -0.66644  -0.66098  -0.65326  -0.64575  -0.64099
 Alpha  occ. eigenvalues --   -0.63729  -0.62832  -0.61911  -0.61312  -0.60946
 Alpha  occ. eigenvalues --   -0.60637  -0.60113  -0.59767  -0.59164  -0.58828
 Alpha  occ. eigenvalues --   -0.58191  -0.57258  -0.56371  -0.55889  -0.54145
 Alpha  occ. eigenvalues --   -0.53534  -0.53265  -0.52263  -0.52042  -0.51251
 Alpha  occ. eigenvalues --   -0.51024  -0.50905  -0.50228  -0.50145  -0.49954
 Alpha  occ. eigenvalues --   -0.49690  -0.49300  -0.49282  -0.47776  -0.46692
 Alpha  occ. eigenvalues --   -0.46144  -0.46072  -0.45528  -0.45173  -0.44453
 Alpha  occ. eigenvalues --   -0.44284  -0.43707  -0.43438  -0.42711  -0.42303
 Alpha  occ. eigenvalues --   -0.41924  -0.41831  -0.41660  -0.41513  -0.41052
 Alpha  occ. eigenvalues --   -0.40851  -0.40484  -0.40342  -0.40223  -0.39827
 Alpha  occ. eigenvalues --   -0.39540  -0.39257  -0.39161  -0.39021  -0.38984
 Alpha  occ. eigenvalues --   -0.38701  -0.38660  -0.38416  -0.38378  -0.38071
 Alpha  occ. eigenvalues --   -0.37895  -0.37687  -0.37574  -0.37561  -0.37328
 Alpha  occ. eigenvalues --   -0.37101  -0.36652  -0.36553  -0.36465  -0.36431
 Alpha  occ. eigenvalues --   -0.36212  -0.35832  -0.35569  -0.35410  -0.35354
 Alpha  occ. eigenvalues --   -0.35272  -0.34999  -0.34887  -0.34797  -0.34631
 Alpha  occ. eigenvalues --   -0.34531  -0.34360  -0.34250  -0.34139  -0.33532
 Alpha  occ. eigenvalues --   -0.33457  -0.33347  -0.33300  -0.33138  -0.33002
 Alpha  occ. eigenvalues --   -0.32746  -0.32582  -0.32407  -0.32387  -0.32181
 Alpha  occ. eigenvalues --   -0.32112  -0.32047  -0.31747  -0.31708  -0.31660
 Alpha  occ. eigenvalues --   -0.31412  -0.31015  -0.30970  -0.30855  -0.30682
 Alpha  occ. eigenvalues --   -0.30485  -0.30281  -0.30241  -0.30004  -0.29720
 Alpha  occ. eigenvalues --   -0.29398  -0.29244  -0.29203  -0.28821  -0.28617
 Alpha  occ. eigenvalues --   -0.28493  -0.28300  -0.28225  -0.27638  -0.27228
 Alpha  occ. eigenvalues --   -0.27185  -0.26679  -0.26633  -0.26507  -0.26179
 Alpha  occ. eigenvalues --   -0.26073  -0.25967  -0.25530  -0.25359  -0.25249
 Alpha  occ. eigenvalues --   -0.25009  -0.24540  -0.23667  -0.23596  -0.23247
 Alpha  occ. eigenvalues --   -0.23203  -0.22921  -0.21521  -0.21253  -0.21176
 Alpha  occ. eigenvalues --   -0.20641  -0.19868  -0.18736  -0.18492  -0.16814
 Alpha  occ. eigenvalues --   -0.15392
 Alpha virt. eigenvalues --   -0.11028  -0.06816  -0.06334  -0.04647  -0.04417
 Alpha virt. eigenvalues --   -0.02782  -0.02523  -0.02252  -0.01177   0.00335
 Alpha virt. eigenvalues --    0.01727   0.02018   0.02404   0.02628   0.02751

 Mulliken charges:
               1
     1  Mg   0.701542
     2  C   -0.117517
     3  C   -0.034666
     4  C   -0.016289
     5  C   -0.083207
     6  N   -0.247841
     7  C   -0.067211
     8  C    0.025867
     9  C   -0.005459
    10  C   -0.017629
    11  C    0.151693
    12  C    0.096502
    13  C    0.206108
    14  C    0.071044
    15  O   -0.190574
    16  O   -0.303945
    17  N   -0.296946
    18  C    0.164029
    19  C   -0.134356
    20  C    0.002946
    21  C    0.069363
    22  C    0.155490
    23  C   -0.048965
    24  O   -0.184276
    25  C    0.157362
    26  N   -0.180488
    27  C   -0.003024
    28  C   -0.046862
    29  C    0.059293
    30  C    0.042966
    31  C    0.158329
    32  C    0.104597
    33  C    0.037601
    34  N   -0.221276
    35  C    0.111404
    36  C   -0.211235
    37  C    0.098172
    38  C    0.138670
    39  C    0.194542
    40  C   -0.064297
    41  O   -0.146617
    42  C    0.134987
    43  C    0.151218
    44  O   -0.215510
    45  O   -0.288631
    46  C    0.226675
    47  C    0.308000
    48  C   -0.099506
    49  C   -0.143013
    50  C    0.119188
    51  C    0.162252
    52  C    0.104019
    53  C    0.067551
    54  C   -0.044738
    55  C    0.101210
    56  C    0.090370
    57  C    0.021236
    58  C    0.106312
    59  C   -0.077816
    60  C    0.105484
    61  C    0.121685
    62  C    0.066683
    63  C    0.104961
    64  C   -0.126963
    65  C    0.143811
    66  C    0.103179
    67  H   -0.066908
    68  H   -0.038758
    69  H   -0.076343
    70  H    0.024762
    71  H   -0.027447
    72  H   -0.007136
    73  H   -0.007832
    74  H   -0.006798
    75  H   -0.037523
    76  H   -0.024578
    77  H   -0.017560
    78  H   -0.010591
    79  H    0.015182
    80  H   -0.000635
    81  H   -0.024002
    82  H    0.002863
    83  H   -0.000816
    84  H   -0.014212
    85  H   -0.019529
    86  H   -0.033297
    87  H   -0.013619
    88  H    0.012415
    89  H   -0.011421
    90  H   -0.013079
    91  H   -0.024115
    92  H   -0.015098
    93  H   -0.006392
    94  H   -0.024630
    95  H   -0.010902
    96  H    0.005717
    97  H    0.010296
    98  H    0.010349
    99  H    0.014839
   100  H    0.014483
   101  H    0.023071
   102  H    0.001975
   103  H   -0.014136
   104  H   -0.036931
   105  H   -0.004647
   106  H   -0.008037
   107  H   -0.002379
   108  H   -0.015719
   109  H   -0.034902
   110  H   -0.032665
   111  H   -0.036369
   112  H   -0.027156
   113  H   -0.031862
   114  H   -0.028595
   115  H   -0.014664
   116  H   -0.005139
   117  H   -0.017969
   118  H   -0.033406
   119  H   -0.049316
   120  H   -0.019822
   121  H   -0.015437
   122  H   -0.050145
   123  H   -0.032413
   124  H   -0.037651
   125  H   -0.015694
   126  H   -0.030667
   127  H   -0.023839
   128  H   -0.024986
   129  H   -0.035981
   130  H   -0.044425
   131  H   -0.024031
   132  H   -0.033573
   133  H   -0.040425
   134  H   -0.025693
   135  H   -0.024036
   136  H   -0.005486
   137  H   -0.032693
   138  H   -0.018566
   139  H   -0.003008
   140  H   -0.037755
 Sum of Mulliken charges =  -0.00000

 Dipole moment (field-independent basis, Debye):
    X=             -4.4815    Y=              1.1495    Z=              2.7301  Tot=              5.3720
 Quadrupole moment (field-independent basis, Debye-Ang):
   XX=           -385.4717   YY=           -431.4901   ZZ=           -406.5726
   XY=             13.3122   XZ=             12.4579   YZ=             -3.3254

 Normal termination of Gaussian 16 at Wed May  4 13:23:29 2022.
