 Gaussian 16, Revision A.03,
 Gaussian 16:  ES64L-G16RevA.03 25-Dec-2016

 -----------------------------------
 #p cam-b3lyp/Def2SVP td=(nstates=5)
 -----------------------------------

 -------------------------------------------------------
 step_1701_chromophore_6 TDDFT with cam-b3lyp functional
 -------------------------------------------------------
 Symbolic Z-matrix:
 Charge =  0 Multiplicity = 1

                         Standard orientation:
 ---------------------------------------------------------------------
 Center     Atomic      Atomic             Coordinates (Angstroms)
 Number     Number       Type             X           Y           Z
 ---------------------------------------------------------------------
      1         12           0        5.479977    1.042822    0.181226
      2          6           0        4.603460   -2.337124    0.303444
      3          6           0        2.256170    1.996565   -0.162451
      4          6           0        6.624880    4.309160   -0.145989
      5          6           0        8.783162   -0.056843   -0.064170
      6          7           0        3.686276   -0.079180   -0.078704
      7          6           0        3.475487   -1.395861    0.234927
      8          6           0        1.994032   -1.778920    0.359067
      9          6           0        1.273472   -0.410918   -0.056266
     10          6           0        2.451917    0.581363   -0.191048
     11          6           0        0.492193   -0.449114   -1.316348
     12          6           0        1.674229   -2.370076    1.731548
     13          6           0        0.651303   -3.522954    1.865824
     14          6           0       -0.017199   -3.938852    0.574242
     15          8           0        0.373491   -4.814313   -0.194118
     16          8           0       -1.097867   -3.079266    0.265045
     17          7           0        4.544322    2.924878   -0.013572
     18          6           0        3.152242    3.066163    0.019880
     19          6           0        2.884882    4.491271    0.103917
     20          6           0        4.130619    5.224249    0.033628
     21          6           0        5.183791    4.127301   -0.036356
     22          6           0        1.514073    5.013347    0.147384
     23          6           0        4.483839    6.733726   -0.051107
     24          8           0        5.653417    7.145301   -0.120713
     25          6           0        3.424894    7.724156   -0.082066
     26          7           0        7.442710    1.970372   -0.215214
     27          6           0        7.634285    3.315883   -0.223643
     28          6           0        9.134901    3.726288   -0.511108
     29          6           0        9.793449    2.306514   -0.213271
     30          6           0        8.625748    1.330048   -0.214442
     31          6           0        9.347870    4.243789   -1.940569
     32          6           0       10.437080    2.295156    1.138110
     33          6           0       11.805328    1.565785    1.232161
     34          7           0        6.440816   -0.741999    0.155032
     35          6           0        7.777640   -1.049656    0.167811
     36          6           0        8.036367   -2.494822    0.244858
     37          6           0        6.755906   -3.039034    0.278666
     38          6           0        5.876299   -1.931068    0.254353
     39          6           0        9.289131   -3.238757    0.224627
     40          6           0        5.972868   -4.271702    0.271081
     41          8           0        6.336513   -5.467343    0.242963
     42          6           0        4.494541   -3.858902    0.376361
     43          6           0        3.667495   -4.466185   -0.681452
     44          8           0        3.366738   -3.991709   -1.804506
     45          8           0        3.385906   -5.763308   -0.311973
     46          6           0        2.581565   -6.745918   -1.137970
     47          6           0       -1.696357   -3.409787   -1.029028
     48          6           0       -3.001421   -2.600366   -1.157570
     49          6           0       -4.224917   -2.906354   -0.696136
     50          6           0       -4.464662   -4.304351   -0.023016
     51          6           0       -5.429545   -2.020695   -1.091072
     52          6           0       -6.063639   -1.274159    0.046200
     53          6           0       -7.567952   -1.574467    0.187067
     54          6           0       -8.453397   -0.477150    0.895576
     55          6           0       -8.502063   -0.688935    2.461252
     56          6           0       -9.962436   -0.686939    0.449985
     57          6           0      -10.476204    0.589513   -0.295188
     58          6           0      -11.158348    1.580073    0.742873
     59          6           0      -12.427597    2.080556    0.125746
     60          6           0      -12.689375    3.556871    0.524440
     61          6           0      -13.665714    1.181570    0.451883
     62          6           0      -14.496089    0.854014   -0.744373
     63          6           0      -15.902106    0.561020   -0.315072
     64          6           0      -16.804912    1.848628   -0.467429
     65          6           0      -17.668797    1.762287   -1.732718
     66          6           0      -17.681023    1.881066    0.835866
     67          1           0        1.183449    2.199396   -0.128091
     68          1           0        6.991665    5.327708   -0.290275
     69          1           0        9.798992   -0.456221   -0.018898
     70          1           0        1.664998   -2.490829   -0.398886
     71          1           0        0.699328   -0.009832    0.778536
     72          1           0        0.510197   -1.430559   -1.790316
     73          1           0        0.937478    0.221100   -2.050859
     74          1           0       -0.564108   -0.220459   -1.173040
     75          1           0        1.344688   -1.555036    2.376017
     76          1           0        2.574858   -2.658903    2.273957
     77          1           0       -0.082332   -3.237601    2.619040
     78          1           0        1.143682   -4.359955    2.361883
     79          1           0        1.259292    5.627872   -0.715981
     80          1           0        1.447824    5.612869    1.055306
     81          1           0        0.752351    4.234456    0.190187
     82          1           0        3.785570    8.711586   -0.367898
     83          1           0        3.128169    7.736784    0.966743
     84          1           0        2.469796    7.451688   -0.530582
     85          1           0        9.490939    4.480405    0.191935
     86          1           0       10.525925    2.148523   -1.004376
     87          1           0        9.900617    5.164905   -1.760031
     88          1           0        8.380823    4.445038   -2.401138
     89          1           0       10.041724    3.593381   -2.472692
     90          1           0        9.823891    1.824433    1.906640
     91          1           0       10.697418    3.271595    1.546066
     92          1           0       12.672539    2.186495    1.008031
     93          1           0       11.946299    0.605061    0.736200
     94          1           0       11.970973    1.377612    2.291946
     95          1           0       10.081621   -2.510646    0.393305
     96          1           0        9.404855   -3.651391   -0.776987
     97          1           0        9.279797   -4.144489    0.831656
     98          1           0        4.144118   -4.082934    1.383519
     99          1           0        3.267016   -7.434931   -1.632093
    100          1           0        2.074961   -6.229167   -1.953589
    101          1           0        1.805184   -7.280336   -0.589240
    102          1           0       -1.808056   -4.491768   -1.093441
    103          1           0       -0.963233   -3.073084   -1.762773
    104          1           0       -2.889703   -1.633869   -1.648618
    105          1           0       -4.859287   -4.204798    0.987772
    106          1           0       -3.568485   -4.913811    0.093656
    107          1           0       -5.195882   -4.876801   -0.592638
    108          1           0       -6.075866   -2.743694   -1.589028
    109          1           0       -5.027177   -1.222080   -1.713990
    110          1           0       -5.723923   -0.238188    0.063474
    111          1           0       -5.566374   -1.703998    0.915000
    112          1           0       -7.717110   -2.610317    0.491242
    113          1           0       -7.953943   -1.613563   -0.831413
    114          1           0       -8.148438    0.538174    0.641736
    115          1           0       -8.262738   -1.746337    2.577143
    116          1           0       -9.457478   -0.459066    2.931738
    117          1           0       -7.754486   -0.011966    2.873333
    118          1           0      -10.625174   -0.991523    1.259242
    119          1           0      -10.131284   -1.461339   -0.298114
    120          1           0      -11.230265    0.184899   -0.971560
    121          1           0       -9.702816    1.159870   -0.810699
    122          1           0      -10.418597    2.367088    0.890153
    123          1           0      -11.255603    1.140994    1.735351
    124          1           0      -12.226498    2.175388   -0.941613
    125          1           0      -12.185511    3.772885    1.465514
    126          1           0      -13.762526    3.731230    0.603412
    127          1           0      -12.378785    4.255327   -0.252163
    128          1           0      -14.336059    1.656581    1.167934
    129          1           0      -13.243473    0.245237    0.817409
    130          1           0      -14.031611   -0.046842   -1.144159
    131          1           0      -14.461391    1.629916   -1.509512
    132          1           0      -15.894489    0.244527    0.727691
    133          1           0      -16.285832   -0.287331   -0.880367
    134          1           0      -16.208839    2.758304   -0.544070
    135          1           0      -17.190404    0.920787   -2.233757
    136          1           0      -17.876084    2.718875   -2.211689
    137          1           0      -18.648679    1.362268   -1.470975
    138          1           0      -17.270988    2.683282    1.450135
    139          1           0      -17.816818    0.901090    1.291764
    140          1           0      -18.693092    2.270061    0.722271
 ---------------------------------------------------------------------

 SCF Done:  E(RCAM-B3LYP) =  -3007.15510568     A.U. after   17 cycles

 Excitation energies and oscillator strengths:

 Excited State   1:      Singlet-A      1.7297 eV  716.81 nm  f=0.3741  <S**2>=0.000
     245 -> 248       -0.19139
     246 -> 247        0.68128
     245 <- 248       -0.10864
 This state for optimization and/or second-order correction.
 Total Energy, E(TD-HF/TD-DFT) =  -3007.09154167
 Copying the excited state density for this state as the 1-particle RhoCI density.

 Excited State   2:      Singlet-A      2.2373 eV  554.16 nm  f=0.0796  <S**2>=0.000
     245 -> 247        0.62189
     246 -> 248        0.32653

 Excited State   3:      Singlet-A      3.4299 eV  361.48 nm  f=0.4840  <S**2>=0.000
     239 -> 247       -0.23252
     239 -> 249        0.15756
     244 -> 247       -0.24065
     245 -> 247       -0.25668
     246 -> 248        0.51522

 Excited State   4:      Singlet-A      3.4563 eV  358.72 nm  f=0.1078  <S**2>=0.000
     239 -> 247        0.45120
     239 -> 249       -0.30759
     239 -> 250        0.13319
     240 -> 247        0.16536
     240 -> 249       -0.11205
     244 -> 247       -0.15731
     245 -> 247       -0.12698
     246 -> 248        0.25002

 Excited State   5:      Singlet-A      3.5481 eV  349.44 nm  f=0.2587  <S**2>=0.000
     242 -> 247       -0.10177
     243 -> 247        0.10373
     244 -> 247        0.60391
     245 -> 247       -0.14952
     246 -> 248        0.22683

 The electronic state is 1-A.
 Alpha  occ. eigenvalues --  -46.88277 -19.25166 -19.23399 -19.21405 -19.19371
 Alpha  occ. eigenvalues --  -19.18820 -19.17911 -14.42549 -14.41365 -14.39573
 Alpha  occ. eigenvalues --  -14.39143 -10.40517 -10.39214 -10.35700 -10.34780
 Alpha  occ. eigenvalues --  -10.31888 -10.31779 -10.30747 -10.30745 -10.30638
 Alpha  occ. eigenvalues --  -10.30607 -10.30062 -10.30001 -10.29221 -10.28686
 Alpha  occ. eigenvalues --  -10.28554 -10.28361 -10.28226 -10.28165 -10.28013
 Alpha  occ. eigenvalues --  -10.27987 -10.27899 -10.27589 -10.27442 -10.27336
 Alpha  occ. eigenvalues --  -10.27008 -10.26902 -10.26836 -10.26651 -10.26606
 Alpha  occ. eigenvalues --  -10.26416 -10.26325 -10.26278 -10.26244 -10.26029
 Alpha  occ. eigenvalues --  -10.25971 -10.25938 -10.25746 -10.25624 -10.25607
 Alpha  occ. eigenvalues --  -10.25570 -10.25342 -10.25164 -10.25164 -10.25016
 Alpha  occ. eigenvalues --  -10.25012 -10.24912 -10.24698 -10.24642 -10.24487
 Alpha  occ. eigenvalues --  -10.24423 -10.24331 -10.24257 -10.24222 -10.24016
 Alpha  occ. eigenvalues --  -10.24005  -3.16861  -1.91755  -1.91304  -1.91186
 Alpha  occ. eigenvalues --   -1.16095  -1.13198  -1.08653  -1.08400  -1.08178
 Alpha  occ. eigenvalues --   -1.05420  -1.04758  -1.03220  -1.02338  -1.00842
 Alpha  occ. eigenvalues --   -0.93461  -0.90715  -0.90456  -0.90033  -0.88860
 Alpha  occ. eigenvalues --   -0.88612  -0.88455  -0.87517  -0.87354  -0.86976
 Alpha  occ. eigenvalues --   -0.86362  -0.85396  -0.84542  -0.83515  -0.83163
 Alpha  occ. eigenvalues --   -0.82792  -0.82126  -0.81290  -0.80442  -0.79849
 Alpha  occ. eigenvalues --   -0.79543  -0.78591  -0.77442  -0.76757  -0.76331
 Alpha  occ. eigenvalues --   -0.76114  -0.75465  -0.75010  -0.74431  -0.74045
 Alpha  occ. eigenvalues --   -0.73271  -0.72360  -0.71206  -0.70760  -0.68831
 Alpha  occ. eigenvalues --   -0.68058  -0.67764  -0.66605  -0.66384  -0.65444
 Alpha  occ. eigenvalues --   -0.65213  -0.64944  -0.64174  -0.64160  -0.63918
 Alpha  occ. eigenvalues --   -0.63683  -0.63268  -0.63141  -0.61579  -0.60430
 Alpha  occ. eigenvalues --   -0.59779  -0.59669  -0.58843  -0.58635  -0.57930
 Alpha  occ. eigenvalues --   -0.57823  -0.57106  -0.56714  -0.55683  -0.55423
 Alpha  occ. eigenvalues --   -0.55246  -0.54743  -0.54616  -0.54330  -0.53821
 Alpha  occ. eigenvalues --   -0.53681  -0.53279  -0.53145  -0.52853  -0.52404
 Alpha  occ. eigenvalues --   -0.52330  -0.52117  -0.51964  -0.51589  -0.51387
 Alpha  occ. eigenvalues --   -0.51325  -0.51275  -0.51069  -0.50993  -0.50650
 Alpha  occ. eigenvalues --   -0.50233  -0.50168  -0.49922  -0.49766  -0.49454
 Alpha  occ. eigenvalues --   -0.49182  -0.49092  -0.48947  -0.48657  -0.48470
 Alpha  occ. eigenvalues --   -0.48383  -0.48168  -0.48072  -0.47690  -0.47448
 Alpha  occ. eigenvalues --   -0.47337  -0.47215  -0.46842  -0.46614  -0.46568
 Alpha  occ. eigenvalues --   -0.46539  -0.46508  -0.46079  -0.45865  -0.45231
 Alpha  occ. eigenvalues --   -0.45168  -0.45074  -0.45015  -0.44991  -0.44664
 Alpha  occ. eigenvalues --   -0.44565  -0.44462  -0.44322  -0.43942  -0.43865
 Alpha  occ. eigenvalues --   -0.43679  -0.43580  -0.43465  -0.43326  -0.43203
 Alpha  occ. eigenvalues --   -0.42969  -0.42828  -0.42479  -0.42262  -0.42163
 Alpha  occ. eigenvalues --   -0.41834  -0.41741  -0.41409  -0.41203  -0.40902
 Alpha  occ. eigenvalues --   -0.40478  -0.40373  -0.40181  -0.40034  -0.39817
 Alpha  occ. eigenvalues --   -0.39555  -0.39430  -0.39312  -0.39187  -0.38752
 Alpha  occ. eigenvalues --   -0.37987  -0.37615  -0.37423  -0.37280  -0.37234
 Alpha  occ. eigenvalues --   -0.37030  -0.36925  -0.36487  -0.36116  -0.35973
 Alpha  occ. eigenvalues --   -0.35627  -0.35572  -0.35049  -0.34843  -0.33985
 Alpha  occ. eigenvalues --   -0.33347  -0.33319  -0.32921  -0.31194  -0.31146
 Alpha  occ. eigenvalues --   -0.30870  -0.30670  -0.30369  -0.28898  -0.23505
 Alpha  occ. eigenvalues --   -0.20608
 Alpha virt. eigenvalues --   -0.07957  -0.01713   0.00017   0.02215   0.02761
 Alpha virt. eigenvalues --    0.03306   0.04657   0.04915   0.06088   0.07158
 Alpha virt. eigenvalues --    0.08163   0.08635   0.08862   0.08952   0.09275

 Mulliken charges:
               1
     1  Mg   0.834456
     2  C   -0.134268
     3  C   -0.043265
     4  C   -0.035675
     5  C   -0.095158
     6  N   -0.314321
     7  C   -0.016007
     8  C   -0.033504
     9  C   -0.052638
    10  C   -0.003334
    11  C    0.090975
    12  C    0.044928
    13  C    0.136515
    14  C    0.143025
    15  O   -0.230895
    16  O   -0.363421
    17  N   -0.382032
    18  C    0.161930
    19  C   -0.139442
    20  C   -0.063944
    21  C    0.094533
    22  C    0.096011
    23  C    0.031154
    24  O   -0.229126
    25  C    0.070571
    26  N   -0.253795
    27  C    0.011597
    28  C   -0.087103
    29  C   -0.005232
    30  C    0.065767
    31  C    0.097948
    32  C    0.045723
    33  C   -0.020059
    34  N   -0.313542
    35  C    0.122146
    36  C   -0.204774
    37  C    0.023713
    38  C    0.164550
    39  C    0.139184
    40  C    0.042446
    41  O   -0.180685
    42  C    0.055533
    43  C    0.238210
    44  O   -0.252039
    45  O   -0.354448
    46  C    0.194017
    47  C    0.271209
    48  C   -0.119776
    49  C   -0.161831
    50  C    0.064955
    51  C    0.097086
    52  C    0.049063
    53  C    0.015707
    54  C   -0.099027
    55  C    0.046617
    56  C    0.037511
    57  C   -0.029512
    58  C    0.052788
    59  C   -0.138150
    60  C    0.052011
    61  C    0.068964
    62  C    0.014505
    63  C    0.043157
    64  C   -0.182493
    65  C    0.082624
    66  C    0.041109
    67  H   -0.033144
    68  H    0.001071
    69  H   -0.043391
    70  H    0.053789
    71  H    0.007611
    72  H    0.013719
    73  H    0.021059
    74  H    0.015985
    75  H   -0.003297
    76  H    0.006503
    77  H    0.019425
    78  H    0.023188
    79  H    0.038436
    80  H    0.023983
    81  H    0.003433
    82  H    0.037033
    83  H    0.025954
    84  H    0.015485
    85  H    0.015127
    86  H    0.003333
    87  H    0.010376
    88  H    0.038223
    89  H    0.011955
    90  H    0.016841
    91  H    0.005999
    92  H    0.009045
    93  H    0.013428
    94  H    0.000755
    95  H    0.013304
    96  H    0.035515
    97  H    0.039481
    98  H    0.052110
    99  H    0.036891
   100  H    0.039947
   101  H    0.044744
   102  H    0.031407
   103  H    0.014074
   104  H   -0.007450
   105  H    0.018066
   106  H    0.015467
   107  H    0.020600
   108  H    0.013226
   109  H   -0.001795
   110  H   -0.002527
   111  H   -0.007586
   112  H   -0.000269
   113  H   -0.003930
   114  H    0.000994
   115  H    0.008150
   116  H    0.016210
   117  H    0.005997
   118  H   -0.005848
   119  H   -0.018891
   120  H    0.005328
   121  H    0.011801
   122  H   -0.018623
   123  H   -0.005758
   124  H   -0.004069
   125  H    0.008087
   126  H   -0.008370
   127  H    0.000920
   128  H    0.001635
   129  H   -0.008228
   130  H   -0.014584
   131  H    0.002592
   132  H   -0.003354
   133  H   -0.009847
   134  H    0.003707
   135  H    0.000097
   136  H    0.019134
   137  H   -0.007493
   138  H    0.005479
   139  H    0.020233
   140  H   -0.011240
 Sum of Mulliken charges =  -0.00000

 Dipole moment (field-independent basis, Debye):
    X=             -4.5457    Y=              0.6282    Z=              3.0005  Tot=              5.4828
 Quadrupole moment (field-independent basis, Debye-Ang):
   XX=           -382.2677   YY=           -428.7660   ZZ=           -406.5944
   XY=             10.0713   XZ=             13.4229   YZ=             -3.7171

 Normal termination of Gaussian 16 at Wed May  4 12:21:47 2022.
