 Gaussian 16, Revision A.03,
 Gaussian 16:  ES64L-G16RevA.03 25-Dec-2016

 ---------------------------------
 #p PBE1PBE/Def2SVP td=(nstates=5)
 ---------------------------------

 -----------------------------------------------------
 step_1701_chromophore_6 TDDFT with PBE1PBE functional
 -----------------------------------------------------
 Symbolic Z-matrix:
 Charge =  0 Multiplicity = 1

                         Standard orientation:
 ---------------------------------------------------------------------
 Center     Atomic      Atomic             Coordinates (Angstroms)
 Number     Number       Type             X           Y           Z
 ---------------------------------------------------------------------
      1         12           0        5.479977    1.042822    0.181226
      2          6           0        4.603460   -2.337124    0.303444
      3          6           0        2.256170    1.996565   -0.162451
      4          6           0        6.624880    4.309160   -0.145989
      5          6           0        8.783162   -0.056843   -0.064170
      6          7           0        3.686276   -0.079180   -0.078704
      7          6           0        3.475487   -1.395861    0.234927
      8          6           0        1.994032   -1.778920    0.359067
      9          6           0        1.273472   -0.410918   -0.056266
     10          6           0        2.451917    0.581363   -0.191048
     11          6           0        0.492193   -0.449114   -1.316348
     12          6           0        1.674229   -2.370076    1.731548
     13          6           0        0.651303   -3.522954    1.865824
     14          6           0       -0.017199   -3.938852    0.574242
     15          8           0        0.373491   -4.814313   -0.194118
     16          8           0       -1.097867   -3.079266    0.265045
     17          7           0        4.544322    2.924878   -0.013572
     18          6           0        3.152242    3.066163    0.019880
     19          6           0        2.884882    4.491271    0.103917
     20          6           0        4.130619    5.224249    0.033628
     21          6           0        5.183791    4.127301   -0.036356
     22          6           0        1.514073    5.013347    0.147384
     23          6           0        4.483839    6.733726   -0.051107
     24          8           0        5.653417    7.145301   -0.120713
     25          6           0        3.424894    7.724156   -0.082066
     26          7           0        7.442710    1.970372   -0.215214
     27          6           0        7.634285    3.315883   -0.223643
     28          6           0        9.134901    3.726288   -0.511108
     29          6           0        9.793449    2.306514   -0.213271
     30          6           0        8.625748    1.330048   -0.214442
     31          6           0        9.347870    4.243789   -1.940569
     32          6           0       10.437080    2.295156    1.138110
     33          6           0       11.805328    1.565785    1.232161
     34          7           0        6.440816   -0.741999    0.155032
     35          6           0        7.777640   -1.049656    0.167811
     36          6           0        8.036367   -2.494822    0.244858
     37          6           0        6.755906   -3.039034    0.278666
     38          6           0        5.876299   -1.931068    0.254353
     39          6           0        9.289131   -3.238757    0.224627
     40          6           0        5.972868   -4.271702    0.271081
     41          8           0        6.336513   -5.467343    0.242963
     42          6           0        4.494541   -3.858902    0.376361
     43          6           0        3.667495   -4.466185   -0.681452
     44          8           0        3.366738   -3.991709   -1.804506
     45          8           0        3.385906   -5.763308   -0.311973
     46          6           0        2.581565   -6.745918   -1.137970
     47          6           0       -1.696357   -3.409787   -1.029028
     48          6           0       -3.001421   -2.600366   -1.157570
     49          6           0       -4.224917   -2.906354   -0.696136
     50          6           0       -4.464662   -4.304351   -0.023016
     51          6           0       -5.429545   -2.020695   -1.091072
     52          6           0       -6.063639   -1.274159    0.046200
     53          6           0       -7.567952   -1.574467    0.187067
     54          6           0       -8.453397   -0.477150    0.895576
     55          6           0       -8.502063   -0.688935    2.461252
     56          6           0       -9.962436   -0.686939    0.449985
     57          6           0      -10.476204    0.589513   -0.295188
     58          6           0      -11.158348    1.580073    0.742873
     59          6           0      -12.427597    2.080556    0.125746
     60          6           0      -12.689375    3.556871    0.524440
     61          6           0      -13.665714    1.181570    0.451883
     62          6           0      -14.496089    0.854014   -0.744373
     63          6           0      -15.902106    0.561020   -0.315072
     64          6           0      -16.804912    1.848628   -0.467429
     65          6           0      -17.668797    1.762287   -1.732718
     66          6           0      -17.681023    1.881066    0.835866
     67          1           0        1.183449    2.199396   -0.128091
     68          1           0        6.991665    5.327708   -0.290275
     69          1           0        9.798992   -0.456221   -0.018898
     70          1           0        1.664998   -2.490829   -0.398886
     71          1           0        0.699328   -0.009832    0.778536
     72          1           0        0.510197   -1.430559   -1.790316
     73          1           0        0.937478    0.221100   -2.050859
     74          1           0       -0.564108   -0.220459   -1.173040
     75          1           0        1.344688   -1.555036    2.376017
     76          1           0        2.574858   -2.658903    2.273957
     77          1           0       -0.082332   -3.237601    2.619040
     78          1           0        1.143682   -4.359955    2.361883
     79          1           0        1.259292    5.627872   -0.715981
     80          1           0        1.447824    5.612869    1.055306
     81          1           0        0.752351    4.234456    0.190187
     82          1           0        3.785570    8.711586   -0.367898
     83          1           0        3.128169    7.736784    0.966743
     84          1           0        2.469796    7.451688   -0.530582
     85          1           0        9.490939    4.480405    0.191935
     86          1           0       10.525925    2.148523   -1.004376
     87          1           0        9.900617    5.164905   -1.760031
     88          1           0        8.380823    4.445038   -2.401138
     89          1           0       10.041724    3.593381   -2.472692
     90          1           0        9.823891    1.824433    1.906640
     91          1           0       10.697418    3.271595    1.546066
     92          1           0       12.672539    2.186495    1.008031
     93          1           0       11.946299    0.605061    0.736200
     94          1           0       11.970973    1.377612    2.291946
     95          1           0       10.081621   -2.510646    0.393305
     96          1           0        9.404855   -3.651391   -0.776987
     97          1           0        9.279797   -4.144489    0.831656
     98          1           0        4.144118   -4.082934    1.383519
     99          1           0        3.267016   -7.434931   -1.632093
    100          1           0        2.074961   -6.229167   -1.953589
    101          1           0        1.805184   -7.280336   -0.589240
    102          1           0       -1.808056   -4.491768   -1.093441
    103          1           0       -0.963233   -3.073084   -1.762773
    104          1           0       -2.889703   -1.633869   -1.648618
    105          1           0       -4.859287   -4.204798    0.987772
    106          1           0       -3.568485   -4.913811    0.093656
    107          1           0       -5.195882   -4.876801   -0.592638
    108          1           0       -6.075866   -2.743694   -1.589028
    109          1           0       -5.027177   -1.222080   -1.713990
    110          1           0       -5.723923   -0.238188    0.063474
    111          1           0       -5.566374   -1.703998    0.915000
    112          1           0       -7.717110   -2.610317    0.491242
    113          1           0       -7.953943   -1.613563   -0.831413
    114          1           0       -8.148438    0.538174    0.641736
    115          1           0       -8.262738   -1.746337    2.577143
    116          1           0       -9.457478   -0.459066    2.931738
    117          1           0       -7.754486   -0.011966    2.873333
    118          1           0      -10.625174   -0.991523    1.259242
    119          1           0      -10.131284   -1.461339   -0.298114
    120          1           0      -11.230265    0.184899   -0.971560
    121          1           0       -9.702816    1.159870   -0.810699
    122          1           0      -10.418597    2.367088    0.890153
    123          1           0      -11.255603    1.140994    1.735351
    124          1           0      -12.226498    2.175388   -0.941613
    125          1           0      -12.185511    3.772885    1.465514
    126          1           0      -13.762526    3.731230    0.603412
    127          1           0      -12.378785    4.255327   -0.252163
    128          1           0      -14.336059    1.656581    1.167934
    129          1           0      -13.243473    0.245237    0.817409
    130          1           0      -14.031611   -0.046842   -1.144159
    131          1           0      -14.461391    1.629916   -1.509512
    132          1           0      -15.894489    0.244527    0.727691
    133          1           0      -16.285832   -0.287331   -0.880367
    134          1           0      -16.208839    2.758304   -0.544070
    135          1           0      -17.190404    0.920787   -2.233757
    136          1           0      -17.876084    2.718875   -2.211689
    137          1           0      -18.648679    1.362268   -1.470975
    138          1           0      -17.270988    2.683282    1.450135
    139          1           0      -17.816818    0.901090    1.291764
    140          1           0      -18.693092    2.270061    0.722271
 ---------------------------------------------------------------------

 SCF Done:  E(RPBE1PBE) =  -3005.34361438     A.U. after   15 cycles

 Excitation energies and oscillator strengths:

 Excited State   1:      Singlet-A      1.8625 eV  665.68 nm  f=0.3674  <S**2>=0.000
     245 -> 248       -0.18538
     246 -> 247        0.68837
 This state for optimization and/or second-order correction.
 Total Energy, E(TD-HF/TD-DFT) =  -3005.27516812
 Copying the excited state density for this state as the 1-particle RhoCI density.

 Excited State   2:      Singlet-A      2.2300 eV  555.97 nm  f=0.0827  <S**2>=0.000
     245 -> 247        0.64001
     246 -> 248        0.28982

 Excited State   3:      Singlet-A      3.0965 eV  400.41 nm  f=0.0024  <S**2>=0.000
     242 -> 247        0.64142
     242 -> 249       -0.22292

 Excited State   4:      Singlet-A      3.1193 eV  397.48 nm  f=0.0056  <S**2>=0.000
     244 -> 247        0.66661
     246 -> 248       -0.18009

 Excited State   5:      Singlet-A      3.2325 eV  383.55 nm  f=0.0026  <S**2>=0.000
     243 -> 247        0.66623
     243 -> 249        0.16010
     243 -> 250        0.13365

 The electronic state is 1-A.
 Alpha  occ. eigenvalues --  -46.91692 -19.25803 -19.23970 -19.21589 -19.19367
 Alpha  occ. eigenvalues --  -19.18954 -19.18343 -14.42006 -14.40945 -14.39096
 Alpha  occ. eigenvalues --  -14.38924 -10.37498 -10.36086 -10.32632 -10.32072
 Alpha  occ. eigenvalues --  -10.29413 -10.29277 -10.28628 -10.28310 -10.28088
 Alpha  occ. eigenvalues --  -10.27982 -10.27910 -10.27904 -10.27267 -10.26131
 Alpha  occ. eigenvalues --  -10.25997 -10.25948 -10.25786 -10.25772 -10.25732
 Alpha  occ. eigenvalues --  -10.25609 -10.25543 -10.25431 -10.25107 -10.25011
 Alpha  occ. eigenvalues --  -10.24905 -10.24888 -10.24705 -10.24352 -10.24081
 Alpha  occ. eigenvalues --  -10.24046 -10.23881 -10.23810 -10.23675 -10.23612
 Alpha  occ. eigenvalues --  -10.23539 -10.23537 -10.23479 -10.23334 -10.23086
 Alpha  occ. eigenvalues --  -10.22976 -10.22878 -10.22669 -10.22613 -10.22609
 Alpha  occ. eigenvalues --  -10.22588 -10.22564 -10.22276 -10.22107 -10.22083
 Alpha  occ. eigenvalues --  -10.21964 -10.21898 -10.21676 -10.21608 -10.21520
 Alpha  occ. eigenvalues --  -10.21401  -3.13854  -1.86689  -1.86216  -1.86102
 Alpha  occ. eigenvalues --   -1.10804  -1.07821  -1.03296  -1.03154  -1.02977
 Alpha  occ. eigenvalues --   -0.99949  -0.99450  -0.97860  -0.96919  -0.95677
 Alpha  occ. eigenvalues --   -0.87687  -0.84838  -0.84566  -0.84195  -0.83114
 Alpha  occ. eigenvalues --   -0.82738  -0.82673  -0.81854  -0.81516  -0.81272
 Alpha  occ. eigenvalues --   -0.80713  -0.79693  -0.78746  -0.77737  -0.77372
 Alpha  occ. eigenvalues --   -0.77039  -0.76428  -0.75554  -0.74656  -0.74156
 Alpha  occ. eigenvalues --   -0.73770  -0.72788  -0.71821  -0.71111  -0.70501
 Alpha  occ. eigenvalues --   -0.70348  -0.69554  -0.69397  -0.68567  -0.68221
 Alpha  occ. eigenvalues --   -0.67568  -0.66756  -0.65650  -0.65082  -0.63225
 Alpha  occ. eigenvalues --   -0.62440  -0.62019  -0.61016  -0.60622  -0.59913
 Alpha  occ. eigenvalues --   -0.59423  -0.59391  -0.58789  -0.58456  -0.58317
 Alpha  occ. eigenvalues --   -0.57821  -0.57625  -0.57431  -0.56068  -0.54798
 Alpha  occ. eigenvalues --   -0.54239  -0.54179  -0.53455  -0.53244  -0.52460
 Alpha  occ. eigenvalues --   -0.52181  -0.51600  -0.51044  -0.50288  -0.49897
 Alpha  occ. eigenvalues --   -0.49769  -0.49330  -0.48996  -0.48879  -0.48297
 Alpha  occ. eigenvalues --   -0.48179  -0.47818  -0.47690  -0.47319  -0.47024
 Alpha  occ. eigenvalues --   -0.46854  -0.46698  -0.46491  -0.46078  -0.45937
 Alpha  occ. eigenvalues --   -0.45878  -0.45679  -0.45566  -0.45473  -0.45257
 Alpha  occ. eigenvalues --   -0.44841  -0.44767  -0.44517  -0.44389  -0.44057
 Alpha  occ. eigenvalues --   -0.43737  -0.43649  -0.43620  -0.43285  -0.43072
 Alpha  occ. eigenvalues --   -0.43047  -0.42799  -0.42640  -0.42301  -0.42090
 Alpha  occ. eigenvalues --   -0.41973  -0.41852  -0.41482  -0.41346  -0.41219
 Alpha  occ. eigenvalues --   -0.41128  -0.41124  -0.40834  -0.40537  -0.40047
 Alpha  occ. eigenvalues --   -0.39887  -0.39835  -0.39787  -0.39714  -0.39293
 Alpha  occ. eigenvalues --   -0.39224  -0.39213  -0.39001  -0.38642  -0.38559
 Alpha  occ. eigenvalues --   -0.38434  -0.38307  -0.38246  -0.38149  -0.38054
 Alpha  occ. eigenvalues --   -0.37709  -0.37518  -0.37326  -0.37205  -0.36894
 Alpha  occ. eigenvalues --   -0.36643  -0.36548  -0.36270  -0.36135  -0.35698
 Alpha  occ. eigenvalues --   -0.35260  -0.35222  -0.34966  -0.34941  -0.34731
 Alpha  occ. eigenvalues --   -0.34250  -0.34193  -0.34146  -0.33943  -0.33662
 Alpha  occ. eigenvalues --   -0.32848  -0.32611  -0.32277  -0.32256  -0.32074
 Alpha  occ. eigenvalues --   -0.31902  -0.31745  -0.31576  -0.31206  -0.30855
 Alpha  occ. eigenvalues --   -0.30453  -0.30358  -0.29944  -0.29683  -0.29262
 Alpha  occ. eigenvalues --   -0.28674  -0.28324  -0.27832  -0.26451  -0.26378
 Alpha  occ. eigenvalues --   -0.26206  -0.25826  -0.25437  -0.24704  -0.20446
 Alpha  occ. eigenvalues --   -0.18263
 Alpha virt. eigenvalues --   -0.10518  -0.05182  -0.04125  -0.02083  -0.01291
 Alpha virt. eigenvalues --   -0.00065   0.00199   0.00475   0.01677   0.03378
 Alpha virt. eigenvalues --    0.04569   0.04943   0.05332   0.05566   0.05702

 Mulliken charges:
               1
     1  Mg   0.983287
     2  C   -0.120813
     3  C   -0.044464
     4  C   -0.028035
     5  C   -0.080698
     6  N   -0.418751
     7  C    0.061828
     8  C   -0.109938
     9  C   -0.130271
    10  C    0.035866
    11  C    0.033671
    12  C    0.003128
    13  C    0.068040
    14  C    0.190923
    15  O   -0.261033
    16  O   -0.387649
    17  N   -0.495855
    18  C    0.190767
    19  C   -0.177629
    20  C   -0.102367
    21  C    0.134731
    22  C    0.038773
    23  C    0.074729
    24  O   -0.265785
    25  C   -0.000193
    26  N   -0.355725
    27  C    0.041293
    28  C   -0.152319
    29  C   -0.091368
    30  C    0.100010
    31  C    0.040309
    32  C   -0.008542
    33  C   -0.090555
    34  N   -0.447291
    35  C    0.135680
    36  C   -0.223252
    37  C   -0.009511
    38  C    0.183861
    39  C    0.083118
    40  C    0.140530
    41  O   -0.227738
    42  C   -0.056793
    43  C    0.322039
    44  O   -0.286969
    45  O   -0.386051
    46  C    0.142636
    47  C    0.223385
    48  C   -0.130263
    49  C   -0.202380
    50  C    0.006406
    51  C    0.029062
    52  C   -0.009522
    53  C   -0.042134
    54  C   -0.181451
    55  C   -0.013095
    56  C   -0.014729
    57  C   -0.097093
    58  C    0.003927
    59  C   -0.226896
    60  C   -0.007135
    61  C    0.011535
    62  C   -0.047489
    63  C   -0.018061
    64  C   -0.272080
    65  C    0.022582
    66  C   -0.019924
    67  H   -0.000480
    68  H    0.032819
    69  H   -0.007121
    70  H    0.094965
    71  H    0.044174
    72  H    0.042575
    73  H    0.049294
    74  H    0.044582
    75  H    0.028370
    76  H    0.039285
    77  H    0.050830
    78  H    0.054575
    79  H    0.065784
    80  H    0.053307
    81  H    0.032556
    82  H    0.064231
    83  H    0.054594
    84  H    0.042762
    85  H    0.049770
    86  H    0.039605
    87  H    0.038571
    88  H    0.065466
    89  H    0.039983
    90  H    0.049472
    91  H    0.038074
    92  H    0.037325
    93  H    0.039984
    94  H    0.029536
    95  H    0.039548
    96  H    0.063202
    97  H    0.065651
    98  H    0.088716
    99  H    0.058872
   100  H    0.059686
   101  H    0.065072
   102  H    0.057118
   103  H    0.043260
   104  H    0.021525
   105  H    0.045176
   106  H    0.042905
   107  H    0.047351
   108  H    0.045359
   109  H    0.031071
   110  H    0.027951
   111  H    0.029185
   112  H    0.030995
   113  H    0.030995
   114  H    0.036241
   115  H    0.035883
   116  H    0.042838
   117  H    0.034193
   118  H    0.025311
   119  H    0.013305
   120  H    0.039265
   121  H    0.043870
   122  H    0.014983
   123  H    0.026056
   124  H    0.034033
   125  H    0.035469
   126  H    0.020255
   127  H    0.028724
   128  H    0.034964
   129  H    0.026705
   130  H    0.019780
   131  H    0.034555
   132  H    0.029255
   133  H    0.022473
   134  H    0.041003
   135  H    0.028427
   136  H    0.045877
   137  H    0.020972
   138  H    0.033241
   139  H    0.046470
   140  H    0.017058
 Sum of Mulliken charges =  -0.00000

 Dipole moment (field-independent basis, Debye):
    X=             -4.6632    Y=              1.1346    Z=              2.9776  Tot=              5.6479
 Quadrupole moment (field-independent basis, Debye-Ang):
   XX=           -377.4156   YY=           -425.0723   ZZ=           -404.4134
   XY=             13.1712   XZ=             13.2487   YZ=             -3.7760

 Normal termination of Gaussian 16 at Wed May  4 12:41:03 2022.
