 Gaussian 16, Revision A.03,
 Gaussian 16:  ES64L-G16RevA.03 25-Dec-2016

 --------------------------------
 #p wB97XD/Def2SVP td=(nstates=5)
 --------------------------------

 ----------------------------------------------------
 step_1701_chromophore_6 TDDFT with wB97XD functional
 ----------------------------------------------------
 Symbolic Z-matrix:
 Charge =  0 Multiplicity = 1

                         Standard orientation:
 ---------------------------------------------------------------------
 Center     Atomic      Atomic             Coordinates (Angstroms)
 Number     Number       Type             X           Y           Z
 ---------------------------------------------------------------------
      1         12           0        5.479977    1.042822    0.181226
      2          6           0        4.603460   -2.337124    0.303444
      3          6           0        2.256170    1.996565   -0.162451
      4          6           0        6.624880    4.309160   -0.145989
      5          6           0        8.783162   -0.056843   -0.064170
      6          7           0        3.686276   -0.079180   -0.078704
      7          6           0        3.475487   -1.395861    0.234927
      8          6           0        1.994032   -1.778920    0.359067
      9          6           0        1.273472   -0.410918   -0.056266
     10          6           0        2.451917    0.581363   -0.191048
     11          6           0        0.492193   -0.449114   -1.316348
     12          6           0        1.674229   -2.370076    1.731548
     13          6           0        0.651303   -3.522954    1.865824
     14          6           0       -0.017199   -3.938852    0.574242
     15          8           0        0.373491   -4.814313   -0.194118
     16          8           0       -1.097867   -3.079266    0.265045
     17          7           0        4.544322    2.924878   -0.013572
     18          6           0        3.152242    3.066163    0.019880
     19          6           0        2.884882    4.491271    0.103917
     20          6           0        4.130619    5.224249    0.033628
     21          6           0        5.183791    4.127301   -0.036356
     22          6           0        1.514073    5.013347    0.147384
     23          6           0        4.483839    6.733726   -0.051107
     24          8           0        5.653417    7.145301   -0.120713
     25          6           0        3.424894    7.724156   -0.082066
     26          7           0        7.442710    1.970372   -0.215214
     27          6           0        7.634285    3.315883   -0.223643
     28          6           0        9.134901    3.726288   -0.511108
     29          6           0        9.793449    2.306514   -0.213271
     30          6           0        8.625748    1.330048   -0.214442
     31          6           0        9.347870    4.243789   -1.940569
     32          6           0       10.437080    2.295156    1.138110
     33          6           0       11.805328    1.565785    1.232161
     34          7           0        6.440816   -0.741999    0.155032
     35          6           0        7.777640   -1.049656    0.167811
     36          6           0        8.036367   -2.494822    0.244858
     37          6           0        6.755906   -3.039034    0.278666
     38          6           0        5.876299   -1.931068    0.254353
     39          6           0        9.289131   -3.238757    0.224627
     40          6           0        5.972868   -4.271702    0.271081
     41          8           0        6.336513   -5.467343    0.242963
     42          6           0        4.494541   -3.858902    0.376361
     43          6           0        3.667495   -4.466185   -0.681452
     44          8           0        3.366738   -3.991709   -1.804506
     45          8           0        3.385906   -5.763308   -0.311973
     46          6           0        2.581565   -6.745918   -1.137970
     47          6           0       -1.696357   -3.409787   -1.029028
     48          6           0       -3.001421   -2.600366   -1.157570
     49          6           0       -4.224917   -2.906354   -0.696136
     50          6           0       -4.464662   -4.304351   -0.023016
     51          6           0       -5.429545   -2.020695   -1.091072
     52          6           0       -6.063639   -1.274159    0.046200
     53          6           0       -7.567952   -1.574467    0.187067
     54          6           0       -8.453397   -0.477150    0.895576
     55          6           0       -8.502063   -0.688935    2.461252
     56          6           0       -9.962436   -0.686939    0.449985
     57          6           0      -10.476204    0.589513   -0.295188
     58          6           0      -11.158348    1.580073    0.742873
     59          6           0      -12.427597    2.080556    0.125746
     60          6           0      -12.689375    3.556871    0.524440
     61          6           0      -13.665714    1.181570    0.451883
     62          6           0      -14.496089    0.854014   -0.744373
     63          6           0      -15.902106    0.561020   -0.315072
     64          6           0      -16.804912    1.848628   -0.467429
     65          6           0      -17.668797    1.762287   -1.732718
     66          6           0      -17.681023    1.881066    0.835866
     67          1           0        1.183449    2.199396   -0.128091
     68          1           0        6.991665    5.327708   -0.290275
     69          1           0        9.798992   -0.456221   -0.018898
     70          1           0        1.664998   -2.490829   -0.398886
     71          1           0        0.699328   -0.009832    0.778536
     72          1           0        0.510197   -1.430559   -1.790316
     73          1           0        0.937478    0.221100   -2.050859
     74          1           0       -0.564108   -0.220459   -1.173040
     75          1           0        1.344688   -1.555036    2.376017
     76          1           0        2.574858   -2.658903    2.273957
     77          1           0       -0.082332   -3.237601    2.619040
     78          1           0        1.143682   -4.359955    2.361883
     79          1           0        1.259292    5.627872   -0.715981
     80          1           0        1.447824    5.612869    1.055306
     81          1           0        0.752351    4.234456    0.190187
     82          1           0        3.785570    8.711586   -0.367898
     83          1           0        3.128169    7.736784    0.966743
     84          1           0        2.469796    7.451688   -0.530582
     85          1           0        9.490939    4.480405    0.191935
     86          1           0       10.525925    2.148523   -1.004376
     87          1           0        9.900617    5.164905   -1.760031
     88          1           0        8.380823    4.445038   -2.401138
     89          1           0       10.041724    3.593381   -2.472692
     90          1           0        9.823891    1.824433    1.906640
     91          1           0       10.697418    3.271595    1.546066
     92          1           0       12.672539    2.186495    1.008031
     93          1           0       11.946299    0.605061    0.736200
     94          1           0       11.970973    1.377612    2.291946
     95          1           0       10.081621   -2.510646    0.393305
     96          1           0        9.404855   -3.651391   -0.776987
     97          1           0        9.279797   -4.144489    0.831656
     98          1           0        4.144118   -4.082934    1.383519
     99          1           0        3.267016   -7.434931   -1.632093
    100          1           0        2.074961   -6.229167   -1.953589
    101          1           0        1.805184   -7.280336   -0.589240
    102          1           0       -1.808056   -4.491768   -1.093441
    103          1           0       -0.963233   -3.073084   -1.762773
    104          1           0       -2.889703   -1.633869   -1.648618
    105          1           0       -4.859287   -4.204798    0.987772
    106          1           0       -3.568485   -4.913811    0.093656
    107          1           0       -5.195882   -4.876801   -0.592638
    108          1           0       -6.075866   -2.743694   -1.589028
    109          1           0       -5.027177   -1.222080   -1.713990
    110          1           0       -5.723923   -0.238188    0.063474
    111          1           0       -5.566374   -1.703998    0.915000
    112          1           0       -7.717110   -2.610317    0.491242
    113          1           0       -7.953943   -1.613563   -0.831413
    114          1           0       -8.148438    0.538174    0.641736
    115          1           0       -8.262738   -1.746337    2.577143
    116          1           0       -9.457478   -0.459066    2.931738
    117          1           0       -7.754486   -0.011966    2.873333
    118          1           0      -10.625174   -0.991523    1.259242
    119          1           0      -10.131284   -1.461339   -0.298114
    120          1           0      -11.230265    0.184899   -0.971560
    121          1           0       -9.702816    1.159870   -0.810699
    122          1           0      -10.418597    2.367088    0.890153
    123          1           0      -11.255603    1.140994    1.735351
    124          1           0      -12.226498    2.175388   -0.941613
    125          1           0      -12.185511    3.772885    1.465514
    126          1           0      -13.762526    3.731230    0.603412
    127          1           0      -12.378785    4.255327   -0.252163
    128          1           0      -14.336059    1.656581    1.167934
    129          1           0      -13.243473    0.245237    0.817409
    130          1           0      -14.031611   -0.046842   -1.144159
    131          1           0      -14.461391    1.629916   -1.509512
    132          1           0      -15.894489    0.244527    0.727691
    133          1           0      -16.285832   -0.287331   -0.880367
    134          1           0      -16.208839    2.758304   -0.544070
    135          1           0      -17.190404    0.920787   -2.233757
    136          1           0      -17.876084    2.718875   -2.211689
    137          1           0      -18.648679    1.362268   -1.470975
    138          1           0      -17.270988    2.683282    1.450135
    139          1           0      -17.816818    0.901090    1.291764
    140          1           0      -18.693092    2.270061    0.722271
 ---------------------------------------------------------------------

 SCF Done:  E(RwB97XD) =  -3007.85401916     A.U. after   17 cycles

 Excitation energies and oscillator strengths:

 Excited State   1:      Singlet-A      1.6818 eV  737.21 nm  f=0.3713  <S**2>=0.000
     245 -> 248       -0.19629
     246 -> 247        0.67893
     245 <- 248       -0.11744
 This state for optimization and/or second-order correction.
 Total Energy, E(TD-HF/TD-DFT) =  -3007.79221389
 Copying the excited state density for this state as the 1-particle RhoCI density.

 Excited State   2:      Singlet-A      2.1859 eV  567.20 nm  f=0.0773  <S**2>=0.000
     245 -> 247        0.61952
     246 -> 248        0.32914

 Excited State   3:      Singlet-A      3.4426 eV  360.15 nm  f=0.4819  <S**2>=0.000
     239 -> 247       -0.28854
     239 -> 249        0.20683
     244 -> 247       -0.16879
     245 -> 247       -0.25125
     246 -> 248        0.49541

 Excited State   4:      Singlet-A      3.4673 eV  357.58 nm  f=0.2036  <S**2>=0.000
     239 -> 247        0.41189
     239 -> 249       -0.30217
     239 -> 250        0.12766
     241 -> 247       -0.12829
     244 -> 247       -0.13382
     245 -> 247       -0.16881
     246 -> 248        0.32704

 Excited State   5:      Singlet-A      3.5892 eV  345.44 nm  f=0.1787  <S**2>=0.000
     241 -> 247       -0.11371
     242 -> 247       -0.17269
     244 -> 247        0.61020
     245 -> 247       -0.11063
     245 -> 248        0.11571
     246 -> 248        0.15263

 The electronic state is 1-A.
 Alpha  occ. eigenvalues --  -46.94628 -19.30386 -19.28659 -19.26310 -19.24524
 Alpha  occ. eigenvalues --  -19.23815 -19.22889 -14.47167 -14.45925 -14.44222
 Alpha  occ. eigenvalues --  -14.43698 -10.44331 -10.43108 -10.39804 -10.38684
 Alpha  occ. eigenvalues --  -10.35868 -10.35809 -10.34803 -10.34769 -10.34599
 Alpha  occ. eigenvalues --  -10.34538 -10.34050 -10.33997 -10.33168 -10.32774
 Alpha  occ. eigenvalues --  -10.32765 -10.32311 -10.32252 -10.32202 -10.32045
 Alpha  occ. eigenvalues --  -10.31968 -10.31952 -10.31612 -10.31498 -10.31491
 Alpha  occ. eigenvalues --  -10.31037 -10.30945 -10.30879 -10.30618 -10.30496
 Alpha  occ. eigenvalues --  -10.30470 -10.30206 -10.30189 -10.30181 -10.29980
 Alpha  occ. eigenvalues --  -10.29927 -10.29874 -10.29760 -10.29706 -10.29632
 Alpha  occ. eigenvalues --  -10.29371 -10.29253 -10.29006 -10.29002 -10.28945
 Alpha  occ. eigenvalues --  -10.28884 -10.28843 -10.28599 -10.28531 -10.28409
 Alpha  occ. eigenvalues --  -10.28337 -10.28253 -10.28084 -10.28028 -10.27896
 Alpha  occ. eigenvalues --  -10.27820  -3.20639  -1.94225  -1.93753  -1.93635
 Alpha  occ. eigenvalues --   -1.18226  -1.15390  -1.10966  -1.10549  -1.10364
 Alpha  occ. eigenvalues --   -1.07534  -1.06980  -1.05208  -1.04333  -1.02815
 Alpha  occ. eigenvalues --   -0.95521  -0.92507  -0.92224  -0.91869  -0.90776
 Alpha  occ. eigenvalues --   -0.90400  -0.90364  -0.89423  -0.89153  -0.88856
 Alpha  occ. eigenvalues --   -0.88256  -0.87279  -0.86380  -0.85447  -0.84999
 Alpha  occ. eigenvalues --   -0.84661  -0.84013  -0.83218  -0.82324  -0.81755
 Alpha  occ. eigenvalues --   -0.81483  -0.80511  -0.79353  -0.78667  -0.78187
 Alpha  occ. eigenvalues --   -0.78048  -0.77245  -0.76951  -0.76244  -0.75878
 Alpha  occ. eigenvalues --   -0.75180  -0.74379  -0.73161  -0.72702  -0.70833
 Alpha  occ. eigenvalues --   -0.69976  -0.69651  -0.68537  -0.68248  -0.67409
 Alpha  occ. eigenvalues --   -0.67062  -0.66870  -0.66167  -0.65987  -0.65925
 Alpha  occ. eigenvalues --   -0.65483  -0.65123  -0.65081  -0.63614  -0.62368
 Alpha  occ. eigenvalues --   -0.61751  -0.61653  -0.60816  -0.60614  -0.59900
 Alpha  occ. eigenvalues --   -0.59806  -0.59036  -0.58575  -0.57618  -0.57377
 Alpha  occ. eigenvalues --   -0.57178  -0.56726  -0.56461  -0.56246  -0.55727
 Alpha  occ. eigenvalues --   -0.55591  -0.55196  -0.55068  -0.54726  -0.54334
 Alpha  occ. eigenvalues --   -0.54214  -0.54050  -0.53868  -0.53471  -0.53342
 Alpha  occ. eigenvalues --   -0.53248  -0.53220  -0.53008  -0.52885  -0.52556
 Alpha  occ. eigenvalues --   -0.52121  -0.52068  -0.51814  -0.51662  -0.51344
 Alpha  occ. eigenvalues --   -0.51055  -0.51029  -0.50883  -0.50547  -0.50336
 Alpha  occ. eigenvalues --   -0.50312  -0.50091  -0.49974  -0.49588  -0.49379
 Alpha  occ. eigenvalues --   -0.49236  -0.49117  -0.48741  -0.48547  -0.48531
 Alpha  occ. eigenvalues --   -0.48402  -0.48375  -0.48017  -0.47737  -0.47149
 Alpha  occ. eigenvalues --   -0.47035  -0.46987  -0.46939  -0.46912  -0.46607
 Alpha  occ. eigenvalues --   -0.46413  -0.46401  -0.46248  -0.45844  -0.45749
 Alpha  occ. eigenvalues --   -0.45586  -0.45468  -0.45392  -0.45209  -0.45125
 Alpha  occ. eigenvalues --   -0.44893  -0.44808  -0.44391  -0.44126  -0.44011
 Alpha  occ. eigenvalues --   -0.43731  -0.43656  -0.43317  -0.43158  -0.42773
 Alpha  occ. eigenvalues --   -0.42328  -0.42260  -0.42018  -0.41982  -0.41735
 Alpha  occ. eigenvalues --   -0.41536  -0.41244  -0.41180  -0.41023  -0.40657
 Alpha  occ. eigenvalues --   -0.39833  -0.39538  -0.39293  -0.39167  -0.39137
 Alpha  occ. eigenvalues --   -0.38983  -0.38782  -0.38602  -0.38033  -0.37809
 Alpha  occ. eigenvalues --   -0.37547  -0.37406  -0.36888  -0.36864  -0.35948
 Alpha  occ. eigenvalues --   -0.35401  -0.35171  -0.35066  -0.33234  -0.33171
 Alpha  occ. eigenvalues --   -0.33123  -0.32793  -0.32348  -0.31018  -0.25434
 Alpha  occ. eigenvalues --   -0.22416
 Alpha virt. eigenvalues --   -0.06290   0.00193   0.02059   0.04449   0.05480
 Alpha virt. eigenvalues --    0.05843   0.06860   0.07076   0.08443   0.09951
 Alpha virt. eigenvalues --    0.10870   0.11816   0.12101   0.12291   0.12430

 Mulliken charges:
               1
     1  Mg   0.973785
     2  C   -0.134335
     3  C   -0.054707
     4  C   -0.045029
     5  C   -0.100179
     6  N   -0.384463
     7  C    0.033312
     8  C   -0.074846
     9  C   -0.102718
    10  C    0.020104
    11  C    0.044871
    12  C    0.007670
    13  C    0.079074
    14  C    0.186706
    15  O   -0.257998
    16  O   -0.386892
    17  N   -0.462655
    18  C    0.175473
    19  C   -0.160087
    20  C   -0.103827
    21  C    0.120623
    22  C    0.048413
    23  C    0.075511
    24  O   -0.261444
    25  C    0.008102
    26  N   -0.323987
    27  C    0.028603
    28  C   -0.129018
    29  C   -0.062083
    30  C    0.092143
    31  C    0.049674
    32  C    0.001578
    33  C   -0.075065
    34  N   -0.407979
    35  C    0.134768
    36  C   -0.217645
    37  C   -0.011887
    38  C    0.181970
    39  C    0.094067
    40  C    0.121432
    41  O   -0.214984
    42  C   -0.017219
    43  C    0.298809
    44  O   -0.278657
    45  O   -0.383844
    46  C    0.154863
    47  C    0.238171
    48  C   -0.133936
    49  C   -0.192386
    50  C    0.019842
    51  C    0.047033
    52  C    0.004159
    53  C   -0.023307
    54  C   -0.156857
    55  C    0.000871
    56  C    0.001384
    57  C   -0.075518
    58  C    0.013530
    59  C   -0.194132
    60  C    0.005791
    61  C    0.029499
    62  C   -0.032031
    63  C    0.003518
    64  C   -0.246182
    65  C    0.034388
    66  C   -0.007536
    67  H   -0.008555
    68  H    0.028153
    69  H   -0.020013
    70  H    0.069226
    71  H    0.033813
    72  H    0.032590
    73  H    0.043880
    74  H    0.038517
    75  H    0.022710
    76  H    0.029513
    77  H    0.047023
    78  H    0.050238
    79  H    0.059612
    80  H    0.046707
    81  H    0.027110
    82  H    0.063153
    83  H    0.048092
    84  H    0.036865
    85  H    0.040611
    86  H    0.029419
    87  H    0.032909
    88  H    0.059900
    89  H    0.033302
    90  H    0.040585
    91  H    0.030967
    92  H    0.031589
    93  H    0.033352
    94  H    0.023474
    95  H    0.035053
    96  H    0.059622
    97  H    0.063533
    98  H    0.081393
    99  H    0.055803
   100  H    0.057237
   101  H    0.063288
   102  H    0.051165
   103  H    0.036324
   104  H    0.016488
   105  H    0.039409
   106  H    0.036612
   107  H    0.041918
   108  H    0.036889
   109  H    0.024679
   110  H    0.023174
   111  H    0.016541
   112  H    0.022482
   113  H    0.017667
   114  H    0.025106
   115  H    0.028708
   116  H    0.035914
   117  H    0.028776
   118  H    0.014879
   119  H    0.005123
   120  H    0.027435
   121  H    0.035974
   122  H    0.006637
   123  H    0.015413
   124  H    0.020180
   125  H    0.029472
   126  H    0.012111
   127  H    0.023764
   128  H    0.021524
   129  H    0.016074
   130  H    0.011940
   131  H    0.024047
   132  H    0.017583
   133  H    0.014661
   134  H    0.029135
   135  H    0.020111
   136  H    0.042164
   137  H    0.014099
   138  H    0.027285
   139  H    0.040550
   140  H    0.011011
 Sum of Mulliken charges =  -0.00000

 Dipole moment (field-independent basis, Debye):
    X=             -4.5453    Y=              0.5139    Z=              3.0664  Tot=              5.5069
 Quadrupole moment (field-independent basis, Debye-Ang):
   XX=           -376.0513   YY=           -424.3958   ZZ=           -403.9839
   XY=              9.2355   XZ=             13.6363   YZ=             -3.8875

 Normal termination of Gaussian 16 at Wed May  4 13:11:47 2022.
