 Gaussian 16, Revision A.03,
 Gaussian 16:  ES64L-G16RevA.03 25-Dec-2016

 --------------------
 #p ZINDO=(nstates=5)
 --------------------

 -----------------------------
 step_1701_chromophore_6 ZINDO
 -----------------------------
 Symbolic Z-matrix:
 Charge =  0 Multiplicity = 1

                         Standard orientation:
 ---------------------------------------------------------------------
 Center     Atomic      Atomic             Coordinates (Angstroms)
 Number     Number       Type             X           Y           Z
 ---------------------------------------------------------------------
      1         12           0        5.479977    1.042822    0.181226
      2          6           0        4.603460   -2.337124    0.303444
      3          6           0        2.256170    1.996565   -0.162451
      4          6           0        6.624880    4.309160   -0.145989
      5          6           0        8.783162   -0.056843   -0.064170
      6          7           0        3.686276   -0.079180   -0.078704
      7          6           0        3.475487   -1.395861    0.234927
      8          6           0        1.994032   -1.778920    0.359067
      9          6           0        1.273472   -0.410918   -0.056266
     10          6           0        2.451917    0.581363   -0.191048
     11          6           0        0.492193   -0.449114   -1.316348
     12          6           0        1.674229   -2.370076    1.731548
     13          6           0        0.651303   -3.522954    1.865824
     14          6           0       -0.017199   -3.938852    0.574242
     15          8           0        0.373491   -4.814313   -0.194118
     16          8           0       -1.097867   -3.079266    0.265045
     17          7           0        4.544322    2.924878   -0.013572
     18          6           0        3.152242    3.066163    0.019880
     19          6           0        2.884882    4.491271    0.103917
     20          6           0        4.130619    5.224249    0.033628
     21          6           0        5.183791    4.127301   -0.036356
     22          6           0        1.514073    5.013347    0.147384
     23          6           0        4.483839    6.733726   -0.051107
     24          8           0        5.653417    7.145301   -0.120713
     25          6           0        3.424894    7.724156   -0.082066
     26          7           0        7.442710    1.970372   -0.215214
     27          6           0        7.634285    3.315883   -0.223643
     28          6           0        9.134901    3.726288   -0.511108
     29          6           0        9.793449    2.306514   -0.213271
     30          6           0        8.625748    1.330048   -0.214442
     31          6           0        9.347870    4.243789   -1.940569
     32          6           0       10.437080    2.295156    1.138110
     33          6           0       11.805328    1.565785    1.232161
     34          7           0        6.440816   -0.741999    0.155032
     35          6           0        7.777640   -1.049656    0.167811
     36          6           0        8.036367   -2.494822    0.244858
     37          6           0        6.755906   -3.039034    0.278666
     38          6           0        5.876299   -1.931068    0.254353
     39          6           0        9.289131   -3.238757    0.224627
     40          6           0        5.972868   -4.271702    0.271081
     41          8           0        6.336513   -5.467343    0.242963
     42          6           0        4.494541   -3.858902    0.376361
     43          6           0        3.667495   -4.466185   -0.681452
     44          8           0        3.366738   -3.991709   -1.804506
     45          8           0        3.385906   -5.763308   -0.311973
     46          6           0        2.581565   -6.745918   -1.137970
     47          6           0       -1.696357   -3.409787   -1.029028
     48          6           0       -3.001421   -2.600366   -1.157570
     49          6           0       -4.224917   -2.906354   -0.696136
     50          6           0       -4.464662   -4.304351   -0.023016
     51          6           0       -5.429545   -2.020695   -1.091072
     52          6           0       -6.063639   -1.274159    0.046200
     53          6           0       -7.567952   -1.574467    0.187067
     54          6           0       -8.453397   -0.477150    0.895576
     55          6           0       -8.502063   -0.688935    2.461252
     56          6           0       -9.962436   -0.686939    0.449985
     57          6           0      -10.476204    0.589513   -0.295188
     58          6           0      -11.158348    1.580073    0.742873
     59          6           0      -12.427597    2.080556    0.125746
     60          6           0      -12.689375    3.556871    0.524440
     61          6           0      -13.665714    1.181570    0.451883
     62          6           0      -14.496089    0.854014   -0.744373
     63          6           0      -15.902106    0.561020   -0.315072
     64          6           0      -16.804912    1.848628   -0.467429
     65          6           0      -17.668797    1.762287   -1.732718
     66          6           0      -17.681023    1.881066    0.835866
     67          1           0        1.183449    2.199396   -0.128091
     68          1           0        6.991665    5.327708   -0.290275
     69          1           0        9.798992   -0.456221   -0.018898
     70          1           0        1.664998   -2.490829   -0.398886
     71          1           0        0.699328   -0.009832    0.778536
     72          1           0        0.510197   -1.430559   -1.790316
     73          1           0        0.937478    0.221100   -2.050859
     74          1           0       -0.564108   -0.220459   -1.173040
     75          1           0        1.344688   -1.555036    2.376017
     76          1           0        2.574858   -2.658903    2.273957
     77          1           0       -0.082332   -3.237601    2.619040
     78          1           0        1.143682   -4.359955    2.361883
     79          1           0        1.259292    5.627872   -0.715981
     80          1           0        1.447824    5.612869    1.055306
     81          1           0        0.752351    4.234456    0.190187
     82          1           0        3.785570    8.711586   -0.367898
     83          1           0        3.128169    7.736784    0.966743
     84          1           0        2.469796    7.451688   -0.530582
     85          1           0        9.490939    4.480405    0.191935
     86          1           0       10.525925    2.148523   -1.004376
     87          1           0        9.900617    5.164905   -1.760031
     88          1           0        8.380823    4.445038   -2.401138
     89          1           0       10.041724    3.593381   -2.472692
     90          1           0        9.823891    1.824433    1.906640
     91          1           0       10.697418    3.271595    1.546066
     92          1           0       12.672539    2.186495    1.008031
     93          1           0       11.946299    0.605061    0.736200
     94          1           0       11.970973    1.377612    2.291946
     95          1           0       10.081621   -2.510646    0.393305
     96          1           0        9.404855   -3.651391   -0.776987
     97          1           0        9.279797   -4.144489    0.831656
     98          1           0        4.144118   -4.082934    1.383519
     99          1           0        3.267016   -7.434931   -1.632093
    100          1           0        2.074961   -6.229167   -1.953589
    101          1           0        1.805184   -7.280336   -0.589240
    102          1           0       -1.808056   -4.491768   -1.093441
    103          1           0       -0.963233   -3.073084   -1.762773
    104          1           0       -2.889703   -1.633869   -1.648618
    105          1           0       -4.859287   -4.204798    0.987772
    106          1           0       -3.568485   -4.913811    0.093656
    107          1           0       -5.195882   -4.876801   -0.592638
    108          1           0       -6.075866   -2.743694   -1.589028
    109          1           0       -5.027177   -1.222080   -1.713990
    110          1           0       -5.723923   -0.238188    0.063474
    111          1           0       -5.566374   -1.703998    0.915000
    112          1           0       -7.717110   -2.610317    0.491242
    113          1           0       -7.953943   -1.613563   -0.831413
    114          1           0       -8.148438    0.538174    0.641736
    115          1           0       -8.262738   -1.746337    2.577143
    116          1           0       -9.457478   -0.459066    2.931738
    117          1           0       -7.754486   -0.011966    2.873333
    118          1           0      -10.625174   -0.991523    1.259242
    119          1           0      -10.131284   -1.461339   -0.298114
    120          1           0      -11.230265    0.184899   -0.971560
    121          1           0       -9.702816    1.159870   -0.810699
    122          1           0      -10.418597    2.367088    0.890153
    123          1           0      -11.255603    1.140994    1.735351
    124          1           0      -12.226498    2.175388   -0.941613
    125          1           0      -12.185511    3.772885    1.465514
    126          1           0      -13.762526    3.731230    0.603412
    127          1           0      -12.378785    4.255327   -0.252163
    128          1           0      -14.336059    1.656581    1.167934
    129          1           0      -13.243473    0.245237    0.817409
    130          1           0      -14.031611   -0.046842   -1.144159
    131          1           0      -14.461391    1.629916   -1.509512
    132          1           0      -15.894489    0.244527    0.727691
    133          1           0      -16.285832   -0.287331   -0.880367
    134          1           0      -16.208839    2.758304   -0.544070
    135          1           0      -17.190404    0.920787   -2.233757
    136          1           0      -17.876084    2.718875   -2.211689
    137          1           0      -18.648679    1.362268   -1.470975
    138          1           0      -17.270988    2.683282    1.450135
    139          1           0      -17.816818    0.901090    1.291764
    140          1           0      -18.693092    2.270061    0.722271
 ---------------------------------------------------------------------

 SCF Done:  E(RZINDO/S) =  -474.166024250     A.U. after   20 cycles

 Excitation energies and oscillator strengths:

 Excited State   1:      Singlet-A      1.2692 eV  976.86 nm  f=0.5515  <S**2>=0.000
     175 ->178        -0.18160
     176 ->177         0.66325
 This state for optimization and/or second-order correction.
 Total Energy, E(CIS/TDA) =  -474.119381597
 Copying the excited state density for this state as the 1-particle RhoCI density.

 Excited State   2:      Singlet-A      1.8733 eV  661.85 nm  f=0.0115  <S**2>=0.000
     175 ->177         0.50705
     176 ->178         0.45918

 Excited State   3:      Singlet-A      2.8409 eV  436.43 nm  f=0.5964  <S**2>=0.000
     175 ->177        -0.31394
     176 ->178         0.43438
     176 ->179         0.39645

 Excited State   4:      Singlet-A      2.9198 eV  424.64 nm  f=0.0005  <S**2>=0.000
     167 ->179         0.10746
     168 ->177        -0.37296
     168 ->178         0.18925
     168 ->179         0.40815
     168 ->181        -0.13028
     168 ->182         0.12642
     168 ->186         0.18474

 Excited State   5:      Singlet-A      3.0435 eV  407.37 nm  f=0.7674  <S**2>=0.000
     175 ->177         0.31921
     176 ->178        -0.26084
     176 ->179         0.47693
     176 ->181         0.22757

 The electronic state is 1-A.
 Alpha  occ. eigenvalues --   -1.87182  -1.79632  -1.77457  -1.72958  -1.69105
 Alpha  occ. eigenvalues --   -1.68725  -1.67163  -1.61090  -1.57320  -1.57194
 Alpha  occ. eigenvalues --   -1.56114  -1.50931  -1.48570  -1.47821  -1.46431
 Alpha  occ. eigenvalues --   -1.44431  -1.41800  -1.40285  -1.38805  -1.38024
 Alpha  occ. eigenvalues --   -1.37582  -1.36095  -1.33727  -1.30788  -1.28039
 Alpha  occ. eigenvalues --   -1.27604  -1.24080  -1.22201  -1.19214  -1.18348
 Alpha  occ. eigenvalues --   -1.17114  -1.16118  -1.15905  -1.14623  -1.12885
 Alpha  occ. eigenvalues --   -1.11963  -1.10308  -1.08862  -1.05111  -1.03514
 Alpha  occ. eigenvalues --   -1.02426  -1.00733  -0.98394  -0.97802  -0.95914
 Alpha  occ. eigenvalues --   -0.95847  -0.94049  -0.92779  -0.92085  -0.92000
 Alpha  occ. eigenvalues --   -0.90959  -0.90651  -0.89530  -0.88716  -0.87831
 Alpha  occ. eigenvalues --   -0.85670  -0.84490  -0.82682  -0.81704  -0.80584
 Alpha  occ. eigenvalues --   -0.79960  -0.78777  -0.77366  -0.76712  -0.76476
 Alpha  occ. eigenvalues --   -0.76128  -0.75493  -0.75099  -0.74508  -0.73645
 Alpha  occ. eigenvalues --   -0.73219  -0.72590  -0.72074  -0.71520  -0.70998
 Alpha  occ. eigenvalues --   -0.70674  -0.69808  -0.68926  -0.68113  -0.67377
 Alpha  occ. eigenvalues --   -0.66751  -0.66273  -0.66088  -0.65473  -0.65091
 Alpha  occ. eigenvalues --   -0.65044  -0.64438  -0.64311  -0.63882  -0.63380
 Alpha  occ. eigenvalues --   -0.63092  -0.62770  -0.62421  -0.62395  -0.61841
 Alpha  occ. eigenvalues --   -0.61602  -0.60882  -0.60351  -0.60199  -0.59866
 Alpha  occ. eigenvalues --   -0.59468  -0.59199  -0.58921  -0.58595  -0.58118
 Alpha  occ. eigenvalues --   -0.58001  -0.57438  -0.57045  -0.56368  -0.56232
 Alpha  occ. eigenvalues --   -0.55890  -0.55470  -0.55310  -0.54959  -0.54783
 Alpha  occ. eigenvalues --   -0.54548  -0.54425  -0.54312  -0.53198  -0.53024
 Alpha  occ. eigenvalues --   -0.52427  -0.52151  -0.51874  -0.51285  -0.50995
 Alpha  occ. eigenvalues --   -0.50913  -0.50824  -0.50603  -0.50496  -0.50063
 Alpha  occ. eigenvalues --   -0.49617  -0.49323  -0.49167  -0.49139  -0.48978
 Alpha  occ. eigenvalues --   -0.48297  -0.48157  -0.48054  -0.47643  -0.47430
 Alpha  occ. eigenvalues --   -0.47102  -0.46895  -0.46722  -0.46259  -0.45834
 Alpha  occ. eigenvalues --   -0.45762  -0.45555  -0.45520  -0.44973  -0.44855
 Alpha  occ. eigenvalues --   -0.44580  -0.44197  -0.44031  -0.43508  -0.43109
 Alpha  occ. eigenvalues --   -0.43003  -0.42638  -0.42546  -0.42450  -0.42427
 Alpha  occ. eigenvalues --   -0.41308  -0.40795  -0.40659  -0.39535  -0.38582
 Alpha  occ. eigenvalues --   -0.38396  -0.37152  -0.36122  -0.34748  -0.34093
 Alpha  occ. eigenvalues --   -0.33926  -0.33236  -0.31681  -0.31429  -0.26215
 Alpha  occ. eigenvalues --   -0.21238
 Alpha virt. eigenvalues --   -0.07829  -0.02242  -0.00693   0.01113   0.01386
 Alpha virt. eigenvalues --    0.02221   0.02665   0.03012   0.04653   0.04812
 Alpha virt. eigenvalues --    0.06397   0.06881   0.07646   0.07948   0.08146

 Mulliken charges:
               1
     1  Mg   0.423718
     2  C   -0.057766
     3  C   -0.052077
     4  C   -0.076246
     5  C   -0.100309
     6  N   -0.262615
     7  C    0.141456
     8  C    0.007024
     9  C    0.009347
    10  C    0.071116
    11  C   -0.043534
    12  C   -0.015104
    13  C    0.009920
    14  C    0.470920
    15  O   -0.508161
    16  O   -0.280732
    17  N   -0.313436
    18  C    0.060349
    19  C    0.012061
    20  C   -0.090097
    21  C    0.127853
    22  C   -0.040265
    23  C    0.339759
    24  O   -0.549396
    25  C   -0.027483
    26  N   -0.273016
    27  C    0.111019
    28  C   -0.012139
    29  C    0.012668
    30  C    0.170334
    31  C   -0.053263
    32  C   -0.018366
    33  C   -0.066608
    34  N   -0.319059
    35  C    0.126967
    36  C    0.053800
    37  C   -0.053385
    38  C    0.136854
    39  C   -0.034177
    40  C    0.340961
    41  O   -0.517719
    42  C    0.066795
    43  C    0.499251
    44  O   -0.530416
    45  O   -0.276009
    46  C    0.078790
    47  C    0.102929
    48  C   -0.091086
    49  C   -0.009999
    50  C   -0.046355
    51  C   -0.018119
    52  C   -0.030962
    53  C   -0.031680
    54  C   -0.016768
    55  C   -0.062817
    56  C   -0.047667
    57  C   -0.049017
    58  C   -0.035060
    59  C   -0.013954
    60  C   -0.065244
    61  C   -0.029350
    62  C   -0.031077
    63  C   -0.032385
    64  C   -0.015047
    65  C   -0.067276
    66  C   -0.066126
    67  H    0.021904
    68  H    0.052353
    69  H    0.022155
    70  H    0.057267
    71  H    0.026198
    72  H    0.024201
    73  H    0.025101
    74  H    0.017805
    75  H    0.017639
    76  H    0.020611
    77  H    0.032351
    78  H    0.034822
    79  H    0.028847
    80  H    0.024856
    81  H    0.019440
    82  H    0.042888
    83  H    0.038266
    84  H    0.032769
    85  H    0.035735
    86  H    0.032908
    87  H    0.016962
    88  H    0.040351
    89  H    0.024558
    90  H    0.023189
    91  H    0.021779
    92  H    0.017954
    93  H    0.022750
    94  H    0.006154
    95  H    0.028275
    96  H    0.039098
    97  H    0.045413
    98  H    0.063007
    99  H    0.039867
   100  H    0.046754
   101  H    0.047570
   102  H    0.055229
   103  H    0.042836
   104  H    0.024846
   105  H    0.022677
   106  H    0.027473
   107  H    0.024807
   108  H    0.034406
   109  H    0.023663
   110  H    0.028304
   111  H    0.009942
   112  H    0.030259
   113  H    0.005287
   114  H    0.034906
   115  H    0.024223
   116  H    0.024752
   117  H    0.013962
   118  H    0.024822
   119  H    0.008596
   120  H    0.016844
   121  H    0.028989
   122  H    0.007916
   123  H    0.022970
   124  H    0.020548
   125  H    0.021270
   126  H    0.012023
   127  H    0.015065
   128  H    0.026314
   129  H    0.018604
   130  H    0.008339
   131  H    0.022149
   132  H    0.016944
   133  H    0.016768
   134  H    0.027204
   135  H    0.028676
   136  H    0.030854
   137  H    0.010323
   138  H    0.015901
   139  H    0.029640
   140  H    0.007347
 Sum of Mulliken charges =  -0.00000

 Dipole moment (field-independent basis, Debye):
    X=             -4.6693    Y=             -0.2374    Z=              5.5747  Tot=              7.2757
 N-N= 4.272594357402D+03 E-N= 0.000000000000D+00  KE=-9.219932800434D+03
 Leave Link  601 at Wed May  4 13:23:37 2022, MaxMem=  6710886400 cpu:               0.8 elap:               0.1
 (Enter /sw/apps/gaussian-16.0/g16/l9999.exe)
 1\1\GINC-BP1-COMPUTE050\SP\RZINDO CIS\STO-3G\C55H74Mg1N4O6\OF15641\04-
 May-2022\0\\#p ZINDO=(nstates=5)\\step_1701_chromophore_6 ZINDO\\0,1\M
 g,0,17.927,-1.786,27.707\C,0,16.92,0.287,30.333\C,0,19.982,-3.555,29.7
 24\C,0,18.94,-3.557,24.892\C,0,16.261,0.448,25.606\N,0,18.495,-1.518,2
 9.744\C,0,17.829,-0.807,30.707\C,0,18.23,-1.173,32.143\C,0,19.406,-2.2
 29,31.888\C,0,19.379,-2.423,30.354\C,0,20.759,-1.807,32.325\C,0,17.027
 ,-1.625,32.97\C,0,16.925,-1.252,34.468\C,0,18.11,-0.491,35.02\O,0,18.2

 Normal termination of Gaussian 16 at Wed May  4 13:23:38 2022.
