 Gaussian 16, Revision A.03,
 Gaussian 16:  ES64L-G16RevA.03 25-Dec-2016

 ------------------------------
 #p blyp/Def2SVP td=(nstates=5)
 ------------------------------

 -------------------------------------------------
 step_501_chromophore_3 TDDFT with blyp functional
 -------------------------------------------------
 Symbolic Z-matrix:
 Charge =  0 Multiplicity = 1

                         Standard orientation:
 ---------------------------------------------------------------------
 Center     Atomic      Atomic             Coordinates (Angstroms)
 Number     Number       Type             X           Y           Z
 ---------------------------------------------------------------------
      1         12           0       -5.360992    0.909496   -0.167659
      2          6           0       -4.439464   -2.461806    0.082463
      3          6           0       -2.056318    1.772805    0.764983
      4          6           0       -6.308535    4.168392   -0.061652
      5          6           0       -8.665518   -0.076926   -0.335307
      6          7           0       -3.491813   -0.228577    0.182880
      7          6           0       -3.361092   -1.613222    0.042645
      8          6           0       -1.838563   -1.974632   -0.098620
      9          6           0       -1.149572   -0.641080    0.213251
     10          6           0       -2.313375    0.382598    0.454284
     11          6           0       -0.237409   -0.781946    1.461590
     12          6           0       -1.601995   -2.548328   -1.490348
     13          6           0       -0.457825   -3.532097   -1.672730
     14          6           0        0.587144   -3.656628   -0.540952
     15          8           0        0.510566   -4.483032    0.405024
     16          8           0        1.613533   -2.822979   -0.689801
     17          7           0       -4.365372    2.746021    0.267497
     18          6           0       -3.019511    2.880843    0.658074
     19          6           0       -2.699397    4.273943    0.915366
     20          6           0       -3.888721    5.051520    0.624658
     21          6           0       -4.923199    3.985064    0.277465
     22          6           0       -1.290786    4.793910    1.229518
     23          6           0       -4.125406    6.549469    0.643884
     24          8           0       -5.219854    7.005763    0.341097
     25          6           0       -2.963438    7.448916    0.824396
     26          7           0       -7.254239    1.885191   -0.266543
     27          6           0       -7.361570    3.242815   -0.293833
     28          6           0       -8.825524    3.645680   -0.610954
     29          6           0       -9.594252    2.276632   -0.768179
     30          6           0       -8.442011    1.260865   -0.556027
     31          6           0       -9.384935    4.550478    0.501484
     32          6           0      -10.247141    2.049182   -2.157465
     33          6           0      -11.744575    2.323382   -2.058364
     34          7           0       -6.452098   -0.870742   -0.033919
     35          6           0       -7.777564   -1.151898   -0.042428
     36          6           0       -7.927678   -2.586356    0.303353
     37          6           0       -6.687992   -3.153721    0.256153
     38          6           0       -5.817751   -2.045994    0.091162
     39          6           0       -9.296974   -3.230283    0.441629
     40          6           0       -5.905343   -4.395374    0.317018
     41          8           0       -6.288772   -5.543489    0.505845
     42          6           0       -4.463178   -3.970748    0.117952
     43          6           0       -3.713289   -4.599034    1.217065
     44          8           0       -3.618117   -4.275617    2.408736
     45          8           0       -3.129505   -5.744715    0.716403
     46          6           0       -2.392395   -6.562774    1.654794
     47          6           0        2.831318   -3.051464    0.116379
     48          6           0        3.956812   -2.864224   -0.863468
     49          6           0        5.272221   -3.129407   -0.813375
     50          6           0        5.919421   -3.854956    0.310553
     51          6           0        6.227545   -2.669655   -1.872720
     52          6           0        6.441375   -1.099623   -1.919108
     53          6           0        7.877119   -0.723733   -1.791425
     54          6           0        8.139931    0.228854   -0.597274
     55          6           0        8.307281   -0.458669    0.725988
     56          6           0        9.226828    1.253301   -0.919513
     57          6           0       10.714400    0.690097   -0.721957
     58          6           0       11.617782    0.945975   -1.959556
     59          6           0       12.775861    1.776451   -1.542861
     60          6           0       13.318520    2.605223   -2.780130
     61          6           0       13.958486    0.861239   -1.081442
     62          6           0       14.780153    1.604159    0.058935
     63          6           0       14.482500    1.050696    1.463031
     64          6           0       13.307802    1.701339    2.151142
     65          6           0       13.614091    3.123767    2.753737
     66          6           0       12.682461    0.713326    3.117902
     67          1           0       -1.009256    2.000840    0.973948
     68          1           0       -6.503998    5.241598   -0.112110
     69          1           0       -9.734312   -0.299097   -0.304915
     70          1           0       -1.736693   -2.705479    0.704530
     71          1           0       -0.447374   -0.472418   -0.603130
     72          1           0       -0.581191   -0.243720    2.345058
     73          1           0        0.658696   -0.200928    1.245461
     74          1           0       -0.098295   -1.822223    1.755177
     75          1           0       -1.516531   -1.668730   -2.129119
     76          1           0       -2.524805   -3.008658   -1.841391
     77          1           0        0.044356   -3.309334   -2.613190
     78          1           0       -1.004881   -4.465624   -1.809093
     79          1           0       -0.557110    4.006557    1.403463
     80          1           0       -1.317183    5.418013    2.123769
     81          1           0       -0.990079    5.478914    0.437651
     82          1           0       -2.301633    7.336539   -0.034736
     83          1           0       -2.538089    7.345179    1.822575
     84          1           0       -3.251835    8.498683    0.769500
     85          1           0       -8.809832    4.247181   -1.519539
     86          1           0      -10.275800    2.236458    0.082520
     87          1           0      -10.291202    4.207750    0.999961
     88          1           0       -9.643906    5.420595   -0.101403
     89          1           0       -8.707729    4.710936    1.339910
     90          1           0      -10.268615    0.985202   -2.393904
     91          1           0       -9.812478    2.655675   -2.952257
     92          1           0      -11.946007    2.956932   -2.922023
     93          1           0      -12.028110    2.966914   -1.225904
     94          1           0      -12.384754    1.440845   -2.071629
     95          1           0      -10.135218   -2.535578    0.500834
     96          1           0       -9.363121   -3.893870    1.302952
     97          1           0       -9.526956   -3.741524   -0.493831
     98          1           0       -4.143617   -4.335133   -0.857830
     99          1           0       -3.039544   -6.741646    2.513840
    100          1           0       -1.469944   -6.099640    2.005753
    101          1           0       -2.409017   -7.560847    1.218305
    102          1           0        2.924004   -4.084288    0.452131
    103          1           0        2.809453   -2.344566    0.946245
    104          1           0        3.703826   -2.293068   -1.756286
    105          1           0        6.252293   -3.182309    1.100604
    106          1           0        6.832894   -4.368970    0.011451
    107          1           0        5.330556   -4.670771    0.731093
    108          1           0        5.858800   -3.078981   -2.812882
    109          1           0        7.173419   -3.195092   -1.742206
    110          1           0        5.879773   -0.720701   -1.065823
    111          1           0        5.929606   -0.726916   -2.807532
    112          1           0        8.230026   -0.177925   -2.667008
    113          1           0        8.549861   -1.578444   -1.724133
    114          1           0        7.242575    0.801450   -0.363260
    115          1           0        7.352075   -0.877279    1.044372
    116          1           0        8.660738    0.295287    1.428849
    117          1           0        8.986225   -1.311678    0.728776
    118          1           0        9.250278    2.091064   -0.222995
    119          1           0        9.026588    1.756884   -1.864635
    120          1           0       10.756768   -0.395371   -0.641226
    121          1           0       11.246760    1.059270    0.155253
    122          1           0       11.071819    1.432248   -2.768246
    123          1           0       11.939450   -0.030842   -2.322835
    124          1           0       12.522854    2.518642   -0.784705
    125          1           0       13.120626    1.998383   -3.663617
    126          1           0       14.390920    2.796087   -2.752445
    127          1           0       12.739344    3.514750   -2.940354
    128          1           0       14.525623    0.741233   -2.004619
    129          1           0       13.613101   -0.117903   -0.748445
    130          1           0       14.468014    2.643024    0.168964
    131          1           0       15.837612    1.633913   -0.202293
    132          1           0       15.381300    1.249680    2.047312
    133          1           0       14.284985    0.011836    1.198545
    134          1           0       12.550145    1.870843    1.385865
    135          1           0       14.669304    3.371638    2.639931
    136          1           0       13.347452    3.110083    3.809827
    137          1           0       13.029344    3.935981    2.322827
    138          1           0       13.464061    0.075553    3.531412
    139          1           0       12.030923    0.020496    2.585254
    140          1           0       12.315871    1.193706    4.024689
 ---------------------------------------------------------------------

 SCF Done:  E(RB-LYP) =  -3007.38105130     A.U. after   22 cycles

 Excitation energies and oscillator strengths:

 Excited State   1:      Singlet-A      1.7769 eV  697.77 nm  f=0.3025  <S**2>=0.000
     245 -> 248       -0.15919
     245 -> 249        0.11337
     246 -> 247        0.69200
     246 <- 247       -0.15426
 This state for optimization and/or second-order correction.
 Total Energy, E(TD-HF/TD-DFT) =  -3007.31575304
 Copying the excited state density for this state as the 1-particle RhoCI density.

 Excited State   2:      Singlet-A      1.9830 eV  625.23 nm  f=0.0875  <S**2>=0.000
     244 -> 247        0.11918
     245 -> 247        0.64411
     246 -> 248        0.21014
     246 -> 249       -0.11689

 Excited State   3:      Singlet-A      2.0719 eV  598.41 nm  f=0.0033  <S**2>=0.000
     244 -> 247        0.69621
     245 -> 247       -0.10473

 Excited State   4:      Singlet-A      2.1284 eV  582.53 nm  f=0.0009  <S**2>=0.000
     243 -> 247        0.70487

 Excited State   5:      Singlet-A      2.5014 eV  495.66 nm  f=0.0002  <S**2>=0.000
     241 -> 247        0.70705

 The electronic state is 1-A.
 Alpha  occ. eigenvalues --  -46.27480 -18.83506 -18.80753 -18.76723 -18.76059
 Alpha  occ. eigenvalues --  -18.75937 -18.75616 -14.03252 -14.02822 -14.01422
 Alpha  occ. eigenvalues --  -14.00791 -10.04909 -10.03244  -9.99958  -9.99943
 Alpha  occ. eigenvalues --   -9.99215  -9.97154  -9.96500  -9.96305  -9.96279
 Alpha  occ. eigenvalues --   -9.96176  -9.95889  -9.95852  -9.95396  -9.94436
 Alpha  occ. eigenvalues --   -9.94428  -9.93917  -9.93863  -9.93796  -9.93673
 Alpha  occ. eigenvalues --   -9.93666  -9.93563  -9.93538  -9.93497  -9.93395
 Alpha  occ. eigenvalues --   -9.93386  -9.93377  -9.93195  -9.93029  -9.92620
 Alpha  occ. eigenvalues --   -9.92488  -9.92243  -9.92210  -9.92188  -9.92182
 Alpha  occ. eigenvalues --   -9.91992  -9.91954  -9.91891  -9.91875  -9.91780
 Alpha  occ. eigenvalues --   -9.91680  -9.91573  -9.91546  -9.91507  -9.91434
 Alpha  occ. eigenvalues --   -9.91406  -9.91385  -9.91370  -9.91336  -9.91181
 Alpha  occ. eigenvalues --   -9.90984  -9.90869  -9.90793  -9.90785  -9.90684
 Alpha  occ. eigenvalues --   -9.90551  -2.91979  -1.72413  -1.71818  -1.71726
 Alpha  occ. eigenvalues --   -0.99190  -0.96506  -0.91694  -0.91441  -0.88781
 Alpha  occ. eigenvalues --   -0.88253  -0.86738  -0.85106  -0.84926  -0.83921
 Alpha  occ. eigenvalues --   -0.76068  -0.74589  -0.73692  -0.73389  -0.72800
 Alpha  occ. eigenvalues --   -0.72113  -0.71609  -0.71148  -0.70457  -0.70047
 Alpha  occ. eigenvalues --   -0.69568  -0.68994  -0.68148  -0.67695  -0.67191
 Alpha  occ. eigenvalues --   -0.66667  -0.66034  -0.65887  -0.64961  -0.64105
 Alpha  occ. eigenvalues --   -0.64035  -0.62304  -0.62041  -0.61512  -0.61235
 Alpha  occ. eigenvalues --   -0.60633  -0.60441  -0.59937  -0.59364  -0.58883
 Alpha  occ. eigenvalues --   -0.58649  -0.57463  -0.56077  -0.55661  -0.54398
 Alpha  occ. eigenvalues --   -0.53982  -0.53778  -0.53162  -0.52641  -0.52182
 Alpha  occ. eigenvalues --   -0.51316  -0.51202  -0.50644  -0.50470  -0.49923
 Alpha  occ. eigenvalues --   -0.49798  -0.48842  -0.48323  -0.47851  -0.46668
 Alpha  occ. eigenvalues --   -0.46291  -0.46125  -0.45576  -0.45180  -0.44913
 Alpha  occ. eigenvalues --   -0.44232  -0.43613  -0.43086  -0.42732  -0.42647
 Alpha  occ. eigenvalues --   -0.42349  -0.42112  -0.41740  -0.41354  -0.41287
 Alpha  occ. eigenvalues --   -0.41012  -0.40980  -0.40638  -0.40553  -0.40413
 Alpha  occ. eigenvalues --   -0.40161  -0.39830  -0.39726  -0.39461  -0.39161
 Alpha  occ. eigenvalues --   -0.38901  -0.38829  -0.38690  -0.38590  -0.38198
 Alpha  occ. eigenvalues --   -0.38025  -0.37981  -0.37689  -0.37425  -0.37195
 Alpha  occ. eigenvalues --   -0.37103  -0.37059  -0.36887  -0.36660  -0.36345
 Alpha  occ. eigenvalues --   -0.36311  -0.36099  -0.36031  -0.35962  -0.35443
 Alpha  occ. eigenvalues --   -0.35275  -0.34993  -0.34806  -0.34725  -0.34625
 Alpha  occ. eigenvalues --   -0.34555  -0.34256  -0.34182  -0.34039  -0.33672
 Alpha  occ. eigenvalues --   -0.33448  -0.33388  -0.33238  -0.33025  -0.32812
 Alpha  occ. eigenvalues --   -0.32715  -0.32564  -0.32355  -0.32319  -0.32284
 Alpha  occ. eigenvalues --   -0.31972  -0.31649  -0.31526  -0.31374  -0.31245
 Alpha  occ. eigenvalues --   -0.31191  -0.31045  -0.30934  -0.30786  -0.30736
 Alpha  occ. eigenvalues --   -0.30663  -0.30476  -0.30363  -0.30259  -0.30023
 Alpha  occ. eigenvalues --   -0.29986  -0.29787  -0.29218  -0.29016  -0.28884
 Alpha  occ. eigenvalues --   -0.28656  -0.28517  -0.28140  -0.27775  -0.27588
 Alpha  occ. eigenvalues --   -0.27541  -0.27115  -0.27084  -0.26935  -0.26583
 Alpha  occ. eigenvalues --   -0.26480  -0.26387  -0.25939  -0.25637  -0.25297
 Alpha  occ. eigenvalues --   -0.24860  -0.24339  -0.23942  -0.23690  -0.23335
 Alpha  occ. eigenvalues --   -0.23079  -0.21989  -0.21542  -0.21146  -0.20934
 Alpha  occ. eigenvalues --   -0.20616  -0.20457  -0.19145  -0.18928  -0.16981
 Alpha  occ. eigenvalues --   -0.15573
 Alpha virt. eigenvalues --   -0.11424  -0.06754  -0.06100  -0.04828  -0.03862
 Alpha virt. eigenvalues --   -0.02636  -0.02461  -0.01899  -0.01197   0.00290
 Alpha virt. eigenvalues --    0.01478   0.01650   0.01836   0.02600   0.02846

 Mulliken charges:
               1
     1  Mg   0.688932
     2  C    0.026167
     3  C   -0.047018
     4  C   -0.026279
     5  C   -0.059936
     6  N   -0.228063
     7  C   -0.152250
     8  C    0.032143
     9  C   -0.017135
    10  C    0.066592
    11  C    0.091823
    12  C    0.101361
    13  C    0.206404
    14  C    0.079488
    15  O   -0.234405
    16  O   -0.251899
    17  N   -0.278089
    18  C    0.128817
    19  C   -0.151082
    20  C    0.022911
    21  C    0.036958
    22  C    0.185318
    23  C   -0.071567
    24  O   -0.159442
    25  C    0.138203
    26  N   -0.227825
    27  C    0.047407
    28  C   -0.010486
    29  C    0.050618
    30  C    0.012093
    31  C    0.115950
    32  C    0.114185
    33  C    0.047563
    34  N   -0.233763
    35  C    0.108295
    36  C   -0.195894
    37  C    0.109538
    38  C    0.068609
    39  C    0.155871
    40  C   -0.065581
    41  O   -0.119195
    42  C    0.120382
    43  C    0.115473
    44  O   -0.196564
    45  O   -0.275356
    46  C    0.235971
    47  C    0.351247
    48  C   -0.118871
    49  C   -0.180748
    50  C    0.127317
    51  C    0.135646
    52  C    0.104374
    53  C    0.144534
    54  C   -0.083119
    55  C    0.112543
    56  C    0.111930
    57  C    0.049430
    58  C    0.132968
    59  C   -0.127445
    60  C    0.097433
    61  C    0.105704
    62  C    0.054817
    63  C    0.124680
    64  C   -0.121235
    65  C    0.112956
    66  C    0.122506
    67  H   -0.062065
    68  H   -0.047045
    69  H   -0.064285
    70  H   -0.000358
    71  H   -0.021997
    72  H   -0.017071
    73  H   -0.018350
    74  H    0.020913
    75  H   -0.036267
    76  H   -0.027382
    77  H   -0.012957
    78  H   -0.002978
    79  H   -0.008436
    80  H   -0.008121
    81  H    0.001994
    82  H    0.019082
    83  H    0.008349
    84  H   -0.021259
    85  H   -0.018091
    86  H   -0.017113
    87  H   -0.017757
    88  H   -0.002808
    89  H    0.007700
    90  H   -0.019820
    91  H   -0.012170
    92  H   -0.022128
    93  H   -0.015141
    94  H    0.002611
    95  H   -0.028059
    96  H    0.013456
    97  H    0.002804
    98  H    0.006990
    99  H   -0.006082
   100  H    0.032663
   101  H    0.002852
   102  H    0.014058
   103  H    0.019942
   104  H   -0.040197
   105  H    0.005396
   106  H   -0.023565
   107  H   -0.008907
   108  H   -0.018871
   109  H   -0.044552
   110  H   -0.018579
   111  H   -0.022918
   112  H   -0.045897
   113  H   -0.032204
   114  H   -0.046449
   115  H   -0.020409
   116  H   -0.016916
   117  H   -0.021413
   118  H   -0.047454
   119  H   -0.027220
   120  H   -0.030700
   121  H   -0.031534
   122  H   -0.041456
   123  H   -0.041363
   124  H   -0.025199
   125  H   -0.025910
   126  H   -0.013054
   127  H   -0.019622
   128  H   -0.036016
   129  H   -0.033073
   130  H   -0.037113
   131  H   -0.036580
   132  H   -0.033184
   133  H   -0.039214
   134  H   -0.019391
   135  H   -0.014258
   136  H   -0.023566
   137  H   -0.013987
   138  H   -0.032003
   139  H   -0.005736
   140  H   -0.024465
 Sum of Mulliken charges =  -0.00000

 Dipole moment (field-independent basis, Debye):
    X=              4.5600    Y=              3.0786    Z=             -3.6315  Tot=              6.5924
 Quadrupole moment (field-independent basis, Debye-Ang):
   XX=           -383.7862   YY=           -436.7176   ZZ=           -406.2099
   XY=            -16.2407   XZ=             19.3157   YZ=             11.8308

 Normal termination of Gaussian 16 at Thu May  5 01:18:23 2022.
