 Gaussian 16, Revision A.03,
 Gaussian 16:  ES64L-G16RevA.03 25-Dec-2016

 -----------------------------------
 #p cam-b3lyp/Def2SVP td=(nstates=5)
 -----------------------------------

 ------------------------------------------------------
 step_501_chromophore_3 TDDFT with cam-b3lyp functional
 ------------------------------------------------------
 Symbolic Z-matrix:
 Charge =  0 Multiplicity = 1

                         Standard orientation:
 ---------------------------------------------------------------------
 Center     Atomic      Atomic             Coordinates (Angstroms)
 Number     Number       Type             X           Y           Z
 ---------------------------------------------------------------------
      1         12           0       -5.360992    0.909496   -0.167659
      2          6           0       -4.439464   -2.461806    0.082463
      3          6           0       -2.056318    1.772805    0.764983
      4          6           0       -6.308535    4.168392   -0.061652
      5          6           0       -8.665518   -0.076926   -0.335307
      6          7           0       -3.491813   -0.228577    0.182880
      7          6           0       -3.361092   -1.613222    0.042645
      8          6           0       -1.838563   -1.974632   -0.098620
      9          6           0       -1.149572   -0.641080    0.213251
     10          6           0       -2.313375    0.382598    0.454284
     11          6           0       -0.237409   -0.781946    1.461590
     12          6           0       -1.601995   -2.548328   -1.490348
     13          6           0       -0.457825   -3.532097   -1.672730
     14          6           0        0.587144   -3.656628   -0.540952
     15          8           0        0.510566   -4.483032    0.405024
     16          8           0        1.613533   -2.822979   -0.689801
     17          7           0       -4.365372    2.746021    0.267497
     18          6           0       -3.019511    2.880843    0.658074
     19          6           0       -2.699397    4.273943    0.915366
     20          6           0       -3.888721    5.051520    0.624658
     21          6           0       -4.923199    3.985064    0.277465
     22          6           0       -1.290786    4.793910    1.229518
     23          6           0       -4.125406    6.549469    0.643884
     24          8           0       -5.219854    7.005763    0.341097
     25          6           0       -2.963438    7.448916    0.824396
     26          7           0       -7.254239    1.885191   -0.266543
     27          6           0       -7.361570    3.242815   -0.293833
     28          6           0       -8.825524    3.645680   -0.610954
     29          6           0       -9.594252    2.276632   -0.768179
     30          6           0       -8.442011    1.260865   -0.556027
     31          6           0       -9.384935    4.550478    0.501484
     32          6           0      -10.247141    2.049182   -2.157465
     33          6           0      -11.744575    2.323382   -2.058364
     34          7           0       -6.452098   -0.870742   -0.033919
     35          6           0       -7.777564   -1.151898   -0.042428
     36          6           0       -7.927678   -2.586356    0.303353
     37          6           0       -6.687992   -3.153721    0.256153
     38          6           0       -5.817751   -2.045994    0.091162
     39          6           0       -9.296974   -3.230283    0.441629
     40          6           0       -5.905343   -4.395374    0.317018
     41          8           0       -6.288772   -5.543489    0.505845
     42          6           0       -4.463178   -3.970748    0.117952
     43          6           0       -3.713289   -4.599034    1.217065
     44          8           0       -3.618117   -4.275617    2.408736
     45          8           0       -3.129505   -5.744715    0.716403
     46          6           0       -2.392395   -6.562774    1.654794
     47          6           0        2.831318   -3.051464    0.116379
     48          6           0        3.956812   -2.864224   -0.863468
     49          6           0        5.272221   -3.129407   -0.813375
     50          6           0        5.919421   -3.854956    0.310553
     51          6           0        6.227545   -2.669655   -1.872720
     52          6           0        6.441375   -1.099623   -1.919108
     53          6           0        7.877119   -0.723733   -1.791425
     54          6           0        8.139931    0.228854   -0.597274
     55          6           0        8.307281   -0.458669    0.725988
     56          6           0        9.226828    1.253301   -0.919513
     57          6           0       10.714400    0.690097   -0.721957
     58          6           0       11.617782    0.945975   -1.959556
     59          6           0       12.775861    1.776451   -1.542861
     60          6           0       13.318520    2.605223   -2.780130
     61          6           0       13.958486    0.861239   -1.081442
     62          6           0       14.780153    1.604159    0.058935
     63          6           0       14.482500    1.050696    1.463031
     64          6           0       13.307802    1.701339    2.151142
     65          6           0       13.614091    3.123767    2.753737
     66          6           0       12.682461    0.713326    3.117902
     67          1           0       -1.009256    2.000840    0.973948
     68          1           0       -6.503998    5.241598   -0.112110
     69          1           0       -9.734312   -0.299097   -0.304915
     70          1           0       -1.736693   -2.705479    0.704530
     71          1           0       -0.447374   -0.472418   -0.603130
     72          1           0       -0.581191   -0.243720    2.345058
     73          1           0        0.658696   -0.200928    1.245461
     74          1           0       -0.098295   -1.822223    1.755177
     75          1           0       -1.516531   -1.668730   -2.129119
     76          1           0       -2.524805   -3.008658   -1.841391
     77          1           0        0.044356   -3.309334   -2.613190
     78          1           0       -1.004881   -4.465624   -1.809093
     79          1           0       -0.557110    4.006557    1.403463
     80          1           0       -1.317183    5.418013    2.123769
     81          1           0       -0.990079    5.478914    0.437651
     82          1           0       -2.301633    7.336539   -0.034736
     83          1           0       -2.538089    7.345179    1.822575
     84          1           0       -3.251835    8.498683    0.769500
     85          1           0       -8.809832    4.247181   -1.519539
     86          1           0      -10.275800    2.236458    0.082520
     87          1           0      -10.291202    4.207750    0.999961
     88          1           0       -9.643906    5.420595   -0.101403
     89          1           0       -8.707729    4.710936    1.339910
     90          1           0      -10.268615    0.985202   -2.393904
     91          1           0       -9.812478    2.655675   -2.952257
     92          1           0      -11.946007    2.956932   -2.922023
     93          1           0      -12.028110    2.966914   -1.225904
     94          1           0      -12.384754    1.440845   -2.071629
     95          1           0      -10.135218   -2.535578    0.500834
     96          1           0       -9.363121   -3.893870    1.302952
     97          1           0       -9.526956   -3.741524   -0.493831
     98          1           0       -4.143617   -4.335133   -0.857830
     99          1           0       -3.039544   -6.741646    2.513840
    100          1           0       -1.469944   -6.099640    2.005753
    101          1           0       -2.409017   -7.560847    1.218305
    102          1           0        2.924004   -4.084288    0.452131
    103          1           0        2.809453   -2.344566    0.946245
    104          1           0        3.703826   -2.293068   -1.756286
    105          1           0        6.252293   -3.182309    1.100604
    106          1           0        6.832894   -4.368970    0.011451
    107          1           0        5.330556   -4.670771    0.731093
    108          1           0        5.858800   -3.078981   -2.812882
    109          1           0        7.173419   -3.195092   -1.742206
    110          1           0        5.879773   -0.720701   -1.065823
    111          1           0        5.929606   -0.726916   -2.807532
    112          1           0        8.230026   -0.177925   -2.667008
    113          1           0        8.549861   -1.578444   -1.724133
    114          1           0        7.242575    0.801450   -0.363260
    115          1           0        7.352075   -0.877279    1.044372
    116          1           0        8.660738    0.295287    1.428849
    117          1           0        8.986225   -1.311678    0.728776
    118          1           0        9.250278    2.091064   -0.222995
    119          1           0        9.026588    1.756884   -1.864635
    120          1           0       10.756768   -0.395371   -0.641226
    121          1           0       11.246760    1.059270    0.155253
    122          1           0       11.071819    1.432248   -2.768246
    123          1           0       11.939450   -0.030842   -2.322835
    124          1           0       12.522854    2.518642   -0.784705
    125          1           0       13.120626    1.998383   -3.663617
    126          1           0       14.390920    2.796087   -2.752445
    127          1           0       12.739344    3.514750   -2.940354
    128          1           0       14.525623    0.741233   -2.004619
    129          1           0       13.613101   -0.117903   -0.748445
    130          1           0       14.468014    2.643024    0.168964
    131          1           0       15.837612    1.633913   -0.202293
    132          1           0       15.381300    1.249680    2.047312
    133          1           0       14.284985    0.011836    1.198545
    134          1           0       12.550145    1.870843    1.385865
    135          1           0       14.669304    3.371638    2.639931
    136          1           0       13.347452    3.110083    3.809827
    137          1           0       13.029344    3.935981    2.322827
    138          1           0       13.464061    0.075553    3.531412
    139          1           0       12.030923    0.020496    2.585254
    140          1           0       12.315871    1.193706    4.024689
 ---------------------------------------------------------------------

 SCF Done:  E(RCAM-B3LYP) =  -3007.17605602     A.U. after   19 cycles

 Excitation energies and oscillator strengths:

 Excited State   1:      Singlet-A      1.6767 eV  739.46 nm  f=0.3870  <S**2>=0.000
     245 -> 248       -0.17306
     246 -> 247        0.68711
     245 <- 248       -0.10463
 This state for optimization and/or second-order correction.
 Total Energy, E(TD-HF/TD-DFT) =  -3007.11443868
 Copying the excited state density for this state as the 1-particle RhoCI density.

 Excited State   2:      Singlet-A      2.1958 eV  564.64 nm  f=0.1275  <S**2>=0.000
     245 -> 247        0.64512
     246 -> 248        0.27406

 Excited State   3:      Singlet-A      3.4287 eV  361.61 nm  f=0.0929  <S**2>=0.000
     243 -> 247       -0.28027
     244 -> 247        0.53059
     245 -> 247       -0.10446
     246 -> 248        0.33811

 Excited State   4:      Singlet-A      3.5550 eV  348.76 nm  f=0.5296  <S**2>=0.000
     244 -> 247       -0.39784
     245 -> 247       -0.23750
     246 -> 248        0.52093

 Excited State   5:      Singlet-A      3.6674 eV  338.07 nm  f=0.0138  <S**2>=0.000
     239 -> 247        0.55312
     239 -> 248       -0.18502
     239 -> 249       -0.25830
     239 -> 250        0.21213
     239 -> 251       -0.13154

 The electronic state is 1-A.
 Alpha  occ. eigenvalues --  -46.89028 -19.26383 -19.23551 -19.19585 -19.19135
 Alpha  occ. eigenvalues --  -19.19074 -19.19052 -14.42115 -14.41647 -14.40029
 Alpha  occ. eigenvalues --  -14.39090 -10.40174 -10.38668 -10.35412 -10.35149
 Alpha  occ. eigenvalues --  -10.33295 -10.31898 -10.31106 -10.31053 -10.30893
 Alpha  occ. eigenvalues --  -10.30627 -10.29996 -10.29645 -10.29448 -10.29244
 Alpha  occ. eigenvalues --  -10.28465 -10.28081 -10.28079 -10.27955 -10.27837
 Alpha  occ. eigenvalues --  -10.27699 -10.27653 -10.27562 -10.27547 -10.27518
 Alpha  occ. eigenvalues --  -10.27483 -10.27394 -10.27352 -10.27131 -10.26449
 Alpha  occ. eigenvalues --  -10.26434 -10.26223 -10.26134 -10.25896 -10.25887
 Alpha  occ. eigenvalues --  -10.25858 -10.25729 -10.25614 -10.25601 -10.25394
 Alpha  occ. eigenvalues --  -10.25383 -10.25325 -10.25257 -10.25187 -10.25118
 Alpha  occ. eigenvalues --  -10.25085 -10.25054 -10.25021 -10.24944 -10.24778
 Alpha  occ. eigenvalues --  -10.24696 -10.24627 -10.24522 -10.24393 -10.24339
 Alpha  occ. eigenvalues --  -10.24207  -3.17426  -1.92339  -1.91840  -1.91757
 Alpha  occ. eigenvalues --   -1.17575  -1.14934  -1.10390  -1.09741  -1.06557
 Alpha  occ. eigenvalues --   -1.06070  -1.04206  -1.02693  -1.02567  -1.01538
 Alpha  occ. eigenvalues --   -0.93146  -0.91500  -0.90557  -0.90194  -0.89546
 Alpha  occ. eigenvalues --   -0.88703  -0.88248  -0.87872  -0.87015  -0.86780
 Alpha  occ. eigenvalues --   -0.85842  -0.85373  -0.84465  -0.83794  -0.83372
 Alpha  occ. eigenvalues --   -0.82729  -0.82304  -0.81874  -0.80822  -0.79927
 Alpha  occ. eigenvalues --   -0.79827  -0.78033  -0.77796  -0.76928  -0.76626
 Alpha  occ. eigenvalues --   -0.76023  -0.75716  -0.75244  -0.74567  -0.74117
 Alpha  occ. eigenvalues --   -0.73701  -0.72428  -0.70933  -0.70462  -0.69043
 Alpha  occ. eigenvalues --   -0.68500  -0.68315  -0.67596  -0.67236  -0.66583
 Alpha  occ. eigenvalues --   -0.65344  -0.65309  -0.64568  -0.64407  -0.64007
 Alpha  occ. eigenvalues --   -0.63747  -0.62694  -0.62171  -0.61515  -0.60185
 Alpha  occ. eigenvalues --   -0.60020  -0.59669  -0.59066  -0.58539  -0.58386
 Alpha  occ. eigenvalues --   -0.57586  -0.56897  -0.56102  -0.55753  -0.55586
 Alpha  occ. eigenvalues --   -0.55477  -0.55329  -0.54639  -0.54395  -0.54279
 Alpha  occ. eigenvalues --   -0.53798  -0.53551  -0.53470  -0.53253  -0.53100
 Alpha  occ. eigenvalues --   -0.52819  -0.52668  -0.52352  -0.52227  -0.51741
 Alpha  occ. eigenvalues --   -0.51554  -0.51494  -0.51219  -0.50948  -0.50649
 Alpha  occ. eigenvalues --   -0.50476  -0.50253  -0.50216  -0.49977  -0.49663
 Alpha  occ. eigenvalues --   -0.49487  -0.49403  -0.49238  -0.49182  -0.48797
 Alpha  occ. eigenvalues --   -0.48712  -0.48328  -0.48233  -0.47969  -0.47908
 Alpha  occ. eigenvalues --   -0.47190  -0.47104  -0.47027  -0.46747  -0.46549
 Alpha  occ. eigenvalues --   -0.46374  -0.46217  -0.45869  -0.45802  -0.45363
 Alpha  occ. eigenvalues --   -0.45228  -0.45102  -0.44984  -0.44605  -0.44555
 Alpha  occ. eigenvalues --   -0.44423  -0.44276  -0.44203  -0.44023  -0.43751
 Alpha  occ. eigenvalues --   -0.43501  -0.43356  -0.43252  -0.43070  -0.42705
 Alpha  occ. eigenvalues --   -0.42665  -0.42590  -0.42409  -0.42334  -0.42297
 Alpha  occ. eigenvalues --   -0.41824  -0.41792  -0.41627  -0.41509  -0.41413
 Alpha  occ. eigenvalues --   -0.41154  -0.40905  -0.40310  -0.40290  -0.40117
 Alpha  occ. eigenvalues --   -0.40032  -0.39740  -0.39515  -0.38801  -0.38421
 Alpha  occ. eigenvalues --   -0.38389  -0.37947  -0.37912  -0.37769  -0.37701
 Alpha  occ. eigenvalues --   -0.37339  -0.37150  -0.36920  -0.36329  -0.35888
 Alpha  occ. eigenvalues --   -0.35792  -0.35353  -0.34792  -0.34103  -0.34083
 Alpha  occ. eigenvalues --   -0.33817  -0.33596  -0.32491  -0.31507  -0.31215
 Alpha  occ. eigenvalues --   -0.31148  -0.30225  -0.30158  -0.29878  -0.23702
 Alpha  occ. eigenvalues --   -0.20836
 Alpha virt. eigenvalues --   -0.08568  -0.01374   0.00341   0.01949   0.02598
 Alpha virt. eigenvalues --    0.03956   0.04957   0.05656   0.06205   0.06953
 Alpha virt. eigenvalues --    0.07759   0.07982   0.08840   0.09028   0.09167

 Mulliken charges:
               1
     1  Mg   0.819397
     2  C   -0.002748
     3  C   -0.062234
     4  C   -0.049673
     5  C   -0.063160
     6  N   -0.299935
     7  C   -0.103781
     8  C   -0.023171
     9  C   -0.070629
    10  C    0.089823
    11  C    0.034503
    12  C    0.053481
    13  C    0.137124
    14  C    0.151683
    15  O   -0.276748
    16  O   -0.314958
    17  N   -0.363589
    18  C    0.139167
    19  C   -0.155134
    20  C   -0.043852
    21  C    0.067551
    22  C    0.128041
    23  C    0.011658
    24  O   -0.199549
    25  C    0.049292
    26  N   -0.300340
    27  C    0.068779
    28  C   -0.058240
    29  C   -0.009994
    30  C    0.028451
    31  C    0.054759
    32  C    0.057324
    33  C   -0.011171
    34  N   -0.319247
    35  C    0.103506
    36  C   -0.191920
    37  C    0.029069
    38  C    0.103796
    39  C    0.107833
    40  C    0.039496
    41  O   -0.157913
    42  C    0.038697
    43  C    0.201652
    44  O   -0.233451
    45  O   -0.338083
    46  C    0.193051
    47  C    0.321754
    48  C   -0.138994
    49  C   -0.205019
    50  C    0.065686
    51  C    0.076947
    52  C    0.047748
    53  C    0.085105
    54  C   -0.139619
    55  C    0.058986
    56  C    0.058652
    57  C    0.001862
    58  C    0.077049
    59  C   -0.179578
    60  C    0.040863
    61  C    0.050453
    62  C    0.004043
    63  C    0.064717
    64  C   -0.179382
    65  C    0.055694
    66  C    0.063947
    67  H   -0.028262
    68  H   -0.005314
    69  H   -0.030896
    70  H    0.031823
    71  H    0.014128
    72  H    0.010899
    73  H    0.004954
    74  H    0.043643
    75  H   -0.004529
    76  H    0.004003
    77  H    0.021534
    78  H    0.030076
    79  H    0.020488
    80  H    0.018962
    81  H    0.028328
    82  H    0.047152
    83  H    0.036899
    84  H    0.017334
    85  H    0.015493
    86  H    0.017498
    87  H    0.007024
    88  H    0.020554
    89  H    0.033861
    90  H    0.010937
    91  H    0.015893
    92  H    0.002211
    93  H    0.006526
    94  H    0.025370
    95  H   -0.003575
    96  H    0.037987
    97  H    0.027291
    98  H    0.050208
    99  H    0.019090
   100  H    0.055191
   101  H    0.026919
   102  H    0.044570
   103  H    0.045229
   104  H   -0.006864
   105  H    0.027912
   106  H    0.002565
   107  H    0.016516
   108  H    0.012414
   109  H   -0.013734
   110  H    0.009265
   111  H    0.006657
   112  H   -0.014201
   113  H   -0.005121
   114  H   -0.012626
   115  H    0.000512
   116  H    0.008022
   117  H    0.000006
   118  H   -0.016171
   119  H    0.001263
   120  H   -0.005092
   121  H   -0.010402
   122  H   -0.011659
   123  H   -0.011138
   124  H    0.003794
   125  H   -0.001692
   126  H    0.010788
   127  H    0.005416
   128  H   -0.005202
   129  H   -0.005943
   130  H   -0.011260
   131  H   -0.005470
   132  H   -0.003314
   133  H   -0.009980
   134  H    0.004943
   135  H    0.009040
   136  H    0.001034
   137  H    0.010223
   138  H   -0.006234
   139  H    0.015647
   140  H    0.001064
 Sum of Mulliken charges =  -0.00000

 Dipole moment (field-independent basis, Debye):
    X=              5.1606    Y=              4.0271    Z=             -3.7085  Tot=              7.5234
 Quadrupole moment (field-independent basis, Debye-Ang):
   XX=           -385.5542   YY=           -431.8353   ZZ=           -405.9648
   XY=            -19.3643   XZ=             19.9971   YZ=             13.2233

 Normal termination of Gaussian 16 at Thu May  5 00:12:52 2022.
