 Gaussian 16, Revision A.03,
 Gaussian 16:  ES64L-G16RevA.03 25-Dec-2016

 ---------------------------------
 #p PBE1PBE/Def2SVP td=(nstates=5)
 ---------------------------------

 ----------------------------------------------------
 step_501_chromophore_3 TDDFT with PBE1PBE functional
 ----------------------------------------------------
 Symbolic Z-matrix:
 Charge =  0 Multiplicity = 1

                         Standard orientation:
 ---------------------------------------------------------------------
 Center     Atomic      Atomic             Coordinates (Angstroms)
 Number     Number       Type             X           Y           Z
 ---------------------------------------------------------------------
      1         12           0       -5.360992    0.909496   -0.167659
      2          6           0       -4.439464   -2.461806    0.082463
      3          6           0       -2.056318    1.772805    0.764983
      4          6           0       -6.308535    4.168392   -0.061652
      5          6           0       -8.665518   -0.076926   -0.335307
      6          7           0       -3.491813   -0.228577    0.182880
      7          6           0       -3.361092   -1.613222    0.042645
      8          6           0       -1.838563   -1.974632   -0.098620
      9          6           0       -1.149572   -0.641080    0.213251
     10          6           0       -2.313375    0.382598    0.454284
     11          6           0       -0.237409   -0.781946    1.461590
     12          6           0       -1.601995   -2.548328   -1.490348
     13          6           0       -0.457825   -3.532097   -1.672730
     14          6           0        0.587144   -3.656628   -0.540952
     15          8           0        0.510566   -4.483032    0.405024
     16          8           0        1.613533   -2.822979   -0.689801
     17          7           0       -4.365372    2.746021    0.267497
     18          6           0       -3.019511    2.880843    0.658074
     19          6           0       -2.699397    4.273943    0.915366
     20          6           0       -3.888721    5.051520    0.624658
     21          6           0       -4.923199    3.985064    0.277465
     22          6           0       -1.290786    4.793910    1.229518
     23          6           0       -4.125406    6.549469    0.643884
     24          8           0       -5.219854    7.005763    0.341097
     25          6           0       -2.963438    7.448916    0.824396
     26          7           0       -7.254239    1.885191   -0.266543
     27          6           0       -7.361570    3.242815   -0.293833
     28          6           0       -8.825524    3.645680   -0.610954
     29          6           0       -9.594252    2.276632   -0.768179
     30          6           0       -8.442011    1.260865   -0.556027
     31          6           0       -9.384935    4.550478    0.501484
     32          6           0      -10.247141    2.049182   -2.157465
     33          6           0      -11.744575    2.323382   -2.058364
     34          7           0       -6.452098   -0.870742   -0.033919
     35          6           0       -7.777564   -1.151898   -0.042428
     36          6           0       -7.927678   -2.586356    0.303353
     37          6           0       -6.687992   -3.153721    0.256153
     38          6           0       -5.817751   -2.045994    0.091162
     39          6           0       -9.296974   -3.230283    0.441629
     40          6           0       -5.905343   -4.395374    0.317018
     41          8           0       -6.288772   -5.543489    0.505845
     42          6           0       -4.463178   -3.970748    0.117952
     43          6           0       -3.713289   -4.599034    1.217065
     44          8           0       -3.618117   -4.275617    2.408736
     45          8           0       -3.129505   -5.744715    0.716403
     46          6           0       -2.392395   -6.562774    1.654794
     47          6           0        2.831318   -3.051464    0.116379
     48          6           0        3.956812   -2.864224   -0.863468
     49          6           0        5.272221   -3.129407   -0.813375
     50          6           0        5.919421   -3.854956    0.310553
     51          6           0        6.227545   -2.669655   -1.872720
     52          6           0        6.441375   -1.099623   -1.919108
     53          6           0        7.877119   -0.723733   -1.791425
     54          6           0        8.139931    0.228854   -0.597274
     55          6           0        8.307281   -0.458669    0.725988
     56          6           0        9.226828    1.253301   -0.919513
     57          6           0       10.714400    0.690097   -0.721957
     58          6           0       11.617782    0.945975   -1.959556
     59          6           0       12.775861    1.776451   -1.542861
     60          6           0       13.318520    2.605223   -2.780130
     61          6           0       13.958486    0.861239   -1.081442
     62          6           0       14.780153    1.604159    0.058935
     63          6           0       14.482500    1.050696    1.463031
     64          6           0       13.307802    1.701339    2.151142
     65          6           0       13.614091    3.123767    2.753737
     66          6           0       12.682461    0.713326    3.117902
     67          1           0       -1.009256    2.000840    0.973948
     68          1           0       -6.503998    5.241598   -0.112110
     69          1           0       -9.734312   -0.299097   -0.304915
     70          1           0       -1.736693   -2.705479    0.704530
     71          1           0       -0.447374   -0.472418   -0.603130
     72          1           0       -0.581191   -0.243720    2.345058
     73          1           0        0.658696   -0.200928    1.245461
     74          1           0       -0.098295   -1.822223    1.755177
     75          1           0       -1.516531   -1.668730   -2.129119
     76          1           0       -2.524805   -3.008658   -1.841391
     77          1           0        0.044356   -3.309334   -2.613190
     78          1           0       -1.004881   -4.465624   -1.809093
     79          1           0       -0.557110    4.006557    1.403463
     80          1           0       -1.317183    5.418013    2.123769
     81          1           0       -0.990079    5.478914    0.437651
     82          1           0       -2.301633    7.336539   -0.034736
     83          1           0       -2.538089    7.345179    1.822575
     84          1           0       -3.251835    8.498683    0.769500
     85          1           0       -8.809832    4.247181   -1.519539
     86          1           0      -10.275800    2.236458    0.082520
     87          1           0      -10.291202    4.207750    0.999961
     88          1           0       -9.643906    5.420595   -0.101403
     89          1           0       -8.707729    4.710936    1.339910
     90          1           0      -10.268615    0.985202   -2.393904
     91          1           0       -9.812478    2.655675   -2.952257
     92          1           0      -11.946007    2.956932   -2.922023
     93          1           0      -12.028110    2.966914   -1.225904
     94          1           0      -12.384754    1.440845   -2.071629
     95          1           0      -10.135218   -2.535578    0.500834
     96          1           0       -9.363121   -3.893870    1.302952
     97          1           0       -9.526956   -3.741524   -0.493831
     98          1           0       -4.143617   -4.335133   -0.857830
     99          1           0       -3.039544   -6.741646    2.513840
    100          1           0       -1.469944   -6.099640    2.005753
    101          1           0       -2.409017   -7.560847    1.218305
    102          1           0        2.924004   -4.084288    0.452131
    103          1           0        2.809453   -2.344566    0.946245
    104          1           0        3.703826   -2.293068   -1.756286
    105          1           0        6.252293   -3.182309    1.100604
    106          1           0        6.832894   -4.368970    0.011451
    107          1           0        5.330556   -4.670771    0.731093
    108          1           0        5.858800   -3.078981   -2.812882
    109          1           0        7.173419   -3.195092   -1.742206
    110          1           0        5.879773   -0.720701   -1.065823
    111          1           0        5.929606   -0.726916   -2.807532
    112          1           0        8.230026   -0.177925   -2.667008
    113          1           0        8.549861   -1.578444   -1.724133
    114          1           0        7.242575    0.801450   -0.363260
    115          1           0        7.352075   -0.877279    1.044372
    116          1           0        8.660738    0.295287    1.428849
    117          1           0        8.986225   -1.311678    0.728776
    118          1           0        9.250278    2.091064   -0.222995
    119          1           0        9.026588    1.756884   -1.864635
    120          1           0       10.756768   -0.395371   -0.641226
    121          1           0       11.246760    1.059270    0.155253
    122          1           0       11.071819    1.432248   -2.768246
    123          1           0       11.939450   -0.030842   -2.322835
    124          1           0       12.522854    2.518642   -0.784705
    125          1           0       13.120626    1.998383   -3.663617
    126          1           0       14.390920    2.796087   -2.752445
    127          1           0       12.739344    3.514750   -2.940354
    128          1           0       14.525623    0.741233   -2.004619
    129          1           0       13.613101   -0.117903   -0.748445
    130          1           0       14.468014    2.643024    0.168964
    131          1           0       15.837612    1.633913   -0.202293
    132          1           0       15.381300    1.249680    2.047312
    133          1           0       14.284985    0.011836    1.198545
    134          1           0       12.550145    1.870843    1.385865
    135          1           0       14.669304    3.371638    2.639931
    136          1           0       13.347452    3.110083    3.809827
    137          1           0       13.029344    3.935981    2.322827
    138          1           0       13.464061    0.075553    3.531412
    139          1           0       12.030923    0.020496    2.585254
    140          1           0       12.315871    1.193706    4.024689
 ---------------------------------------------------------------------

 SCF Done:  E(RPBE1PBE) =  -3005.36510073     A.U. after   15 cycles

 Excitation energies and oscillator strengths:

 Excited State   1:      Singlet-A      1.8256 eV  679.15 nm  f=0.3741  <S**2>=0.000
     245 -> 248       -0.16213
     246 -> 247        0.69466
     246 <- 247       -0.11143
 This state for optimization and/or second-order correction.
 Total Energy, E(TD-HF/TD-DFT) =  -3005.29801208
 Copying the excited state density for this state as the 1-particle RhoCI density.

 Excited State   2:      Singlet-A      2.2006 eV  563.42 nm  f=0.1223  <S**2>=0.000
     245 -> 247        0.65551
     246 -> 248        0.24590

 Excited State   3:      Singlet-A      3.1430 eV  394.48 nm  f=0.0009  <S**2>=0.000
     244 -> 247        0.68789

 Excited State   4:      Singlet-A      3.1698 eV  391.14 nm  f=0.0004  <S**2>=0.000
     241 -> 247        0.65227
     241 -> 248       -0.12328
     241 -> 249       -0.11847
     241 -> 250       -0.12446
     242 -> 247        0.11170

 Excited State   5:      Singlet-A      3.2198 eV  385.07 nm  f=0.0031  <S**2>=0.000
     240 -> 247        0.45751
     240 -> 249        0.16049
     241 -> 247       -0.13722
     242 -> 247        0.44897
     246 -> 248       -0.13432

 The electronic state is 1-A.
 Alpha  occ. eigenvalues --  -46.92435 -19.27040 -19.24277 -19.19909 -19.19403
 Alpha  occ. eigenvalues --  -19.19368 -19.19166 -14.41648 -14.41174 -14.39608
 Alpha  occ. eigenvalues --  -14.38824 -10.37242 -10.35736 -10.32418 -10.32344
 Alpha  occ. eigenvalues --  -10.30681 -10.29494 -10.28744 -10.28556 -10.28531
 Alpha  occ. eigenvalues --  -10.28438 -10.27922 -10.27252 -10.26918 -10.26891
 Alpha  occ. eigenvalues --  -10.26376 -10.25768 -10.25718 -10.25570 -10.25504
 Alpha  occ. eigenvalues --  -10.25445 -10.25433 -10.25422 -10.25330 -10.25296
 Alpha  occ. eigenvalues --  -10.25227 -10.24978 -10.24833 -10.24765 -10.24132
 Alpha  occ. eigenvalues --  -10.23914 -10.23775 -10.23583 -10.23473 -10.23411
 Alpha  occ. eigenvalues --  -10.23296 -10.23276 -10.23267 -10.23255 -10.22974
 Alpha  occ. eigenvalues --  -10.22964 -10.22948 -10.22764 -10.22711 -10.22673
 Alpha  occ. eigenvalues --  -10.22666 -10.22597 -10.22533 -10.22422 -10.22420
 Alpha  occ. eigenvalues --  -10.22242 -10.22136 -10.22058 -10.21768 -10.21756
 Alpha  occ. eigenvalues --  -10.21752  -3.14416  -1.87269  -1.86748  -1.86669
 Alpha  occ. eigenvalues --   -1.12402  -1.09753  -1.04941  -1.04599  -1.01405
 Alpha  occ. eigenvalues --   -1.00941  -0.99046  -0.97311  -0.97146  -0.96098
 Alpha  occ. eigenvalues --   -0.87609  -0.85624  -0.84663  -0.84388  -0.83671
 Alpha  occ. eigenvalues --   -0.83007  -0.82373  -0.82118  -0.81363  -0.80990
 Alpha  occ. eigenvalues --   -0.80152  -0.79674  -0.78653  -0.78149  -0.77592
 Alpha  occ. eigenvalues --   -0.76944  -0.76416  -0.76052  -0.75178  -0.74203
 Alpha  occ. eigenvalues --   -0.74049  -0.72252  -0.72018  -0.71297  -0.70778
 Alpha  occ. eigenvalues --   -0.70105  -0.70099  -0.69384  -0.68946  -0.68274
 Alpha  occ. eigenvalues --   -0.68005  -0.66915  -0.65339  -0.64799  -0.63269
 Alpha  occ. eigenvalues --   -0.63032  -0.62677  -0.61787  -0.61606  -0.60732
 Alpha  occ. eigenvalues --   -0.59801  -0.59696  -0.59086  -0.58935  -0.58330
 Alpha  occ. eigenvalues --   -0.58077  -0.56914  -0.56386  -0.56142  -0.54629
 Alpha  occ. eigenvalues --   -0.54473  -0.54180  -0.53625  -0.53163  -0.52888
 Alpha  occ. eigenvalues --   -0.52216  -0.51360  -0.50573  -0.50345  -0.50082
 Alpha  occ. eigenvalues --   -0.49955  -0.49881  -0.49239  -0.48868  -0.48787
 Alpha  occ. eigenvalues --   -0.48279  -0.48047  -0.47776  -0.47701  -0.47669
 Alpha  occ. eigenvalues --   -0.47334  -0.47304  -0.46953  -0.46692  -0.46359
 Alpha  occ. eigenvalues --   -0.46117  -0.46092  -0.45900  -0.45444  -0.45241
 Alpha  occ. eigenvalues --   -0.45037  -0.44774  -0.44765  -0.44498  -0.44147
 Alpha  occ. eigenvalues --   -0.44051  -0.44006  -0.43875  -0.43845  -0.43421
 Alpha  occ. eigenvalues --   -0.43338  -0.42920  -0.42863  -0.42570  -0.42530
 Alpha  occ. eigenvalues --   -0.41818  -0.41789  -0.41628  -0.41376  -0.41303
 Alpha  occ. eigenvalues --   -0.41001  -0.40906  -0.40656  -0.40481  -0.39975
 Alpha  occ. eigenvalues --   -0.39911  -0.39806  -0.39747  -0.39333  -0.39213
 Alpha  occ. eigenvalues --   -0.39181  -0.39042  -0.38974  -0.38849  -0.38413
 Alpha  occ. eigenvalues --   -0.38319  -0.38166  -0.37983  -0.37786  -0.37455
 Alpha  occ. eigenvalues --   -0.37387  -0.37367  -0.37242  -0.37194  -0.37057
 Alpha  occ. eigenvalues --   -0.36684  -0.36658  -0.36355  -0.36316  -0.36202
 Alpha  occ. eigenvalues --   -0.36077  -0.35651  -0.35140  -0.35029  -0.34907
 Alpha  occ. eigenvalues --   -0.34819  -0.34658  -0.34206  -0.33748  -0.33402
 Alpha  occ. eigenvalues --   -0.33272  -0.32921  -0.32793  -0.32748  -0.32519
 Alpha  occ. eigenvalues --   -0.32204  -0.32059  -0.31815  -0.31451  -0.30856
 Alpha  occ. eigenvalues --   -0.30741  -0.30320  -0.29701  -0.29301  -0.29030
 Alpha  occ. eigenvalues --   -0.28627  -0.28472  -0.28054  -0.26802  -0.26202
 Alpha  occ. eigenvalues --   -0.26087  -0.25800  -0.25518  -0.25451  -0.20632
 Alpha  occ. eigenvalues --   -0.18477
 Alpha virt. eigenvalues --   -0.11017  -0.04963  -0.03871  -0.02321  -0.00670
 Alpha virt. eigenvalues --   -0.00277   0.00519   0.01129   0.01673   0.03289
 Alpha virt. eigenvalues --    0.04268   0.04538   0.04755   0.05555   0.05799

 Mulliken charges:
               1
     1  Mg   0.965308
     2  C   -0.014443
     3  C   -0.050198
     4  C   -0.043705
     5  C   -0.065975
     6  N   -0.403950
     7  C   -0.027225
     8  C   -0.098501
     9  C   -0.148200
    10  C    0.126051
    11  C   -0.017770
    12  C    0.005404
    13  C    0.063653
    14  C    0.215682
    15  O   -0.309437
    16  O   -0.346128
    17  N   -0.473323
    18  C    0.157655
    19  C   -0.180185
    20  C   -0.090337
    21  C    0.102233
    22  C    0.065056
    23  C    0.059552
    24  O   -0.238923
    25  C   -0.024747
    26  N   -0.404791
    27  C    0.099608
    28  C   -0.128444
    29  C   -0.094600
    30  C    0.071375
    31  C    0.000470
    32  C   -0.002185
    33  C   -0.079886
    34  N   -0.445392
    35  C    0.129088
    36  C   -0.211055
    37  C   -0.018812
    38  C    0.155667
    39  C    0.059587
    40  C    0.139387
    41  O   -0.204646
    42  C   -0.070756
    43  C    0.288492
    44  O   -0.268844
    45  O   -0.370301
    46  C    0.137977
    47  C    0.280282
    48  C   -0.147131
    49  C   -0.259082
    50  C    0.007675
    51  C    0.019838
    52  C   -0.015880
    53  C    0.032943
    54  C   -0.231901
    55  C    0.000376
    56  C    0.002553
    57  C   -0.072100
    58  C    0.027614
    59  C   -0.272084
    60  C   -0.019855
    61  C   -0.001855
    62  C   -0.057426
    63  C    0.003133
    64  C   -0.284655
    65  C   -0.000961
    66  C    0.002243
    67  H    0.004176
    68  H    0.027903
    69  H    0.002247
    70  H    0.075059
    71  H    0.049725
    72  H    0.038622
    73  H    0.031723
    74  H    0.068813
    75  H    0.028255
    76  H    0.038684
    77  H    0.053330
    78  H    0.062348
    79  H    0.046768
    80  H    0.046876
    81  H    0.055576
    82  H    0.073025
    83  H    0.062925
    84  H    0.044925
    85  H    0.051545
    86  H    0.053601
    87  H    0.033508
    88  H    0.047200
    89  H    0.061268
    90  H    0.044946
    91  H    0.047083
    92  H    0.030879
    93  H    0.034934
    94  H    0.052013
    95  H    0.024284
    96  H    0.065482
    97  H    0.056009
    98  H    0.087493
    99  H    0.041758
   100  H    0.077757
   101  H    0.049331
   102  H    0.070483
   103  H    0.070642
   104  H    0.023697
   105  H    0.056321
   106  H    0.029038
   107  H    0.043271
   108  H    0.045163
   109  H    0.017544
   110  H    0.042436
   111  H    0.038407
   112  H    0.019815
   113  H    0.025518
   114  H    0.026976
   115  H    0.031410
   116  H    0.036672
   117  H    0.026312
   118  H    0.017459
   119  H    0.031869
   120  H    0.026961
   121  H    0.037158
   122  H    0.020743
   123  H    0.021696
   124  H    0.041645
   125  H    0.026803
   126  H    0.038582
   127  H    0.034167
   128  H    0.028165
   129  H    0.025166
   130  H    0.024216
   131  H    0.026743
   132  H    0.029928
   133  H    0.023957
   134  H    0.052551
   135  H    0.035583
   136  H    0.028648
   137  H    0.036723
   138  H    0.022429
   139  H    0.043515
   140  H    0.028303
 Sum of Mulliken charges =  -0.00000

 Dipole moment (field-independent basis, Debye):
    X=              4.8992    Y=              3.6702    Z=             -3.8107  Tot=              7.2107
 Quadrupole moment (field-independent basis, Debye-Ang):
   XX=           -377.0138   YY=           -429.9977   ZZ=           -403.4159
   XY=            -18.0472   XZ=             20.6806   YZ=             12.5724

 Normal termination of Gaussian 16 at Thu May  5 00:32:37 2022.
