 Gaussian 16, Revision A.03,
 Gaussian 16:  ES64L-G16RevA.03 25-Dec-2016

 --------------------------------
 #p wB97XD/Def2SVP td=(nstates=5)
 --------------------------------

 ---------------------------------------------------
 step_501_chromophore_3 TDDFT with wB97XD functional
 ---------------------------------------------------
 Symbolic Z-matrix:
 Charge =  0 Multiplicity = 1

                         Standard orientation:
 ---------------------------------------------------------------------
 Center     Atomic      Atomic             Coordinates (Angstroms)
 Number     Number       Type             X           Y           Z
 ---------------------------------------------------------------------
      1         12           0       -5.360992    0.909496   -0.167659
      2          6           0       -4.439464   -2.461806    0.082463
      3          6           0       -2.056318    1.772805    0.764983
      4          6           0       -6.308535    4.168392   -0.061652
      5          6           0       -8.665518   -0.076926   -0.335307
      6          7           0       -3.491813   -0.228577    0.182880
      7          6           0       -3.361092   -1.613222    0.042645
      8          6           0       -1.838563   -1.974632   -0.098620
      9          6           0       -1.149572   -0.641080    0.213251
     10          6           0       -2.313375    0.382598    0.454284
     11          6           0       -0.237409   -0.781946    1.461590
     12          6           0       -1.601995   -2.548328   -1.490348
     13          6           0       -0.457825   -3.532097   -1.672730
     14          6           0        0.587144   -3.656628   -0.540952
     15          8           0        0.510566   -4.483032    0.405024
     16          8           0        1.613533   -2.822979   -0.689801
     17          7           0       -4.365372    2.746021    0.267497
     18          6           0       -3.019511    2.880843    0.658074
     19          6           0       -2.699397    4.273943    0.915366
     20          6           0       -3.888721    5.051520    0.624658
     21          6           0       -4.923199    3.985064    0.277465
     22          6           0       -1.290786    4.793910    1.229518
     23          6           0       -4.125406    6.549469    0.643884
     24          8           0       -5.219854    7.005763    0.341097
     25          6           0       -2.963438    7.448916    0.824396
     26          7           0       -7.254239    1.885191   -0.266543
     27          6           0       -7.361570    3.242815   -0.293833
     28          6           0       -8.825524    3.645680   -0.610954
     29          6           0       -9.594252    2.276632   -0.768179
     30          6           0       -8.442011    1.260865   -0.556027
     31          6           0       -9.384935    4.550478    0.501484
     32          6           0      -10.247141    2.049182   -2.157465
     33          6           0      -11.744575    2.323382   -2.058364
     34          7           0       -6.452098   -0.870742   -0.033919
     35          6           0       -7.777564   -1.151898   -0.042428
     36          6           0       -7.927678   -2.586356    0.303353
     37          6           0       -6.687992   -3.153721    0.256153
     38          6           0       -5.817751   -2.045994    0.091162
     39          6           0       -9.296974   -3.230283    0.441629
     40          6           0       -5.905343   -4.395374    0.317018
     41          8           0       -6.288772   -5.543489    0.505845
     42          6           0       -4.463178   -3.970748    0.117952
     43          6           0       -3.713289   -4.599034    1.217065
     44          8           0       -3.618117   -4.275617    2.408736
     45          8           0       -3.129505   -5.744715    0.716403
     46          6           0       -2.392395   -6.562774    1.654794
     47          6           0        2.831318   -3.051464    0.116379
     48          6           0        3.956812   -2.864224   -0.863468
     49          6           0        5.272221   -3.129407   -0.813375
     50          6           0        5.919421   -3.854956    0.310553
     51          6           0        6.227545   -2.669655   -1.872720
     52          6           0        6.441375   -1.099623   -1.919108
     53          6           0        7.877119   -0.723733   -1.791425
     54          6           0        8.139931    0.228854   -0.597274
     55          6           0        8.307281   -0.458669    0.725988
     56          6           0        9.226828    1.253301   -0.919513
     57          6           0       10.714400    0.690097   -0.721957
     58          6           0       11.617782    0.945975   -1.959556
     59          6           0       12.775861    1.776451   -1.542861
     60          6           0       13.318520    2.605223   -2.780130
     61          6           0       13.958486    0.861239   -1.081442
     62          6           0       14.780153    1.604159    0.058935
     63          6           0       14.482500    1.050696    1.463031
     64          6           0       13.307802    1.701339    2.151142
     65          6           0       13.614091    3.123767    2.753737
     66          6           0       12.682461    0.713326    3.117902
     67          1           0       -1.009256    2.000840    0.973948
     68          1           0       -6.503998    5.241598   -0.112110
     69          1           0       -9.734312   -0.299097   -0.304915
     70          1           0       -1.736693   -2.705479    0.704530
     71          1           0       -0.447374   -0.472418   -0.603130
     72          1           0       -0.581191   -0.243720    2.345058
     73          1           0        0.658696   -0.200928    1.245461
     74          1           0       -0.098295   -1.822223    1.755177
     75          1           0       -1.516531   -1.668730   -2.129119
     76          1           0       -2.524805   -3.008658   -1.841391
     77          1           0        0.044356   -3.309334   -2.613190
     78          1           0       -1.004881   -4.465624   -1.809093
     79          1           0       -0.557110    4.006557    1.403463
     80          1           0       -1.317183    5.418013    2.123769
     81          1           0       -0.990079    5.478914    0.437651
     82          1           0       -2.301633    7.336539   -0.034736
     83          1           0       -2.538089    7.345179    1.822575
     84          1           0       -3.251835    8.498683    0.769500
     85          1           0       -8.809832    4.247181   -1.519539
     86          1           0      -10.275800    2.236458    0.082520
     87          1           0      -10.291202    4.207750    0.999961
     88          1           0       -9.643906    5.420595   -0.101403
     89          1           0       -8.707729    4.710936    1.339910
     90          1           0      -10.268615    0.985202   -2.393904
     91          1           0       -9.812478    2.655675   -2.952257
     92          1           0      -11.946007    2.956932   -2.922023
     93          1           0      -12.028110    2.966914   -1.225904
     94          1           0      -12.384754    1.440845   -2.071629
     95          1           0      -10.135218   -2.535578    0.500834
     96          1           0       -9.363121   -3.893870    1.302952
     97          1           0       -9.526956   -3.741524   -0.493831
     98          1           0       -4.143617   -4.335133   -0.857830
     99          1           0       -3.039544   -6.741646    2.513840
    100          1           0       -1.469944   -6.099640    2.005753
    101          1           0       -2.409017   -7.560847    1.218305
    102          1           0        2.924004   -4.084288    0.452131
    103          1           0        2.809453   -2.344566    0.946245
    104          1           0        3.703826   -2.293068   -1.756286
    105          1           0        6.252293   -3.182309    1.100604
    106          1           0        6.832894   -4.368970    0.011451
    107          1           0        5.330556   -4.670771    0.731093
    108          1           0        5.858800   -3.078981   -2.812882
    109          1           0        7.173419   -3.195092   -1.742206
    110          1           0        5.879773   -0.720701   -1.065823
    111          1           0        5.929606   -0.726916   -2.807532
    112          1           0        8.230026   -0.177925   -2.667008
    113          1           0        8.549861   -1.578444   -1.724133
    114          1           0        7.242575    0.801450   -0.363260
    115          1           0        7.352075   -0.877279    1.044372
    116          1           0        8.660738    0.295287    1.428849
    117          1           0        8.986225   -1.311678    0.728776
    118          1           0        9.250278    2.091064   -0.222995
    119          1           0        9.026588    1.756884   -1.864635
    120          1           0       10.756768   -0.395371   -0.641226
    121          1           0       11.246760    1.059270    0.155253
    122          1           0       11.071819    1.432248   -2.768246
    123          1           0       11.939450   -0.030842   -2.322835
    124          1           0       12.522854    2.518642   -0.784705
    125          1           0       13.120626    1.998383   -3.663617
    126          1           0       14.390920    2.796087   -2.752445
    127          1           0       12.739344    3.514750   -2.940354
    128          1           0       14.525623    0.741233   -2.004619
    129          1           0       13.613101   -0.117903   -0.748445
    130          1           0       14.468014    2.643024    0.168964
    131          1           0       15.837612    1.633913   -0.202293
    132          1           0       15.381300    1.249680    2.047312
    133          1           0       14.284985    0.011836    1.198545
    134          1           0       12.550145    1.870843    1.385865
    135          1           0       14.669304    3.371638    2.639931
    136          1           0       13.347452    3.110083    3.809827
    137          1           0       13.029344    3.935981    2.322827
    138          1           0       13.464061    0.075553    3.531412
    139          1           0       12.030923    0.020496    2.585254
    140          1           0       12.315871    1.193706    4.024689
 ---------------------------------------------------------------------

 SCF Done:  E(RwB97XD) =  -3007.87793330     A.U. after   19 cycles

 Excitation energies and oscillator strengths:

 Excited State   1:      Singlet-A      1.6239 eV  763.47 nm  f=0.3847  <S**2>=0.000
     245 -> 248       -0.17901
     246 -> 247        0.68465
     245 <- 248       -0.11357
 This state for optimization and/or second-order correction.
 Total Energy, E(TD-HF/TD-DFT) =  -3007.81825438
 Copying the excited state density for this state as the 1-particle RhoCI density.

 Excited State   2:      Singlet-A      2.1409 eV  579.13 nm  f=0.1244  <S**2>=0.000
     245 -> 247        0.64310
     246 -> 248        0.27677

 Excited State   3:      Singlet-A      3.4372 eV  360.71 nm  f=0.1173  <S**2>=0.000
     242 -> 247       -0.38195
     244 -> 247        0.43822
     245 -> 247       -0.11187
     246 -> 248        0.36280

 Excited State   4:      Singlet-A      3.5816 eV  346.17 nm  f=0.5465  <S**2>=0.000
     244 -> 247       -0.41733
     245 -> 247       -0.23991
     246 -> 248        0.50294

 Excited State   5:      Singlet-A      3.6759 eV  337.29 nm  f=0.0120  <S**2>=0.000
     239 -> 247        0.54040
     239 -> 248       -0.18737
     239 -> 249       -0.28040
     239 -> 250       -0.24927

 The electronic state is 1-A.
 Alpha  occ. eigenvalues --  -46.95370 -19.31573 -19.28769 -19.24515 -19.24214
 Alpha  occ. eigenvalues --  -19.24072 -19.24011 -14.46718 -14.46241 -14.44671
 Alpha  occ. eigenvalues --  -14.43641 -10.43988 -10.42511 -10.39418 -10.39131
 Alpha  occ. eigenvalues --  -10.37175 -10.35987 -10.35211 -10.35176 -10.35016
 Alpha  occ. eigenvalues --  -10.34644 -10.33958 -10.33693 -10.33351 -10.33198
 Alpha  occ. eigenvalues --  -10.32413 -10.32203 -10.32156 -10.32097 -10.31741
 Alpha  occ. eigenvalues --  -10.31719 -10.31709 -10.31642 -10.31567 -10.31560
 Alpha  occ. eigenvalues --  -10.31520 -10.31443 -10.31301 -10.31115 -10.30435
 Alpha  occ. eigenvalues --  -10.30354 -10.30240 -10.30142 -10.29842 -10.29796
 Alpha  occ. eigenvalues --  -10.29714 -10.29662 -10.29583 -10.29563 -10.29343
 Alpha  occ. eigenvalues --  -10.29240 -10.29204 -10.29203 -10.29068 -10.29054
 Alpha  occ. eigenvalues --  -10.29039 -10.28980 -10.28853 -10.28746 -10.28611
 Alpha  occ. eigenvalues --  -10.28611 -10.28607 -10.28439 -10.28211 -10.28189
 Alpha  occ. eigenvalues --  -10.28130  -3.21220  -1.94820  -1.94300  -1.94218
 Alpha  occ. eigenvalues --   -1.19749  -1.17087  -1.12652  -1.11944  -1.08719
 Alpha  occ. eigenvalues --   -1.08250  -1.06189  -1.04702  -1.04573  -1.03613
 Alpha  occ. eigenvalues --   -0.95104  -0.93298  -0.92328  -0.92014  -0.91335
 Alpha  occ. eigenvalues --   -0.90553  -0.90032  -0.89818  -0.88945  -0.88726
 Alpha  occ. eigenvalues --   -0.87723  -0.87299  -0.86342  -0.85684  -0.85264
 Alpha  occ. eigenvalues --   -0.84592  -0.84255  -0.83723  -0.82755  -0.81815
 Alpha  occ. eigenvalues --   -0.81733  -0.80026  -0.79691  -0.78847  -0.78461
 Alpha  occ. eigenvalues --   -0.77812  -0.77631  -0.77070  -0.76511  -0.75953
 Alpha  occ. eigenvalues --   -0.75614  -0.74406  -0.72891  -0.72398  -0.70918
 Alpha  occ. eigenvalues --   -0.70490  -0.70219  -0.69451  -0.69255  -0.68416
 Alpha  occ. eigenvalues --   -0.67283  -0.67227  -0.66554  -0.66381  -0.65795
 Alpha  occ. eigenvalues --   -0.65738  -0.64543  -0.64013  -0.63497  -0.62125
 Alpha  occ. eigenvalues --   -0.62029  -0.61595  -0.61058  -0.60491  -0.60325
 Alpha  occ. eigenvalues --   -0.59579  -0.58804  -0.57995  -0.57736  -0.57441
 Alpha  occ. eigenvalues --   -0.57419  -0.57275  -0.56628  -0.56285  -0.56154
 Alpha  occ. eigenvalues --   -0.55701  -0.55505  -0.55336  -0.55136  -0.55023
 Alpha  occ. eigenvalues --   -0.54738  -0.54611  -0.54275  -0.54091  -0.53673
 Alpha  occ. eigenvalues --   -0.53438  -0.53399  -0.53136  -0.52819  -0.52551
 Alpha  occ. eigenvalues --   -0.52442  -0.52166  -0.52110  -0.51927  -0.51627
 Alpha  occ. eigenvalues --   -0.51399  -0.51300  -0.51153  -0.51127  -0.50724
 Alpha  occ. eigenvalues --   -0.50639  -0.50212  -0.50177  -0.49844  -0.49819
 Alpha  occ. eigenvalues --   -0.49087  -0.49038  -0.48970  -0.48672  -0.48454
 Alpha  occ. eigenvalues --   -0.48245  -0.48118  -0.47806  -0.47680  -0.47195
 Alpha  occ. eigenvalues --   -0.47170  -0.46987  -0.46906  -0.46539  -0.46409
 Alpha  occ. eigenvalues --   -0.46349  -0.46209  -0.46102  -0.45953  -0.45613
 Alpha  occ. eigenvalues --   -0.45440  -0.45286  -0.45191  -0.45029  -0.44748
 Alpha  occ. eigenvalues --   -0.44524  -0.44462  -0.44339  -0.44215  -0.44172
 Alpha  occ. eigenvalues --   -0.43721  -0.43674  -0.43478  -0.43394  -0.43298
 Alpha  occ. eigenvalues --   -0.43108  -0.42745  -0.42192  -0.42147  -0.42036
 Alpha  occ. eigenvalues --   -0.41879  -0.41626  -0.41343  -0.40687  -0.40279
 Alpha  occ. eigenvalues --   -0.40273  -0.39841  -0.39770  -0.39684  -0.39553
 Alpha  occ. eigenvalues --   -0.39220  -0.39054  -0.38833  -0.38479  -0.37736
 Alpha  occ. eigenvalues --   -0.37720  -0.37344  -0.36629  -0.36073  -0.35944
 Alpha  occ. eigenvalues --   -0.35703  -0.35518  -0.34734  -0.33489  -0.33392
 Alpha  occ. eigenvalues --   -0.33140  -0.32351  -0.32263  -0.32061  -0.25628
 Alpha  occ. eigenvalues --   -0.22641
 Alpha virt. eigenvalues --   -0.06919   0.00546   0.02386   0.04125   0.05601
 Alpha virt. eigenvalues --    0.06241   0.07240   0.07902   0.08462   0.09774
 Alpha virt. eigenvalues --    0.10591   0.11184   0.11661   0.12263   0.12494

 Mulliken charges:
               1
     1  Mg   0.955766
     2  C   -0.017678
     3  C   -0.071827
     4  C   -0.061628
     5  C   -0.075561
     6  N   -0.370796
     7  C   -0.057506
     8  C   -0.065527
     9  C   -0.126190
    10  C    0.114881
    11  C   -0.008427
    12  C    0.015676
    13  C    0.077675
    14  C    0.199686
    15  O   -0.305354
    16  O   -0.343200
    17  N   -0.442626
    18  C    0.155265
    19  C   -0.170703
    20  C   -0.085124
    21  C    0.094617
    22  C    0.080018
    23  C    0.058850
    24  O   -0.231572
    25  C   -0.015572
    26  N   -0.372897
    27  C    0.091216
    28  C   -0.107406
    29  C   -0.062890
    30  C    0.055623
    31  C    0.009147
    32  C    0.009742
    33  C   -0.064195
    34  N   -0.405760
    35  C    0.114696
    36  C   -0.207829
    37  C   -0.014771
    38  C    0.135816
    39  C    0.069738
    40  C    0.119567
    41  O   -0.195584
    42  C   -0.031550
    43  C    0.265353
    44  O   -0.262213
    45  O   -0.369110
    46  C    0.151385
    47  C    0.294248
    48  C   -0.159466
    49  C   -0.237235
    50  C    0.018863
    51  C    0.034567
    52  C    0.002896
    53  C    0.043971
    54  C   -0.195652
    55  C    0.012334
    56  C    0.017760
    57  C   -0.042954
    58  C    0.039632
    59  C   -0.234173
    60  C   -0.006677
    61  C    0.009987
    62  C   -0.035928
    63  C    0.019326
    64  C   -0.243213
    65  C    0.008364
    66  C    0.016785
    67  H   -0.003188
    68  H    0.022430
    69  H   -0.005087
    70  H    0.055438
    71  H    0.041175
    72  H    0.033025
    73  H    0.026093
    74  H    0.063662
    75  H    0.020338
    76  H    0.027766
    77  H    0.049051
    78  H    0.058143
    79  H    0.044505
    80  H    0.041437
    81  H    0.050123
    82  H    0.068593
    83  H    0.058496
    84  H    0.044592
    85  H    0.041899
    86  H    0.041170
    87  H    0.028295
    88  H    0.042143
    89  H    0.055148
    90  H    0.035720
    91  H    0.040704
    92  H    0.024484
    93  H    0.026425
    94  H    0.047208
    95  H    0.017509
    96  H    0.060678
    97  H    0.049573
    98  H    0.080171
    99  H    0.036548
   100  H    0.076021
   101  H    0.045995
   102  H    0.064801
   103  H    0.067229
   104  H    0.019456
   105  H    0.049603
   106  H    0.023775
   107  H    0.038621
   108  H    0.038660
   109  H    0.007341
   110  H    0.027420
   111  H    0.033240
   112  H    0.011303
   113  H    0.015650
   114  H    0.014857
   115  H    0.021309
   116  H    0.030587
   117  H    0.019009
   118  H    0.009913
   119  H    0.023502
   120  H    0.015710
   121  H    0.012678
   122  H    0.010592
   123  H    0.013221
   124  H    0.025690
   125  H    0.018957
   126  H    0.032239
   127  H    0.028844
   128  H    0.018984
   129  H    0.014929
   130  H    0.008596
   131  H    0.021280
   132  H    0.021860
   133  H    0.012157
   134  H    0.028019
   135  H    0.029563
   136  H    0.022439
   137  H    0.032235
   138  H    0.014959
   139  H    0.037137
   140  H    0.022697
 Sum of Mulliken charges =  -0.00000

 Dipole moment (field-independent basis, Debye):
    X=              5.2977    Y=              4.2263    Z=             -3.7483  Tot=              7.7445
 Quadrupole moment (field-independent basis, Debye-Ang):
   XX=           -381.1897   YY=           -427.3184   ZZ=           -403.0227
   XY=            -19.9549   XZ=             20.5800   YZ=             13.2512

 Normal termination of Gaussian 16 at Thu May  5 01:06:11 2022.
