 Gaussian 16, Revision A.03,
 Gaussian 16:  ES64L-G16RevA.03 25-Dec-2016

 --------------------
 #p ZINDO=(nstates=5)
 --------------------

 ----------------------------
 step_501_chromophore_3 ZINDO
 ----------------------------
 Symbolic Z-matrix:
 Charge =  0 Multiplicity = 1

                         Standard orientation:
 ---------------------------------------------------------------------
 Center     Atomic      Atomic             Coordinates (Angstroms)
 Number     Number       Type             X           Y           Z
 ---------------------------------------------------------------------
      1         12           0       -5.360992    0.909496   -0.167659
      2          6           0       -4.439464   -2.461806    0.082463
      3          6           0       -2.056318    1.772805    0.764983
      4          6           0       -6.308535    4.168392   -0.061652
      5          6           0       -8.665518   -0.076926   -0.335307
      6          7           0       -3.491813   -0.228577    0.182880
      7          6           0       -3.361092   -1.613222    0.042645
      8          6           0       -1.838563   -1.974632   -0.098620
      9          6           0       -1.149572   -0.641080    0.213251
     10          6           0       -2.313375    0.382598    0.454284
     11          6           0       -0.237409   -0.781946    1.461590
     12          6           0       -1.601995   -2.548328   -1.490348
     13          6           0       -0.457825   -3.532097   -1.672730
     14          6           0        0.587144   -3.656628   -0.540952
     15          8           0        0.510566   -4.483032    0.405024
     16          8           0        1.613533   -2.822979   -0.689801
     17          7           0       -4.365372    2.746021    0.267497
     18          6           0       -3.019511    2.880843    0.658074
     19          6           0       -2.699397    4.273943    0.915366
     20          6           0       -3.888721    5.051520    0.624658
     21          6           0       -4.923199    3.985064    0.277465
     22          6           0       -1.290786    4.793910    1.229518
     23          6           0       -4.125406    6.549469    0.643884
     24          8           0       -5.219854    7.005763    0.341097
     25          6           0       -2.963438    7.448916    0.824396
     26          7           0       -7.254239    1.885191   -0.266543
     27          6           0       -7.361570    3.242815   -0.293833
     28          6           0       -8.825524    3.645680   -0.610954
     29          6           0       -9.594252    2.276632   -0.768179
     30          6           0       -8.442011    1.260865   -0.556027
     31          6           0       -9.384935    4.550478    0.501484
     32          6           0      -10.247141    2.049182   -2.157465
     33          6           0      -11.744575    2.323382   -2.058364
     34          7           0       -6.452098   -0.870742   -0.033919
     35          6           0       -7.777564   -1.151898   -0.042428
     36          6           0       -7.927678   -2.586356    0.303353
     37          6           0       -6.687992   -3.153721    0.256153
     38          6           0       -5.817751   -2.045994    0.091162
     39          6           0       -9.296974   -3.230283    0.441629
     40          6           0       -5.905343   -4.395374    0.317018
     41          8           0       -6.288772   -5.543489    0.505845
     42          6           0       -4.463178   -3.970748    0.117952
     43          6           0       -3.713289   -4.599034    1.217065
     44          8           0       -3.618117   -4.275617    2.408736
     45          8           0       -3.129505   -5.744715    0.716403
     46          6           0       -2.392395   -6.562774    1.654794
     47          6           0        2.831318   -3.051464    0.116379
     48          6           0        3.956812   -2.864224   -0.863468
     49          6           0        5.272221   -3.129407   -0.813375
     50          6           0        5.919421   -3.854956    0.310553
     51          6           0        6.227545   -2.669655   -1.872720
     52          6           0        6.441375   -1.099623   -1.919108
     53          6           0        7.877119   -0.723733   -1.791425
     54          6           0        8.139931    0.228854   -0.597274
     55          6           0        8.307281   -0.458669    0.725988
     56          6           0        9.226828    1.253301   -0.919513
     57          6           0       10.714400    0.690097   -0.721957
     58          6           0       11.617782    0.945975   -1.959556
     59          6           0       12.775861    1.776451   -1.542861
     60          6           0       13.318520    2.605223   -2.780130
     61          6           0       13.958486    0.861239   -1.081442
     62          6           0       14.780153    1.604159    0.058935
     63          6           0       14.482500    1.050696    1.463031
     64          6           0       13.307802    1.701339    2.151142
     65          6           0       13.614091    3.123767    2.753737
     66          6           0       12.682461    0.713326    3.117902
     67          1           0       -1.009256    2.000840    0.973948
     68          1           0       -6.503998    5.241598   -0.112110
     69          1           0       -9.734312   -0.299097   -0.304915
     70          1           0       -1.736693   -2.705479    0.704530
     71          1           0       -0.447374   -0.472418   -0.603130
     72          1           0       -0.581191   -0.243720    2.345058
     73          1           0        0.658696   -0.200928    1.245461
     74          1           0       -0.098295   -1.822223    1.755177
     75          1           0       -1.516531   -1.668730   -2.129119
     76          1           0       -2.524805   -3.008658   -1.841391
     77          1           0        0.044356   -3.309334   -2.613190
     78          1           0       -1.004881   -4.465624   -1.809093
     79          1           0       -0.557110    4.006557    1.403463
     80          1           0       -1.317183    5.418013    2.123769
     81          1           0       -0.990079    5.478914    0.437651
     82          1           0       -2.301633    7.336539   -0.034736
     83          1           0       -2.538089    7.345179    1.822575
     84          1           0       -3.251835    8.498683    0.769500
     85          1           0       -8.809832    4.247181   -1.519539
     86          1           0      -10.275800    2.236458    0.082520
     87          1           0      -10.291202    4.207750    0.999961
     88          1           0       -9.643906    5.420595   -0.101403
     89          1           0       -8.707729    4.710936    1.339910
     90          1           0      -10.268615    0.985202   -2.393904
     91          1           0       -9.812478    2.655675   -2.952257
     92          1           0      -11.946007    2.956932   -2.922023
     93          1           0      -12.028110    2.966914   -1.225904
     94          1           0      -12.384754    1.440845   -2.071629
     95          1           0      -10.135218   -2.535578    0.500834
     96          1           0       -9.363121   -3.893870    1.302952
     97          1           0       -9.526956   -3.741524   -0.493831
     98          1           0       -4.143617   -4.335133   -0.857830
     99          1           0       -3.039544   -6.741646    2.513840
    100          1           0       -1.469944   -6.099640    2.005753
    101          1           0       -2.409017   -7.560847    1.218305
    102          1           0        2.924004   -4.084288    0.452131
    103          1           0        2.809453   -2.344566    0.946245
    104          1           0        3.703826   -2.293068   -1.756286
    105          1           0        6.252293   -3.182309    1.100604
    106          1           0        6.832894   -4.368970    0.011451
    107          1           0        5.330556   -4.670771    0.731093
    108          1           0        5.858800   -3.078981   -2.812882
    109          1           0        7.173419   -3.195092   -1.742206
    110          1           0        5.879773   -0.720701   -1.065823
    111          1           0        5.929606   -0.726916   -2.807532
    112          1           0        8.230026   -0.177925   -2.667008
    113          1           0        8.549861   -1.578444   -1.724133
    114          1           0        7.242575    0.801450   -0.363260
    115          1           0        7.352075   -0.877279    1.044372
    116          1           0        8.660738    0.295287    1.428849
    117          1           0        8.986225   -1.311678    0.728776
    118          1           0        9.250278    2.091064   -0.222995
    119          1           0        9.026588    1.756884   -1.864635
    120          1           0       10.756768   -0.395371   -0.641226
    121          1           0       11.246760    1.059270    0.155253
    122          1           0       11.071819    1.432248   -2.768246
    123          1           0       11.939450   -0.030842   -2.322835
    124          1           0       12.522854    2.518642   -0.784705
    125          1           0       13.120626    1.998383   -3.663617
    126          1           0       14.390920    2.796087   -2.752445
    127          1           0       12.739344    3.514750   -2.940354
    128          1           0       14.525623    0.741233   -2.004619
    129          1           0       13.613101   -0.117903   -0.748445
    130          1           0       14.468014    2.643024    0.168964
    131          1           0       15.837612    1.633913   -0.202293
    132          1           0       15.381300    1.249680    2.047312
    133          1           0       14.284985    0.011836    1.198545
    134          1           0       12.550145    1.870843    1.385865
    135          1           0       14.669304    3.371638    2.639931
    136          1           0       13.347452    3.110083    3.809827
    137          1           0       13.029344    3.935981    2.322827
    138          1           0       13.464061    0.075553    3.531412
    139          1           0       12.030923    0.020496    2.585254
    140          1           0       12.315871    1.193706    4.024689
 ---------------------------------------------------------------------

 SCF Done:  E(RZINDO/S) =  -474.330610199     A.U. after   19 cycles

 Excitation energies and oscillator strengths:

 Excited State   1:      Singlet-A      1.2227 eV 1014.02 nm  f=0.6085  <S**2>=0.000
     175 ->178         0.18769
     176 ->177         0.66457
 This state for optimization and/or second-order correction.
 Total Energy, E(CIS/TDA) =  -474.285676808
 Copying the excited state density for this state as the 1-particle RhoCI density.

 Excited State   2:      Singlet-A      1.9012 eV  652.15 nm  f=0.0500  <S**2>=0.000
     175 ->177         0.55063
     176 ->178        -0.41828

 Excited State   3:      Singlet-A      2.9458 eV  420.89 nm  f=0.0881  <S**2>=0.000
     168 ->177        -0.17440
     168 ->179         0.19043
     168 ->180         0.17339
     168 ->186         0.12126
     175 ->177        -0.11192
     176 ->178        -0.14665
     176 ->179         0.52360
     176 ->180        -0.12461

 Excited State   4:      Singlet-A      2.9506 eV  420.20 nm  f=0.0116  <S**2>=0.000
     168 ->177         0.28339
     168 ->178        -0.11488
     168 ->179        -0.29644
     168 ->180        -0.28092
     168 ->186        -0.19102
     176 ->179         0.34840

 Excited State   5:      Singlet-A      3.0001 eV  413.26 nm  f=1.0996  <S**2>=0.000
     171 ->177         0.11178
     175 ->177         0.37296
     176 ->178         0.51642
     176 ->179         0.19219

 The electronic state is 1-A.
 Alpha  occ. eigenvalues --   -1.84546  -1.79161  -1.77376  -1.73671  -1.72528
 Alpha  occ. eigenvalues --   -1.69319  -1.68411  -1.63730  -1.59395  -1.59034
 Alpha  occ. eigenvalues --   -1.55922  -1.52397  -1.49149  -1.47810  -1.47046
 Alpha  occ. eigenvalues --   -1.43058  -1.42337  -1.40060  -1.38441  -1.38093
 Alpha  occ. eigenvalues --   -1.36548  -1.32853  -1.32360  -1.30511  -1.28662
 Alpha  occ. eigenvalues --   -1.26873  -1.24144  -1.22787  -1.21829  -1.18658
 Alpha  occ. eigenvalues --   -1.17373  -1.16974  -1.16028  -1.15151  -1.13631
 Alpha  occ. eigenvalues --   -1.12223  -1.10069  -1.09874  -1.03729  -1.03206
 Alpha  occ. eigenvalues --   -1.02439  -1.00819  -0.98559  -0.97061  -0.96242
 Alpha  occ. eigenvalues --   -0.95765  -0.95188  -0.94227  -0.93729  -0.93027
 Alpha  occ. eigenvalues --   -0.92324  -0.90973  -0.88995  -0.86849  -0.85916
 Alpha  occ. eigenvalues --   -0.85255  -0.85180  -0.83815  -0.82456  -0.81102
 Alpha  occ. eigenvalues --   -0.80320  -0.79611  -0.78737  -0.77012  -0.76743
 Alpha  occ. eigenvalues --   -0.76032  -0.75378  -0.74855  -0.73968  -0.73728
 Alpha  occ. eigenvalues --   -0.72990  -0.72670  -0.72157  -0.71194  -0.70594
 Alpha  occ. eigenvalues --   -0.70391  -0.70196  -0.69084  -0.68756  -0.68081
 Alpha  occ. eigenvalues --   -0.67675  -0.67548  -0.66648  -0.66617  -0.66244
 Alpha  occ. eigenvalues --   -0.65830  -0.65374  -0.65048  -0.63959  -0.63587
 Alpha  occ. eigenvalues --   -0.63222  -0.62910  -0.62631  -0.62116  -0.61838
 Alpha  occ. eigenvalues --   -0.61541  -0.61142  -0.61078  -0.60779  -0.60095
 Alpha  occ. eigenvalues --   -0.59810  -0.59720  -0.58937  -0.58483  -0.57668
 Alpha  occ. eigenvalues --   -0.57522  -0.57390  -0.57204  -0.56387  -0.56322
 Alpha  occ. eigenvalues --   -0.56181  -0.55388  -0.54660  -0.54568  -0.54186
 Alpha  occ. eigenvalues --   -0.54090  -0.53701  -0.53471  -0.52987  -0.52430
 Alpha  occ. eigenvalues --   -0.52149  -0.51976  -0.51829  -0.51434  -0.51306
 Alpha  occ. eigenvalues --   -0.51076  -0.51043  -0.50615  -0.50135  -0.49928
 Alpha  occ. eigenvalues --   -0.49909  -0.49827  -0.49499  -0.48845  -0.48605
 Alpha  occ. eigenvalues --   -0.48513  -0.48401  -0.47971  -0.47898  -0.47632
 Alpha  occ. eigenvalues --   -0.47561  -0.47198  -0.46881  -0.46576  -0.46270
 Alpha  occ. eigenvalues --   -0.46091  -0.46033  -0.45700  -0.45598  -0.45313
 Alpha  occ. eigenvalues --   -0.45115  -0.44996  -0.44654  -0.44382  -0.44048
 Alpha  occ. eigenvalues --   -0.43419  -0.42884  -0.42407  -0.42187  -0.41701
 Alpha  occ. eigenvalues --   -0.41517  -0.41340  -0.40599  -0.38884  -0.38253
 Alpha  occ. eigenvalues --   -0.37701  -0.36910  -0.35665  -0.35107  -0.34212
 Alpha  occ. eigenvalues --   -0.33214  -0.32728  -0.32436  -0.32251  -0.26445
 Alpha  occ. eigenvalues --   -0.21466
 Alpha virt. eigenvalues --   -0.08466  -0.01746  -0.00557   0.00979   0.01251
 Alpha virt. eigenvalues --    0.02284   0.02897   0.03464   0.04424   0.04847
 Alpha virt. eigenvalues --    0.06172   0.06677   0.07219   0.07939   0.08134

 Mulliken charges:
               1
     1  Mg   0.424284
     2  C   -0.042865
     3  C   -0.098765
     4  C   -0.075433
     5  C   -0.051205
     6  N   -0.283537
     7  C    0.097579
     8  C    0.001061
     9  C    0.005435
    10  C    0.150834
    11  C   -0.059228
    12  C   -0.012886
    13  C    0.008467
    14  C    0.473603
    15  O   -0.543595
    16  O   -0.259575
    17  N   -0.321709
    18  C    0.111839
    19  C    0.011998
    20  C   -0.056240
    21  C    0.143344
    22  C   -0.041746
    23  C    0.338836
    24  O   -0.519608
    25  C   -0.028010
    26  N   -0.267743
    27  C    0.150211
    28  C    0.004077
    29  C    0.001162
    30  C    0.095263
    31  C   -0.055793
    32  C   -0.027145
    33  C   -0.062946
    34  N   -0.302134
    35  C    0.073561
    36  C    0.032012
    37  C   -0.050157
    38  C    0.097196
    39  C   -0.044523
    40  C    0.347431
    41  O   -0.513585
    42  C    0.070845
    43  C    0.494941
    44  O   -0.528975
    45  O   -0.274206
    46  C    0.070304
    47  C    0.115568
    48  C   -0.098631
    49  C    0.005876
    50  C   -0.044136
    51  C   -0.026054
    52  C   -0.023802
    53  C   -0.023755
    54  C   -0.004877
    55  C   -0.050403
    56  C   -0.034133
    57  C   -0.050620
    58  C   -0.031072
    59  C   -0.011907
    60  C   -0.068735
    61  C   -0.039964
    62  C   -0.049077
    63  C   -0.031309
    64  C   -0.007907
    65  C   -0.058800
    66  C   -0.058804
    67  H    0.034894
    68  H    0.045960
    69  H    0.015495
    70  H    0.048414
    71  H    0.034830
    72  H    0.018994
    73  H    0.012415
    74  H    0.039426
    75  H    0.018964
    76  H    0.020721
    77  H    0.033041
    78  H    0.041067
    79  H    0.030523
    80  H    0.026349
    81  H    0.031259
    82  H    0.044604
    83  H    0.040431
    84  H    0.027255
    85  H    0.034339
    86  H    0.041846
    87  H    0.017450
    88  H    0.023125
    89  H    0.032848
    90  H    0.024507
    91  H    0.033391
    92  H    0.008751
    93  H    0.017008
    94  H    0.026136
    95  H    0.015715
    96  H    0.036970
    97  H    0.028994
    98  H    0.057267
    99  H    0.035954
   100  H    0.061548
   101  H    0.034905
   102  H    0.061618
   103  H    0.055236
   104  H    0.018403
   105  H    0.031286
   106  H    0.014009
   107  H    0.022764
   108  H    0.021657
   109  H    0.018502
   110  H    0.021519
   111  H    0.023704
   112  H    0.012407
   113  H    0.023808
   114  H    0.010286
   115  H    0.012368
   116  H    0.017612
   117  H    0.016449
   118  H    0.007415
   119  H    0.023937
   120  H    0.013772
   121  H    0.030679
   122  H    0.015502
   123  H    0.016886
   124  H    0.026892
   125  H    0.012085
   126  H    0.021656
   127  H    0.013553
   128  H    0.021669
   129  H    0.023036
   130  H    0.015512
   131  H    0.016603
   132  H    0.021788
   133  H    0.023104
   134  H    0.016069
   135  H    0.021428
   136  H    0.017405
   137  H    0.019954
   138  H    0.007086
   139  H    0.024205
   140  H    0.022606
 Sum of Mulliken charges =  -0.00000

 Dipole moment (field-independent basis, Debye):
    X=              6.9919    Y=              5.6612    Z=             -5.3410  Tot=             10.4624
 N-N= 4.297540242996D+03 E-N= 0.000000000000D+00  KE=-9.269527673235D+03
 Leave Link  601 at Thu May  5 01:18:31 2022, MaxMem=  6710886400 cpu:               1.0 elap:               0.1
 (Enter /sw/apps/gaussian-16.0/g16/l9999.exe)
 1\1\GINC-BP1-COMPUTE067\SP\RZINDO CIS\STO-3G\C55H74Mg1N4O6\OF15641\05-
 May-2022\0\\#p ZINDO=(nstates=5)\\step_501_chromophore_3 ZINDO\\0,1\Mg
 ,0,1.296,7.713,26.881\C,0,1.469,9.827,29.67\C,0,2.426,5.069,28.947\C,0
 ,1.473,5.725,24.134\C,0,0.925,10.5,24.877\N,0,1.699,7.491,29.049\C,0,1
 .515,8.496,30.003\C,0,1.438,7.843,31.43\C,0,1.833,6.388,31.152\C,0,2.0
 52,6.305,29.601\C,0,3.12,6.017,31.937\C,0,0.04,8.068,31.993\C,0,-0.12,
 8.135,33.503\C,0,1.058,7.663,34.385\O,0,1.968,8.419,34.814\O,0,0.992,6

 Normal termination of Gaussian 16 at Thu May  5 01:18:31 2022.
