 Gaussian 16, Revision A.03,
 Gaussian 16:  ES64L-G16RevA.03 25-Dec-2016

 ------------------------------
 #p blyp/Def2SVP td=(nstates=5)
 ------------------------------

 --------------------------------------------------
 step_751_chromophore_13 TDDFT with blyp functional
 --------------------------------------------------
 Symbolic Z-matrix:
 Charge =  0 Multiplicity = 1

                         Standard orientation:
 ---------------------------------------------------------------------
 Center     Atomic      Atomic             Coordinates (Angstroms)
 Number     Number       Type             X           Y           Z
 ---------------------------------------------------------------------
      1         12           0       -6.114612    0.372496   -0.156012
      2          6           0       -3.676908   -2.227374   -0.013685
      3          6           0       -3.499152    2.614157    0.457653
      4          6           0       -8.463140    2.746502    0.212878
      5          6           0       -8.585601   -2.144298   -0.395237
      6          7           0       -3.839600    0.190496    0.285087
      7          6           0       -3.075594   -0.945878    0.031241
      8          6           0       -1.601037   -0.677393    0.250008
      9          6           0       -1.556374    0.882252    0.303407
     10          6           0       -3.057818    1.296822    0.372976
     11          6           0       -0.669860    1.512293    1.436228
     12          6           0       -0.599655   -1.372116   -0.771662
     13          6           0        0.689554   -1.931111   -0.183300
     14          6           0        2.024795   -1.527001   -0.934287
     15          8           0        2.088265   -0.856470   -1.960807
     16          8           0        3.150299   -2.077584   -0.403576
     17          7           0       -6.007149    2.395405    0.196149
     18          6           0       -4.852184    3.144331    0.407529
     19          6           0       -5.276780    4.543367    0.481262
     20          6           0       -6.693335    4.585734    0.622977
     21          6           0       -7.110232    3.191237    0.403650
     22          6           0       -4.371697    5.748319    0.600280
     23          6           0       -7.543174    5.729747    0.744365
     24          8           0       -8.776370    5.603868    0.920457
     25          6           0       -7.060193    7.135614    0.934542
     26          7           0       -8.254259    0.376894   -0.000440
     27          6           0       -8.984171    1.504145   -0.053232
     28          6           0      -10.410949    1.193179   -0.481078
     29          6           0      -10.345623   -0.366854   -0.810150
     30          6           0       -8.945838   -0.786678   -0.297243
     31          6           0      -11.529067    1.805238    0.412494
     32          6           0      -10.523790   -0.655580   -2.307003
     33          6           0       -9.557506    0.018302   -3.298598
     34          7           0       -6.208001   -1.732598   -0.126748
     35          6           0       -7.294920   -2.674715   -0.261822
     36          6           0       -6.830005   -3.998676   -0.335865
     37          6           0       -5.412367   -3.830236   -0.168138
     38          6           0       -5.082848   -2.435479   -0.101720
     39          6           0       -7.630952   -5.221282   -0.550769
     40          6           0       -4.204038   -4.630944   -0.126324
     41          8           0       -4.101349   -5.821459   -0.297174
     42          6           0       -3.089415   -3.620747    0.160337
     43          6           0       -2.661616   -3.921032    1.579210
     44          8           0       -3.352539   -3.810884    2.594946
     45          8           0       -1.312484   -4.267966    1.537831
     46          6           0       -0.705071   -4.403479    2.856765
     47          6           0        4.472614   -2.048112   -1.058493
     48          6           0        5.528785   -1.193643   -0.310949
     49          6           0        6.846252   -1.390443   -0.186007
     50          6           0        7.657457   -2.502652   -0.816222
     51          6           0        7.616793   -0.415633    0.652920
     52          6           0        7.594051    1.119645    0.181059
     53          6           0        9.019343    1.622575    0.270047
     54          6           0        9.655178    2.229188   -1.061303
     55          6           0        8.747078    3.309711   -1.798468
     56          6           0       10.049048    1.115504   -2.014459
     57          6           0       11.434286    1.364966   -2.695815
     58          6           0       12.515078    0.303791   -2.202421
     59          6           0       13.683179    0.903195   -1.600406
     60          6           0       14.640153    1.466080   -2.731938
     61          6           0       14.424314   -0.123596   -0.637229
     62          6           0       14.286056    0.375567    0.785117
     63          6           0       12.926480   -0.133874    1.561773
     64          6           0       12.416091    0.638527    2.773309
     65          6           0       13.326520    0.512462    4.029732
     66          6           0       10.944602    0.196968    3.167163
     67          1           0       -2.718869    3.363112    0.606153
     68          1           0       -9.290329    3.456893    0.160161
     69          1           0       -9.398796   -2.836058   -0.624238
     70          1           0       -1.522661   -1.164521    1.222113
     71          1           0       -0.886604    1.274125   -0.462526
     72          1           0       -0.584559    0.862707    2.307257
     73          1           0       -1.191028    2.375045    1.850406
     74          1           0        0.327958    1.699786    1.039552
     75          1           0       -0.335917   -0.618471   -1.513473
     76          1           0       -1.103585   -2.183181   -1.296175
     77          1           0        0.727973   -3.018958   -0.136448
     78          1           0        0.753949   -1.591909    0.850859
     79          1           0       -4.481048    6.299654    1.533861
     80          1           0       -4.569924    6.400709   -0.250018
     81          1           0       -3.359286    5.356057    0.506583
     82          1           0       -6.513331    7.172889    1.876124
     83          1           0       -7.942336    7.755917    1.097473
     84          1           0       -6.563432    7.571274    0.068330
     85          1           0      -10.545282    1.624351   -1.472771
     86          1           0      -11.096410   -0.846083   -0.182127
     87          1           0      -11.747582    1.177476    1.277106
     88          1           0      -12.455699    1.929922   -0.147789
     89          1           0      -11.202852    2.777076    0.781909
     90          1           0      -11.563775   -0.540904   -2.614991
     91          1           0      -10.403456   -1.738859   -2.345015
     92          1           0       -8.617732   -0.531114   -3.244022
     93          1           0       -9.359189    1.062472   -3.056132
     94          1           0       -9.934820   -0.122964   -4.311569
     95          1           0       -8.297962   -4.907571   -1.353185
     96          1           0       -8.076308   -5.660650    0.341990
     97          1           0       -6.959517   -5.935649   -1.027412
     98          1           0       -2.257627   -3.903465   -0.485422
     99          1           0       -0.446616   -3.430681    3.274726
    100          1           0        0.152651   -5.076569    2.856546
    101          1           0       -1.340966   -4.794136    3.651973
    102          1           0        4.409748   -1.710952   -2.093552
    103          1           0        4.788812   -3.090214   -1.027638
    104          1           0        5.123706   -0.432644    0.355877
    105          1           0        7.078906   -3.417240   -0.685719
    106          1           0        8.540345   -2.687639   -0.204218
    107          1           0        8.022893   -2.310938   -1.825071
    108          1           0        8.642222   -0.785526    0.656775
    109          1           0        7.170028   -0.471761    1.645888
    110          1           0        6.957825    1.666223    0.875989
    111          1           0        7.168906    1.105108   -0.822924
    112          1           0        9.767147    0.899927    0.597263
    113          1           0        9.153790    2.411063    1.010121
    114          1           0       10.620767    2.645191   -0.771701
    115          1           0        9.056480    3.303236   -2.843792
    116          1           0        8.856026    4.317602   -1.398003
    117          1           0        7.676599    3.206856   -1.619027
    118          1           0        9.214124    1.042738   -2.710436
    119          1           0       10.041793    0.112900   -1.586823
    120          1           0       11.714332    2.397201   -2.487988
    121          1           0       11.376947    1.300784   -3.782562
    122          1           0       12.804416   -0.435830   -2.948164
    123          1           0       12.017219   -0.424830   -1.562701
    124          1           0       13.278364    1.710323   -0.989124
    125          1           0       14.186351    1.307042   -3.710216
    126          1           0       15.591696    0.950149   -2.859782
    127          1           0       14.677611    2.553078   -2.648517
    128          1           0       15.496085   -0.228556   -0.806082
    129          1           0       13.919083   -1.081661   -0.760656
    130          1           0       14.240626    1.463404    0.746379
    131          1           0       15.226205    0.211399    1.312169
    132          1           0       13.125005   -1.189248    1.747889
    133          1           0       12.249918   -0.121197    0.706844
    134          1           0       12.447284    1.687269    2.477833
    135          1           0       12.797552    0.067442    4.872659
    136          1           0       13.612656    1.535302    4.273498
    137          1           0       14.228550   -0.013620    3.717107
    138          1           0       11.169723   -0.468616    4.000383
    139          1           0       10.421688   -0.385106    2.407898
    140          1           0       10.324591    1.082685    3.310099
 ---------------------------------------------------------------------

 SCF Done:  E(RB-LYP) =  -3007.37835645     A.U. after   21 cycles

 Excitation energies and oscillator strengths:

 Excited State   1:      Singlet-A      1.5655 eV  791.96 nm  f=0.0035  <S**2>=0.000
     244 -> 247        0.61003
     245 -> 247        0.33737
     246 -> 247        0.11255
 This state for optimization and/or second-order correction.
 Total Energy, E(TD-HF/TD-DFT) =  -3007.32082418
 Copying the excited state density for this state as the 1-particle RhoCI density.

 Excited State   2:      Singlet-A      1.7733 eV  699.19 nm  f=0.2493  <S**2>=0.000
     243 -> 247       -0.14318
     244 -> 247       -0.16219
     245 -> 248       -0.17985
     246 -> 247        0.65427
     246 <- 247       -0.14328

 Excited State   3:      Singlet-A      1.8458 eV  671.71 nm  f=0.0583  <S**2>=0.000
     243 -> 247        0.57049
     244 -> 247        0.16472
     245 -> 247       -0.31821
     246 -> 247        0.18768

 Excited State   4:      Singlet-A      2.0024 eV  619.19 nm  f=0.0763  <S**2>=0.000
     243 -> 247        0.38492
     244 -> 247       -0.24863
     245 -> 247        0.47371
     246 -> 248        0.22660

 Excited State   5:      Singlet-A      2.2554 eV  549.72 nm  f=0.0000  <S**2>=0.000
     242 -> 247        0.70666

 The electronic state is 1-A.
 Alpha  occ. eigenvalues --  -46.27626 -18.83316 -18.81885 -18.77742 -18.76566
 Alpha  occ. eigenvalues --  -18.75676 -18.74292 -14.03497 -14.02773 -14.01761
 Alpha  occ. eigenvalues --  -14.00843 -10.04757 -10.04546  -9.98974  -9.98767
 Alpha  occ. eigenvalues --   -9.98761  -9.97803  -9.97128  -9.97001  -9.96611
 Alpha  occ. eigenvalues --   -9.96524  -9.96435  -9.95774  -9.95297  -9.94658
 Alpha  occ. eigenvalues --   -9.94474  -9.94349  -9.94268  -9.94216  -9.94157
 Alpha  occ. eigenvalues --   -9.94114  -9.93664  -9.93387  -9.93294  -9.93239
 Alpha  occ. eigenvalues --   -9.93196  -9.93151  -9.92996  -9.92742  -9.92719
 Alpha  occ. eigenvalues --   -9.92614  -9.92582  -9.92335  -9.92295  -9.92287
 Alpha  occ. eigenvalues --   -9.92241  -9.92236  -9.92125  -9.92049  -9.91881
 Alpha  occ. eigenvalues --   -9.91870  -9.91854  -9.91699  -9.91666  -9.91572
 Alpha  occ. eigenvalues --   -9.91457  -9.91334  -9.91237  -9.91205  -9.91145
 Alpha  occ. eigenvalues --   -9.91134  -9.91012  -9.90951  -9.90843  -9.90746
 Alpha  occ. eigenvalues --   -9.90694  -2.92136  -1.72550  -1.72028  -1.71845
 Alpha  occ. eigenvalues --   -0.97831  -0.97539  -0.92097  -0.90272  -0.89664
 Alpha  occ. eigenvalues --   -0.89154  -0.85985  -0.85417  -0.85006  -0.84381
 Alpha  occ. eigenvalues --   -0.75599  -0.73858  -0.73375  -0.72500  -0.72279
 Alpha  occ. eigenvalues --   -0.71715  -0.71223  -0.70888  -0.70740  -0.70584
 Alpha  occ. eigenvalues --   -0.70307  -0.68979  -0.67901  -0.67487  -0.67057
 Alpha  occ. eigenvalues --   -0.66407  -0.65766  -0.65307  -0.65185  -0.64352
 Alpha  occ. eigenvalues --   -0.63293  -0.62889  -0.62492  -0.61765  -0.61000
 Alpha  occ. eigenvalues --   -0.60758  -0.59888  -0.59852  -0.59555  -0.59194
 Alpha  occ. eigenvalues --   -0.58529  -0.58081  -0.56700  -0.55919  -0.55283
 Alpha  occ. eigenvalues --   -0.54925  -0.53942  -0.53247  -0.53147  -0.51522
 Alpha  occ. eigenvalues --   -0.51282  -0.51054  -0.50524  -0.50320  -0.50158
 Alpha  occ. eigenvalues --   -0.49210  -0.48901  -0.48561  -0.48167  -0.46419
 Alpha  occ. eigenvalues --   -0.46343  -0.46069  -0.45748  -0.45128  -0.44803
 Alpha  occ. eigenvalues --   -0.44105  -0.43703  -0.42713  -0.42513  -0.42357
 Alpha  occ. eigenvalues --   -0.42162  -0.41775  -0.41612  -0.41516  -0.41185
 Alpha  occ. eigenvalues --   -0.41147  -0.40860  -0.40562  -0.40155  -0.39877
 Alpha  occ. eigenvalues --   -0.39820  -0.39672  -0.39500  -0.39282  -0.39226
 Alpha  occ. eigenvalues --   -0.39064  -0.38939  -0.38819  -0.38626  -0.38500
 Alpha  occ. eigenvalues --   -0.37959  -0.37686  -0.37522  -0.37461  -0.37270
 Alpha  occ. eigenvalues --   -0.37050  -0.37017  -0.36839  -0.36574  -0.36403
 Alpha  occ. eigenvalues --   -0.36261  -0.36089  -0.36009  -0.35948  -0.35594
 Alpha  occ. eigenvalues --   -0.35517  -0.35450  -0.35081  -0.34707  -0.34386
 Alpha  occ. eigenvalues --   -0.34261  -0.34172  -0.34077  -0.33990  -0.33884
 Alpha  occ. eigenvalues --   -0.33719  -0.33646  -0.33429  -0.33199  -0.33128
 Alpha  occ. eigenvalues --   -0.32872  -0.32765  -0.32418  -0.32354  -0.31901
 Alpha  occ. eigenvalues --   -0.31863  -0.31830  -0.31668  -0.31520  -0.31407
 Alpha  occ. eigenvalues --   -0.31202  -0.31015  -0.30836  -0.30687  -0.30663
 Alpha  occ. eigenvalues --   -0.30571  -0.30402  -0.30288  -0.30145  -0.30059
 Alpha  occ. eigenvalues --   -0.29776  -0.29711  -0.29436  -0.29297  -0.28914
 Alpha  occ. eigenvalues --   -0.28753  -0.28699  -0.28643  -0.28311  -0.27947
 Alpha  occ. eigenvalues --   -0.27727  -0.27489  -0.27008  -0.26751  -0.26290
 Alpha  occ. eigenvalues --   -0.26253  -0.26073  -0.25774  -0.25519  -0.25218
 Alpha  occ. eigenvalues --   -0.25189  -0.24789  -0.24669  -0.23917  -0.23736
 Alpha  occ. eigenvalues --   -0.23106  -0.23032  -0.21910  -0.21712  -0.20746
 Alpha  occ. eigenvalues --   -0.20253  -0.20204  -0.18689  -0.17667  -0.17283
 Alpha  occ. eigenvalues --   -0.16091
 Alpha virt. eigenvalues --   -0.11916  -0.07051  -0.06416  -0.04597  -0.03304
 Alpha virt. eigenvalues --   -0.02818  -0.02645  -0.02122  -0.01702   0.00146
 Alpha virt. eigenvalues --    0.01550   0.01598   0.01937   0.02208   0.02574

 Mulliken charges:
               1
     1  Mg   0.674680
     2  C    0.004296
     3  C   -0.068144
     4  C   -0.034911
     5  C   -0.094661
     6  N   -0.200210
     7  C   -0.111048
     8  C    0.051196
     9  C   -0.019596
    10  C    0.077525
    11  C    0.093151
    12  C    0.142625
    13  C    0.085950
    14  C    0.070088
    15  O   -0.196021
    16  O   -0.275794
    17  N   -0.313792
    18  C    0.141541
    19  C   -0.187977
    20  C    0.117702
    21  C    0.143931
    22  C    0.199340
    23  C   -0.134202
    24  O   -0.208270
    25  C    0.155803
    26  N   -0.224321
    27  C   -0.034279
    28  C    0.047682
    29  C    0.006863
    30  C    0.051568
    31  C    0.128768
    32  C    0.084303
    33  C    0.066210
    34  N   -0.285514
    35  C    0.133940
    36  C   -0.159469
    37  C    0.038610
    38  C    0.141841
    39  C    0.188010
    40  C   -0.077526
    41  O   -0.112873
    42  C    0.067242
    43  C    0.122989
    44  O   -0.175964
    45  O   -0.270401
    46  C    0.218233
    47  C    0.325495
    48  C   -0.075673
    49  C   -0.211892
    50  C    0.147278
    51  C    0.100454
    52  C    0.116579
    53  C    0.064170
    54  C   -0.067945
    55  C    0.101578
    56  C    0.084599
    57  C    0.086961
    58  C    0.085617
    59  C   -0.069277
    60  C    0.122594
    61  C    0.132882
    62  C    0.028660
    63  C    0.065249
    64  C   -0.081913
    65  C    0.114287
    66  C    0.108571
    67  H   -0.055871
    68  H   -0.040677
    69  H   -0.047901
    70  H   -0.005919
    71  H   -0.008417
    72  H   -0.025933
    73  H   -0.010253
    74  H    0.000909
    75  H   -0.011872
    76  H   -0.018269
    77  H    0.015656
    78  H    0.000041
    79  H    0.009972
    80  H   -0.001366
    81  H   -0.025691
    82  H    0.007746
    83  H   -0.018514
    84  H   -0.003000
    85  H   -0.024943
    86  H   -0.038347
    87  H   -0.010547
    88  H   -0.010696
    89  H    0.007923
    90  H   -0.023039
    91  H   -0.041007
    92  H   -0.000378
    93  H    0.010987
    94  H   -0.003132
    95  H   -0.009595
    96  H    0.025082
    97  H   -0.000825
    98  H   -0.013941
    99  H    0.000027
   100  H    0.018556
   101  H    0.012854
   102  H    0.014651
   103  H   -0.007235
   104  H   -0.040074
   105  H   -0.007174
   106  H   -0.022686
   107  H    0.022193
   108  H   -0.015798
   109  H   -0.009790
   110  H   -0.025175
   111  H   -0.000665
   112  H   -0.023850
   113  H   -0.041436
   114  H   -0.043294
   115  H   -0.004928
   116  H   -0.026619
   117  H   -0.010423
   118  H   -0.045488
   119  H   -0.045086
   120  H   -0.022129
   121  H   -0.031692
   122  H   -0.050941
   123  H   -0.051555
   124  H   -0.030207
   125  H   -0.032323
   126  H   -0.011306
   127  H   -0.012749
   128  H   -0.036308
   129  H   -0.036508
   130  H   -0.042216
   131  H   -0.039712
   132  H   -0.033194
   133  H   -0.035602
   134  H   -0.035319
   135  H   -0.008854
   136  H   -0.017030
   137  H   -0.009766
   138  H   -0.015867
   139  H   -0.019250
   140  H   -0.001601
 Sum of Mulliken charges =  -0.00000

 Dipole moment (field-independent basis, Debye):
    X=              3.7936    Y=              1.7715    Z=             -1.0298  Tot=              4.3116
 Quadrupole moment (field-independent basis, Debye-Ang):
   XX=           -384.6295   YY=           -422.6170   ZZ=           -408.2855
   XY=              2.6091   XZ=             25.5299   YZ=             -0.6907

 Normal termination of Gaussian 16 at Sat Apr 30 13:02:19 2022.
