 Gaussian 16, Revision A.03,
 Gaussian 16:  ES64L-G16RevA.03 25-Dec-2016

 -----------------------------------
 #p cam-b3lyp/Def2SVP td=(nstates=5)
 -----------------------------------

 -------------------------------------------------------
 step_751_chromophore_13 TDDFT with cam-b3lyp functional
 -------------------------------------------------------
 Symbolic Z-matrix:
 Charge =  0 Multiplicity = 1

                         Standard orientation:
 ---------------------------------------------------------------------
 Center     Atomic      Atomic             Coordinates (Angstroms)
 Number     Number       Type             X           Y           Z
 ---------------------------------------------------------------------
      1         12           0       -6.114612    0.372496   -0.156012
      2          6           0       -3.676908   -2.227374   -0.013685
      3          6           0       -3.499152    2.614157    0.457653
      4          6           0       -8.463140    2.746502    0.212878
      5          6           0       -8.585601   -2.144298   -0.395237
      6          7           0       -3.839600    0.190496    0.285087
      7          6           0       -3.075594   -0.945878    0.031241
      8          6           0       -1.601037   -0.677393    0.250008
      9          6           0       -1.556374    0.882252    0.303407
     10          6           0       -3.057818    1.296822    0.372976
     11          6           0       -0.669860    1.512293    1.436228
     12          6           0       -0.599655   -1.372116   -0.771662
     13          6           0        0.689554   -1.931111   -0.183300
     14          6           0        2.024795   -1.527001   -0.934287
     15          8           0        2.088265   -0.856470   -1.960807
     16          8           0        3.150299   -2.077584   -0.403576
     17          7           0       -6.007149    2.395405    0.196149
     18          6           0       -4.852184    3.144331    0.407529
     19          6           0       -5.276780    4.543367    0.481262
     20          6           0       -6.693335    4.585734    0.622977
     21          6           0       -7.110232    3.191237    0.403650
     22          6           0       -4.371697    5.748319    0.600280
     23          6           0       -7.543174    5.729747    0.744365
     24          8           0       -8.776370    5.603868    0.920457
     25          6           0       -7.060193    7.135614    0.934542
     26          7           0       -8.254259    0.376894   -0.000440
     27          6           0       -8.984171    1.504145   -0.053232
     28          6           0      -10.410949    1.193179   -0.481078
     29          6           0      -10.345623   -0.366854   -0.810150
     30          6           0       -8.945838   -0.786678   -0.297243
     31          6           0      -11.529067    1.805238    0.412494
     32          6           0      -10.523790   -0.655580   -2.307003
     33          6           0       -9.557506    0.018302   -3.298598
     34          7           0       -6.208001   -1.732598   -0.126748
     35          6           0       -7.294920   -2.674715   -0.261822
     36          6           0       -6.830005   -3.998676   -0.335865
     37          6           0       -5.412367   -3.830236   -0.168138
     38          6           0       -5.082848   -2.435479   -0.101720
     39          6           0       -7.630952   -5.221282   -0.550769
     40          6           0       -4.204038   -4.630944   -0.126324
     41          8           0       -4.101349   -5.821459   -0.297174
     42          6           0       -3.089415   -3.620747    0.160337
     43          6           0       -2.661616   -3.921032    1.579210
     44          8           0       -3.352539   -3.810884    2.594946
     45          8           0       -1.312484   -4.267966    1.537831
     46          6           0       -0.705071   -4.403479    2.856765
     47          6           0        4.472614   -2.048112   -1.058493
     48          6           0        5.528785   -1.193643   -0.310949
     49          6           0        6.846252   -1.390443   -0.186007
     50          6           0        7.657457   -2.502652   -0.816222
     51          6           0        7.616793   -0.415633    0.652920
     52          6           0        7.594051    1.119645    0.181059
     53          6           0        9.019343    1.622575    0.270047
     54          6           0        9.655178    2.229188   -1.061303
     55          6           0        8.747078    3.309711   -1.798468
     56          6           0       10.049048    1.115504   -2.014459
     57          6           0       11.434286    1.364966   -2.695815
     58          6           0       12.515078    0.303791   -2.202421
     59          6           0       13.683179    0.903195   -1.600406
     60          6           0       14.640153    1.466080   -2.731938
     61          6           0       14.424314   -0.123596   -0.637229
     62          6           0       14.286056    0.375567    0.785117
     63          6           0       12.926480   -0.133874    1.561773
     64          6           0       12.416091    0.638527    2.773309
     65          6           0       13.326520    0.512462    4.029732
     66          6           0       10.944602    0.196968    3.167163
     67          1           0       -2.718869    3.363112    0.606153
     68          1           0       -9.290329    3.456893    0.160161
     69          1           0       -9.398796   -2.836058   -0.624238
     70          1           0       -1.522661   -1.164521    1.222113
     71          1           0       -0.886604    1.274125   -0.462526
     72          1           0       -0.584559    0.862707    2.307257
     73          1           0       -1.191028    2.375045    1.850406
     74          1           0        0.327958    1.699786    1.039552
     75          1           0       -0.335917   -0.618471   -1.513473
     76          1           0       -1.103585   -2.183181   -1.296175
     77          1           0        0.727973   -3.018958   -0.136448
     78          1           0        0.753949   -1.591909    0.850859
     79          1           0       -4.481048    6.299654    1.533861
     80          1           0       -4.569924    6.400709   -0.250018
     81          1           0       -3.359286    5.356057    0.506583
     82          1           0       -6.513331    7.172889    1.876124
     83          1           0       -7.942336    7.755917    1.097473
     84          1           0       -6.563432    7.571274    0.068330
     85          1           0      -10.545282    1.624351   -1.472771
     86          1           0      -11.096410   -0.846083   -0.182127
     87          1           0      -11.747582    1.177476    1.277106
     88          1           0      -12.455699    1.929922   -0.147789
     89          1           0      -11.202852    2.777076    0.781909
     90          1           0      -11.563775   -0.540904   -2.614991
     91          1           0      -10.403456   -1.738859   -2.345015
     92          1           0       -8.617732   -0.531114   -3.244022
     93          1           0       -9.359189    1.062472   -3.056132
     94          1           0       -9.934820   -0.122964   -4.311569
     95          1           0       -8.297962   -4.907571   -1.353185
     96          1           0       -8.076308   -5.660650    0.341990
     97          1           0       -6.959517   -5.935649   -1.027412
     98          1           0       -2.257627   -3.903465   -0.485422
     99          1           0       -0.446616   -3.430681    3.274726
    100          1           0        0.152651   -5.076569    2.856546
    101          1           0       -1.340966   -4.794136    3.651973
    102          1           0        4.409748   -1.710952   -2.093552
    103          1           0        4.788812   -3.090214   -1.027638
    104          1           0        5.123706   -0.432644    0.355877
    105          1           0        7.078906   -3.417240   -0.685719
    106          1           0        8.540345   -2.687639   -0.204218
    107          1           0        8.022893   -2.310938   -1.825071
    108          1           0        8.642222   -0.785526    0.656775
    109          1           0        7.170028   -0.471761    1.645888
    110          1           0        6.957825    1.666223    0.875989
    111          1           0        7.168906    1.105108   -0.822924
    112          1           0        9.767147    0.899927    0.597263
    113          1           0        9.153790    2.411063    1.010121
    114          1           0       10.620767    2.645191   -0.771701
    115          1           0        9.056480    3.303236   -2.843792
    116          1           0        8.856026    4.317602   -1.398003
    117          1           0        7.676599    3.206856   -1.619027
    118          1           0        9.214124    1.042738   -2.710436
    119          1           0       10.041793    0.112900   -1.586823
    120          1           0       11.714332    2.397201   -2.487988
    121          1           0       11.376947    1.300784   -3.782562
    122          1           0       12.804416   -0.435830   -2.948164
    123          1           0       12.017219   -0.424830   -1.562701
    124          1           0       13.278364    1.710323   -0.989124
    125          1           0       14.186351    1.307042   -3.710216
    126          1           0       15.591696    0.950149   -2.859782
    127          1           0       14.677611    2.553078   -2.648517
    128          1           0       15.496085   -0.228556   -0.806082
    129          1           0       13.919083   -1.081661   -0.760656
    130          1           0       14.240626    1.463404    0.746379
    131          1           0       15.226205    0.211399    1.312169
    132          1           0       13.125005   -1.189248    1.747889
    133          1           0       12.249918   -0.121197    0.706844
    134          1           0       12.447284    1.687269    2.477833
    135          1           0       12.797552    0.067442    4.872659
    136          1           0       13.612656    1.535302    4.273498
    137          1           0       14.228550   -0.013620    3.717107
    138          1           0       11.169723   -0.468616    4.000383
    139          1           0       10.421688   -0.385106    2.407898
    140          1           0       10.324591    1.082685    3.310099
 ---------------------------------------------------------------------

 SCF Done:  E(RCAM-B3LYP) =  -3007.16460299     A.U. after   19 cycles

 Excitation energies and oscillator strengths:

 Excited State   1:      Singlet-A      1.6517 eV  750.63 nm  f=0.3710  <S**2>=0.000
     245 -> 248       -0.18453
     246 -> 247        0.68522
     245 <- 248       -0.11193
 This state for optimization and/or second-order correction.
 Total Energy, E(TD-HF/TD-DFT) =  -3007.10390295
 Copying the excited state density for this state as the 1-particle RhoCI density.

 Excited State   2:      Singlet-A      2.1645 eV  572.82 nm  f=0.1420  <S**2>=0.000
     245 -> 247        0.64804
     246 -> 248        0.27071

 Excited State   3:      Singlet-A      3.2135 eV  385.82 nm  f=0.0020  <S**2>=0.000
     242 -> 247       -0.11478
     244 -> 247        0.67593

 Excited State   4:      Singlet-A      3.2803 eV  377.96 nm  f=0.0035  <S**2>=0.000
     241 -> 247        0.50672
     241 -> 248       -0.12675
     241 -> 249        0.30740
     241 -> 251        0.17348
     242 -> 247        0.21085
     242 -> 249        0.11054

 Excited State   5:      Singlet-A      3.3991 eV  364.76 nm  f=0.0022  <S**2>=0.000
     239 -> 247        0.18730
     240 -> 247        0.44432
     240 -> 249       -0.18697
     240 -> 251        0.15073
     241 -> 247       -0.12293
     242 -> 247        0.37640
     244 -> 247        0.13122

 The electronic state is 1-A.
 Alpha  occ. eigenvalues --  -46.89217 -19.26314 -19.24711 -19.20886 -19.19495
 Alpha  occ. eigenvalues --  -19.18808 -19.17549 -14.42339 -14.41666 -14.40292
 Alpha  occ. eigenvalues --  -14.39227 -10.40308 -10.39852 -10.34197 -10.33993
 Alpha  occ. eigenvalues --  -10.32857 -10.31814 -10.31746 -10.31523 -10.31068
 Alpha  occ. eigenvalues --  -10.30931 -10.30929 -10.30161 -10.29504 -10.29029
 Alpha  occ. eigenvalues --  -10.28812 -10.28542 -10.28519 -10.28504 -10.28375
 Alpha  occ. eigenvalues --  -10.28280 -10.27797 -10.27695 -10.27374 -10.27300
 Alpha  occ. eigenvalues --  -10.27150 -10.27125 -10.26979 -10.26840 -10.26554
 Alpha  occ. eigenvalues --  -10.26405 -10.26355 -10.26284 -10.26078 -10.26019
 Alpha  occ. eigenvalues --  -10.25983 -10.25962 -10.25846 -10.25837 -10.25820
 Alpha  occ. eigenvalues --  -10.25703 -10.25599 -10.25594 -10.25414 -10.25392
 Alpha  occ. eigenvalues --  -10.25356 -10.24963 -10.24939 -10.24887 -10.24853
 Alpha  occ. eigenvalues --  -10.24837 -10.24763 -10.24622 -10.24549 -10.24509
 Alpha  occ. eigenvalues --  -10.24414  -3.17624  -1.92516  -1.92077  -1.91926
 Alpha  occ. eigenvalues --   -1.16370  -1.15953  -1.10493  -1.08247  -1.08068
 Alpha  occ. eigenvalues --   -1.06959  -1.03707  -1.03077  -1.02570  -1.01874
 Alpha  occ. eigenvalues --   -0.92750  -0.90760  -0.90223  -0.89277  -0.88982
 Alpha  occ. eigenvalues --   -0.88405  -0.87826  -0.87487  -0.87484  -0.87124
 Alpha  occ. eigenvalues --   -0.86872  -0.85313  -0.84128  -0.83657  -0.83189
 Alpha  occ. eigenvalues --   -0.82434  -0.81725  -0.81222  -0.81091  -0.80366
 Alpha  occ. eigenvalues --   -0.79026  -0.78684  -0.78143  -0.77277  -0.76395
 Alpha  occ. eigenvalues --   -0.76162  -0.75214  -0.75120  -0.74824  -0.74457
 Alpha  occ. eigenvalues --   -0.73595  -0.73139  -0.71580  -0.70763  -0.69935
 Alpha  occ. eigenvalues --   -0.69620  -0.68678  -0.67736  -0.67629  -0.65661
 Alpha  occ. eigenvalues --   -0.65297  -0.65227  -0.64579  -0.64386  -0.64045
 Alpha  occ. eigenvalues --   -0.62857  -0.62790  -0.62335  -0.61977  -0.60036
 Alpha  occ. eigenvalues --   -0.59871  -0.59543  -0.59286  -0.58604  -0.58297
 Alpha  occ. eigenvalues --   -0.57653  -0.57093  -0.55818  -0.55632  -0.55369
 Alpha  occ. eigenvalues --   -0.55251  -0.54910  -0.54622  -0.54589  -0.54149
 Alpha  occ. eigenvalues --   -0.54003  -0.53723  -0.53293  -0.53026  -0.52768
 Alpha  occ. eigenvalues --   -0.52638  -0.52374  -0.52203  -0.51822  -0.51715
 Alpha  occ. eigenvalues --   -0.51639  -0.51475  -0.51329  -0.51199  -0.51032
 Alpha  occ. eigenvalues --   -0.50264  -0.50114  -0.49795  -0.49727  -0.49504
 Alpha  occ. eigenvalues --   -0.49380  -0.49320  -0.49111  -0.49040  -0.48712
 Alpha  occ. eigenvalues --   -0.48524  -0.48366  -0.48067  -0.47969  -0.47805
 Alpha  occ. eigenvalues --   -0.47711  -0.47623  -0.47428  -0.46831  -0.46527
 Alpha  occ. eigenvalues --   -0.46172  -0.45894  -0.45831  -0.45707  -0.45668
 Alpha  occ. eigenvalues --   -0.45578  -0.45346  -0.45277  -0.44976  -0.44748
 Alpha  occ. eigenvalues --   -0.44700  -0.44525  -0.44047  -0.43909  -0.43798
 Alpha  occ. eigenvalues --   -0.43374  -0.43326  -0.43201  -0.43031  -0.42906
 Alpha  occ. eigenvalues --   -0.42727  -0.42596  -0.42481  -0.42214  -0.42095
 Alpha  occ. eigenvalues --   -0.41996  -0.41785  -0.41642  -0.41400  -0.41320
 Alpha  occ. eigenvalues --   -0.41199  -0.40988  -0.40779  -0.40698  -0.40218
 Alpha  occ. eigenvalues --   -0.39884  -0.39755  -0.39740  -0.39339  -0.38905
 Alpha  occ. eigenvalues --   -0.38653  -0.38312  -0.37819  -0.37580  -0.37564
 Alpha  occ. eigenvalues --   -0.37413  -0.37129  -0.36541  -0.36275  -0.36130
 Alpha  occ. eigenvalues --   -0.35765  -0.35634  -0.35201  -0.35181  -0.34323
 Alpha  occ. eigenvalues --   -0.34087  -0.33962  -0.33105  -0.31239  -0.30494
 Alpha  occ. eigenvalues --   -0.30249  -0.30057  -0.29863  -0.29429  -0.24065
 Alpha  occ. eigenvalues --   -0.21409
 Alpha virt. eigenvalues --   -0.09201  -0.01913   0.00011   0.02178   0.02378
 Alpha virt. eigenvalues --    0.04453   0.04898   0.05230   0.05996   0.06978
 Alpha virt. eigenvalues --    0.07686   0.07998   0.08240   0.08547   0.08975

 Mulliken charges:
               1
     1  Mg   0.805081
     2  C   -0.024985
     3  C   -0.079183
     4  C   -0.050574
     5  C   -0.099694
     6  N   -0.269115
     7  C   -0.057367
     8  C   -0.005838
     9  C   -0.070126
    10  C    0.091638
    11  C    0.039781
    12  C    0.085465
    13  C    0.020974
    14  C    0.155111
    15  O   -0.240042
    16  O   -0.342406
    17  N   -0.400479
    18  C    0.147630
    19  C   -0.184867
    20  C    0.041780
    21  C    0.171182
    22  C    0.137808
    23  C   -0.057352
    24  O   -0.249201
    25  C    0.071181
    26  N   -0.294025
    27  C   -0.011282
    28  C   -0.014263
    29  C   -0.048114
    30  C    0.068888
    31  C    0.074956
    32  C    0.028259
    33  C    0.006644
    34  N   -0.374150
    35  C    0.133788
    36  C   -0.154170
    37  C   -0.037866
    38  C    0.181474
    39  C    0.135931
    40  C    0.015878
    41  O   -0.153258
    42  C   -0.011269
    43  C    0.215830
    44  O   -0.212635
    45  O   -0.334829
    46  C    0.175895
    47  C    0.296848
    48  C   -0.102190
    49  C   -0.227987
    50  C    0.085402
    51  C    0.047528
    52  C    0.053599
    53  C    0.023526
    54  C   -0.119016
    55  C    0.044047
    56  C    0.031568
    57  C    0.031939
    58  C    0.031574
    59  C   -0.124402
    60  C    0.062503
    61  C    0.076239
    62  C   -0.020466
    63  C    0.021840
    64  C   -0.139032
    65  C    0.053535
    66  C    0.052002
    67  H   -0.023724
    68  H   -0.001779
    69  H   -0.011594
    70  H    0.024054
    71  H    0.025190
    72  H   -0.000188
    73  H    0.014857
    74  H    0.024190
    75  H    0.024748
    76  H    0.011915
    77  H    0.047274
    78  H    0.029732
    79  H    0.035968
    80  H    0.025394
    81  H    0.002365
    82  H    0.035464
    83  H    0.019992
    84  H    0.026479
    85  H    0.010254
    86  H   -0.001549
    87  H    0.013392
    88  H    0.013750
    89  H    0.031099
    90  H    0.005808
    91  H   -0.011925
    92  H    0.020883
    93  H    0.030385
    94  H    0.021867
    95  H    0.013924
    96  H    0.051311
    97  H    0.028143
    98  H    0.030801
    99  H    0.021135
   100  H    0.041920
   101  H    0.039609
   102  H    0.046410
   103  H    0.020311
   104  H   -0.006773
   105  H    0.017083
   106  H    0.003615
   107  H    0.045222
   108  H    0.005695
   109  H    0.019853
   110  H    0.004816
   111  H    0.026253
   112  H   -0.004260
   113  H   -0.012438
   114  H   -0.012984
   115  H    0.017578
   116  H   -0.001154
   117  H    0.013130
   118  H   -0.015317
   119  H   -0.019427
   120  H    0.004255
   121  H   -0.001520
   122  H   -0.019468
   123  H   -0.023258
   124  H   -0.002377
   125  H   -0.007090
   126  H    0.013185
   127  H    0.011332
   128  H   -0.005065
   129  H   -0.007447
   130  H   -0.014451
   131  H   -0.011562
   132  H   -0.005284
   133  H   -0.016666
   134  H   -0.005753
   135  H    0.014766
   136  H    0.007305
   137  H    0.013357
   138  H    0.007856
   139  H    0.000716
   140  H    0.021275
 Sum of Mulliken charges =  -0.00000

 Dipole moment (field-independent basis, Debye):
    X=              3.8965    Y=              2.2651    Z=             -1.0124  Tot=              4.6193
 Quadrupole moment (field-independent basis, Debye-Ang):
   XX=           -383.2879   YY=           -417.8886   ZZ=           -408.6697
   XY=             -0.5351   XZ=             26.3248   YZ=             -0.0839

 Normal termination of Gaussian 16 at Sat Apr 30 12:06:38 2022.
