 Gaussian 16, Revision A.03,
 Gaussian 16:  ES64L-G16RevA.03 25-Dec-2016

 ---------------------------------
 #p PBE1PBE/Def2SVP td=(nstates=5)
 ---------------------------------

 -----------------------------------------------------
 step_751_chromophore_13 TDDFT with PBE1PBE functional
 -----------------------------------------------------
 Symbolic Z-matrix:
 Charge =  0 Multiplicity = 1

                         Standard orientation:
 ---------------------------------------------------------------------
 Center     Atomic      Atomic             Coordinates (Angstroms)
 Number     Number       Type             X           Y           Z
 ---------------------------------------------------------------------
      1         12           0       -6.114612    0.372496   -0.156012
      2          6           0       -3.676908   -2.227374   -0.013685
      3          6           0       -3.499152    2.614157    0.457653
      4          6           0       -8.463140    2.746502    0.212878
      5          6           0       -8.585601   -2.144298   -0.395237
      6          7           0       -3.839600    0.190496    0.285087
      7          6           0       -3.075594   -0.945878    0.031241
      8          6           0       -1.601037   -0.677393    0.250008
      9          6           0       -1.556374    0.882252    0.303407
     10          6           0       -3.057818    1.296822    0.372976
     11          6           0       -0.669860    1.512293    1.436228
     12          6           0       -0.599655   -1.372116   -0.771662
     13          6           0        0.689554   -1.931111   -0.183300
     14          6           0        2.024795   -1.527001   -0.934287
     15          8           0        2.088265   -0.856470   -1.960807
     16          8           0        3.150299   -2.077584   -0.403576
     17          7           0       -6.007149    2.395405    0.196149
     18          6           0       -4.852184    3.144331    0.407529
     19          6           0       -5.276780    4.543367    0.481262
     20          6           0       -6.693335    4.585734    0.622977
     21          6           0       -7.110232    3.191237    0.403650
     22          6           0       -4.371697    5.748319    0.600280
     23          6           0       -7.543174    5.729747    0.744365
     24          8           0       -8.776370    5.603868    0.920457
     25          6           0       -7.060193    7.135614    0.934542
     26          7           0       -8.254259    0.376894   -0.000440
     27          6           0       -8.984171    1.504145   -0.053232
     28          6           0      -10.410949    1.193179   -0.481078
     29          6           0      -10.345623   -0.366854   -0.810150
     30          6           0       -8.945838   -0.786678   -0.297243
     31          6           0      -11.529067    1.805238    0.412494
     32          6           0      -10.523790   -0.655580   -2.307003
     33          6           0       -9.557506    0.018302   -3.298598
     34          7           0       -6.208001   -1.732598   -0.126748
     35          6           0       -7.294920   -2.674715   -0.261822
     36          6           0       -6.830005   -3.998676   -0.335865
     37          6           0       -5.412367   -3.830236   -0.168138
     38          6           0       -5.082848   -2.435479   -0.101720
     39          6           0       -7.630952   -5.221282   -0.550769
     40          6           0       -4.204038   -4.630944   -0.126324
     41          8           0       -4.101349   -5.821459   -0.297174
     42          6           0       -3.089415   -3.620747    0.160337
     43          6           0       -2.661616   -3.921032    1.579210
     44          8           0       -3.352539   -3.810884    2.594946
     45          8           0       -1.312484   -4.267966    1.537831
     46          6           0       -0.705071   -4.403479    2.856765
     47          6           0        4.472614   -2.048112   -1.058493
     48          6           0        5.528785   -1.193643   -0.310949
     49          6           0        6.846252   -1.390443   -0.186007
     50          6           0        7.657457   -2.502652   -0.816222
     51          6           0        7.616793   -0.415633    0.652920
     52          6           0        7.594051    1.119645    0.181059
     53          6           0        9.019343    1.622575    0.270047
     54          6           0        9.655178    2.229188   -1.061303
     55          6           0        8.747078    3.309711   -1.798468
     56          6           0       10.049048    1.115504   -2.014459
     57          6           0       11.434286    1.364966   -2.695815
     58          6           0       12.515078    0.303791   -2.202421
     59          6           0       13.683179    0.903195   -1.600406
     60          6           0       14.640153    1.466080   -2.731938
     61          6           0       14.424314   -0.123596   -0.637229
     62          6           0       14.286056    0.375567    0.785117
     63          6           0       12.926480   -0.133874    1.561773
     64          6           0       12.416091    0.638527    2.773309
     65          6           0       13.326520    0.512462    4.029732
     66          6           0       10.944602    0.196968    3.167163
     67          1           0       -2.718869    3.363112    0.606153
     68          1           0       -9.290329    3.456893    0.160161
     69          1           0       -9.398796   -2.836058   -0.624238
     70          1           0       -1.522661   -1.164521    1.222113
     71          1           0       -0.886604    1.274125   -0.462526
     72          1           0       -0.584559    0.862707    2.307257
     73          1           0       -1.191028    2.375045    1.850406
     74          1           0        0.327958    1.699786    1.039552
     75          1           0       -0.335917   -0.618471   -1.513473
     76          1           0       -1.103585   -2.183181   -1.296175
     77          1           0        0.727973   -3.018958   -0.136448
     78          1           0        0.753949   -1.591909    0.850859
     79          1           0       -4.481048    6.299654    1.533861
     80          1           0       -4.569924    6.400709   -0.250018
     81          1           0       -3.359286    5.356057    0.506583
     82          1           0       -6.513331    7.172889    1.876124
     83          1           0       -7.942336    7.755917    1.097473
     84          1           0       -6.563432    7.571274    0.068330
     85          1           0      -10.545282    1.624351   -1.472771
     86          1           0      -11.096410   -0.846083   -0.182127
     87          1           0      -11.747582    1.177476    1.277106
     88          1           0      -12.455699    1.929922   -0.147789
     89          1           0      -11.202852    2.777076    0.781909
     90          1           0      -11.563775   -0.540904   -2.614991
     91          1           0      -10.403456   -1.738859   -2.345015
     92          1           0       -8.617732   -0.531114   -3.244022
     93          1           0       -9.359189    1.062472   -3.056132
     94          1           0       -9.934820   -0.122964   -4.311569
     95          1           0       -8.297962   -4.907571   -1.353185
     96          1           0       -8.076308   -5.660650    0.341990
     97          1           0       -6.959517   -5.935649   -1.027412
     98          1           0       -2.257627   -3.903465   -0.485422
     99          1           0       -0.446616   -3.430681    3.274726
    100          1           0        0.152651   -5.076569    2.856546
    101          1           0       -1.340966   -4.794136    3.651973
    102          1           0        4.409748   -1.710952   -2.093552
    103          1           0        4.788812   -3.090214   -1.027638
    104          1           0        5.123706   -0.432644    0.355877
    105          1           0        7.078906   -3.417240   -0.685719
    106          1           0        8.540345   -2.687639   -0.204218
    107          1           0        8.022893   -2.310938   -1.825071
    108          1           0        8.642222   -0.785526    0.656775
    109          1           0        7.170028   -0.471761    1.645888
    110          1           0        6.957825    1.666223    0.875989
    111          1           0        7.168906    1.105108   -0.822924
    112          1           0        9.767147    0.899927    0.597263
    113          1           0        9.153790    2.411063    1.010121
    114          1           0       10.620767    2.645191   -0.771701
    115          1           0        9.056480    3.303236   -2.843792
    116          1           0        8.856026    4.317602   -1.398003
    117          1           0        7.676599    3.206856   -1.619027
    118          1           0        9.214124    1.042738   -2.710436
    119          1           0       10.041793    0.112900   -1.586823
    120          1           0       11.714332    2.397201   -2.487988
    121          1           0       11.376947    1.300784   -3.782562
    122          1           0       12.804416   -0.435830   -2.948164
    123          1           0       12.017219   -0.424830   -1.562701
    124          1           0       13.278364    1.710323   -0.989124
    125          1           0       14.186351    1.307042   -3.710216
    126          1           0       15.591696    0.950149   -2.859782
    127          1           0       14.677611    2.553078   -2.648517
    128          1           0       15.496085   -0.228556   -0.806082
    129          1           0       13.919083   -1.081661   -0.760656
    130          1           0       14.240626    1.463404    0.746379
    131          1           0       15.226205    0.211399    1.312169
    132          1           0       13.125005   -1.189248    1.747889
    133          1           0       12.249918   -0.121197    0.706844
    134          1           0       12.447284    1.687269    2.477833
    135          1           0       12.797552    0.067442    4.872659
    136          1           0       13.612656    1.535302    4.273498
    137          1           0       14.228550   -0.013620    3.717107
    138          1           0       11.169723   -0.468616    4.000383
    139          1           0       10.421688   -0.385106    2.407898
    140          1           0       10.324591    1.082685    3.310099
 ---------------------------------------------------------------------

 SCF Done:  E(RPBE1PBE) =  -3005.35410249     A.U. after   16 cycles

 Excitation energies and oscillator strengths:

 Excited State   1:      Singlet-A      1.8162 eV  682.67 nm  f=0.3522  <S**2>=0.000
     245 -> 248       -0.17772
     246 -> 247        0.69196
     246 <- 247       -0.10909
 This state for optimization and/or second-order correction.
 Total Energy, E(TD-HF/TD-DFT) =  -3005.28735935
 Copying the excited state density for this state as the 1-particle RhoCI density.

 Excited State   2:      Singlet-A      2.1729 eV  570.59 nm  f=0.1352  <S**2>=0.000
     245 -> 247        0.65588
     246 -> 248        0.24745

 Excited State   3:      Singlet-A      2.7261 eV  454.81 nm  f=0.0003  <S**2>=0.000
     244 -> 247        0.67012
     244 -> 249        0.16786

 Excited State   4:      Singlet-A      2.8283 eV  438.37 nm  f=0.0018  <S**2>=0.000
     241 -> 247       -0.38282
     243 -> 247        0.56357

 Excited State   5:      Singlet-A      2.9463 eV  420.82 nm  f=0.0041  <S**2>=0.000
     240 -> 247       -0.16232
     241 -> 247        0.53905
     243 -> 247        0.40174

 The electronic state is 1-A.
 Alpha  occ. eigenvalues --  -46.92608 -19.26956 -19.25441 -19.21101 -19.19824
 Alpha  occ. eigenvalues --  -19.19054 -19.17780 -14.41899 -14.41153 -14.39960
 Alpha  occ. eigenvalues --  -14.38926 -10.37335 -10.36938 -10.31357 -10.31065
 Alpha  occ. eigenvalues --  -10.30284 -10.29481 -10.29211 -10.29035 -10.28772
 Alpha  occ. eigenvalues --  -10.28739 -10.28624 -10.27850 -10.27272 -10.26698
 Alpha  occ. eigenvalues --  -10.26455 -10.26377 -10.26374 -10.26192 -10.26161
 Alpha  occ. eigenvalues --  -10.25780 -10.25482 -10.25370 -10.25151 -10.24987
 Alpha  occ. eigenvalues --  -10.24977 -10.24763 -10.24489 -10.24369 -10.24226
 Alpha  occ. eigenvalues --  -10.24060 -10.23845 -10.23748 -10.23747 -10.23674
 Alpha  occ. eigenvalues --  -10.23624 -10.23404 -10.23399 -10.23396 -10.23278
 Alpha  occ. eigenvalues --  -10.23205 -10.23198 -10.23100 -10.22999 -10.22920
 Alpha  occ. eigenvalues --  -10.22847 -10.22569 -10.22530 -10.22456 -10.22422
 Alpha  occ. eigenvalues --  -10.22377 -10.22281 -10.22073 -10.22036 -10.21983
 Alpha  occ. eigenvalues --  -10.21945  -3.14600  -1.87432  -1.86970  -1.86825
 Alpha  occ. eigenvalues --   -1.11112  -1.10810  -1.05269  -1.03044  -1.02748
 Alpha  occ. eigenvalues --   -1.01863  -0.98309  -0.97670  -0.97243  -0.96542
 Alpha  occ. eigenvalues --   -0.87104  -0.84886  -0.84339  -0.83512  -0.83278
 Alpha  occ. eigenvalues --   -0.82514  -0.82124  -0.81750  -0.81587  -0.81450
 Alpha  occ. eigenvalues --   -0.81214  -0.79571  -0.78340  -0.77951  -0.77455
 Alpha  occ. eigenvalues --   -0.76628  -0.75968  -0.75449  -0.75370  -0.74632
 Alpha  occ. eigenvalues --   -0.73157  -0.72975  -0.72429  -0.71579  -0.70664
 Alpha  occ. eigenvalues --   -0.70410  -0.69478  -0.69304  -0.68956  -0.68618
 Alpha  occ. eigenvalues --   -0.67935  -0.67578  -0.66017  -0.65034  -0.64273
 Alpha  occ. eigenvalues --   -0.63897  -0.63104  -0.62150  -0.61918  -0.60127
 Alpha  occ. eigenvalues --   -0.59806  -0.59526  -0.59146  -0.58534  -0.58510
 Alpha  occ. eigenvalues --   -0.57421  -0.57007  -0.56892  -0.56232  -0.54577
 Alpha  occ. eigenvalues --   -0.54466  -0.53949  -0.53759  -0.53123  -0.52872
 Alpha  occ. eigenvalues --   -0.52065  -0.51705  -0.50409  -0.50129  -0.49848
 Alpha  occ. eigenvalues --   -0.49664  -0.49450  -0.49157  -0.48995  -0.48746
 Alpha  occ. eigenvalues --   -0.48552  -0.48139  -0.47831  -0.47412  -0.47296
 Alpha  occ. eigenvalues --   -0.47223  -0.46889  -0.46695  -0.46401  -0.46282
 Alpha  occ. eigenvalues --   -0.46163  -0.45989  -0.45922  -0.45733  -0.45652
 Alpha  occ. eigenvalues --   -0.44866  -0.44675  -0.44356  -0.44300  -0.44096
 Alpha  occ. eigenvalues --   -0.44000  -0.43924  -0.43725  -0.43646  -0.43353
 Alpha  occ. eigenvalues --   -0.43153  -0.43002  -0.42647  -0.42564  -0.42454
 Alpha  occ. eigenvalues --   -0.42293  -0.42246  -0.42127  -0.41506  -0.41285
 Alpha  occ. eigenvalues --   -0.40937  -0.40562  -0.40498  -0.40397  -0.40332
 Alpha  occ. eigenvalues --   -0.40284  -0.40048  -0.39978  -0.39750  -0.39531
 Alpha  occ. eigenvalues --   -0.39405  -0.39338  -0.38828  -0.38566  -0.38543
 Alpha  occ. eigenvalues --   -0.38202  -0.38064  -0.37918  -0.37787  -0.37606
 Alpha  occ. eigenvalues --   -0.37477  -0.37418  -0.37323  -0.37121  -0.36954
 Alpha  occ. eigenvalues --   -0.36698  -0.36648  -0.36377  -0.36198  -0.36096
 Alpha  occ. eigenvalues --   -0.36039  -0.35837  -0.35606  -0.35561  -0.35180
 Alpha  occ. eigenvalues --   -0.34734  -0.34671  -0.34518  -0.34306  -0.33714
 Alpha  occ. eigenvalues --   -0.33401  -0.33151  -0.32837  -0.32598  -0.32322
 Alpha  occ. eigenvalues --   -0.32320  -0.32047  -0.31644  -0.31356  -0.31010
 Alpha  occ. eigenvalues --   -0.30741  -0.30622  -0.30190  -0.29976  -0.29253
 Alpha  occ. eigenvalues --   -0.29249  -0.28820  -0.28717  -0.26844  -0.25776
 Alpha  occ. eigenvalues --   -0.25465  -0.25152  -0.25084  -0.24862  -0.21043
 Alpha  occ. eigenvalues --   -0.19049
 Alpha virt. eigenvalues --   -0.11595  -0.05418  -0.04174  -0.02035  -0.00706
 Alpha virt. eigenvalues --   -0.00121   0.00426   0.00803   0.01363   0.03088
 Alpha virt. eigenvalues --    0.04373   0.04602   0.04700   0.04956   0.05358

 Mulliken charges:
               1
     1  Mg   0.948814
     2  C   -0.019195
     3  C   -0.071498
     4  C   -0.044392
     5  C   -0.090856
     6  N   -0.368780
     7  C    0.015111
     8  C   -0.082307
     9  C   -0.142712
    10  C    0.124289
    11  C   -0.014632
    12  C    0.035855
    13  C   -0.055066
    14  C    0.224204
    15  O   -0.272662
    16  O   -0.375327
    17  N   -0.514063
    18  C    0.170938
    19  C   -0.205431
    20  C   -0.015418
    21  C    0.206226
    22  C    0.072931
    23  C   -0.009131
    24  O   -0.283111
    25  C   -0.004566
    26  N   -0.399823
    27  C    0.027408
    28  C   -0.090184
    29  C   -0.123644
    30  C    0.107464
    31  C    0.014471
    32  C   -0.036350
    33  C   -0.067837
    34  N   -0.498459
    35  C    0.148788
    36  C   -0.165164
    37  C   -0.087576
    38  C    0.232695
    39  C    0.080558
    40  C    0.105099
    41  O   -0.200818
    42  C   -0.125158
    43  C    0.308388
    44  O   -0.246313
    45  O   -0.366071
    46  C    0.120064
    47  C    0.259202
    48  C   -0.117799
    49  C   -0.265651
    50  C    0.022323
    51  C   -0.017504
    52  C   -0.010527
    53  C   -0.039599
    54  C   -0.206208
    55  C   -0.015553
    56  C   -0.020853
    57  C   -0.029299
    58  C   -0.018312
    59  C   -0.216960
    60  C    0.006478
    61  C    0.021839
    62  C   -0.080887
    63  C   -0.041313
    64  C   -0.230016
    65  C   -0.007204
    66  C   -0.015862
    67  H    0.007991
    68  H    0.030458
    69  H    0.018138
    70  H    0.065864
    71  H    0.060875
    72  H    0.027748
    73  H    0.042260
    74  H    0.050606
    75  H    0.056276
    76  H    0.046051
    77  H    0.078917
    78  H    0.061735
    79  H    0.062930
    80  H    0.054485
    81  H    0.032619
    82  H    0.062342
    83  H    0.047998
    84  H    0.052741
    85  H    0.050746
    86  H    0.036382
    87  H    0.041692
    88  H    0.041561
    89  H    0.058308
    90  H    0.039187
    91  H    0.023089
    92  H    0.050387
    93  H    0.057796
    94  H    0.050666
    95  H    0.041281
    96  H    0.077771
    97  H    0.056969
    98  H    0.067591
    99  H    0.043505
   100  H    0.063606
   101  H    0.061295
   102  H    0.072102
   103  H    0.047568
   104  H    0.023421
   105  H    0.044194
   106  H    0.030408
   107  H    0.071564
   108  H    0.036943
   109  H    0.053220
   110  H    0.037376
   111  H    0.057902
   112  H    0.037494
   113  H    0.021386
   114  H    0.026473
   115  H    0.045076
   116  H    0.027002
   117  H    0.039632
   118  H    0.017947
   119  H    0.015045
   120  H    0.034975
   121  H    0.031094
   122  H    0.013998
   123  H    0.005314
   124  H    0.036305
   125  H    0.020699
   126  H    0.039282
   127  H    0.038482
   128  H    0.027243
   129  H    0.026020
   130  H    0.019139
   131  H    0.020192
   132  H    0.028131
   133  H    0.024618
   134  H    0.031750
   135  H    0.040461
   136  H    0.035119
   137  H    0.041427
   138  H    0.035494
   139  H    0.031462
   140  H    0.049124
 Sum of Mulliken charges =  -0.00000

 Dipole moment (field-independent basis, Debye):
    X=              3.8729    Y=              2.1829    Z=             -1.0838  Tot=              4.5759
 Quadrupole moment (field-independent basis, Debye-Ang):
   XX=           -377.1418   YY=           -415.2946   ZZ=           -406.2621
   XY=              0.5945   XZ=             26.9136   YZ=              0.1002

 Normal termination of Gaussian 16 at Sat Apr 30 12:23:17 2022.
