 Gaussian 16, Revision A.03,
 Gaussian 16:  ES64L-G16RevA.03 25-Dec-2016

 --------------------------------
 #p wB97XD/Def2SVP td=(nstates=5)
 --------------------------------

 ----------------------------------------------------
 step_751_chromophore_13 TDDFT with wB97XD functional
 ----------------------------------------------------
 Symbolic Z-matrix:
 Charge =  0 Multiplicity = 1

                         Standard orientation:
 ---------------------------------------------------------------------
 Center     Atomic      Atomic             Coordinates (Angstroms)
 Number     Number       Type             X           Y           Z
 ---------------------------------------------------------------------
      1         12           0       -6.114612    0.372496   -0.156012
      2          6           0       -3.676908   -2.227374   -0.013685
      3          6           0       -3.499152    2.614157    0.457653
      4          6           0       -8.463140    2.746502    0.212878
      5          6           0       -8.585601   -2.144298   -0.395237
      6          7           0       -3.839600    0.190496    0.285087
      7          6           0       -3.075594   -0.945878    0.031241
      8          6           0       -1.601037   -0.677393    0.250008
      9          6           0       -1.556374    0.882252    0.303407
     10          6           0       -3.057818    1.296822    0.372976
     11          6           0       -0.669860    1.512293    1.436228
     12          6           0       -0.599655   -1.372116   -0.771662
     13          6           0        0.689554   -1.931111   -0.183300
     14          6           0        2.024795   -1.527001   -0.934287
     15          8           0        2.088265   -0.856470   -1.960807
     16          8           0        3.150299   -2.077584   -0.403576
     17          7           0       -6.007149    2.395405    0.196149
     18          6           0       -4.852184    3.144331    0.407529
     19          6           0       -5.276780    4.543367    0.481262
     20          6           0       -6.693335    4.585734    0.622977
     21          6           0       -7.110232    3.191237    0.403650
     22          6           0       -4.371697    5.748319    0.600280
     23          6           0       -7.543174    5.729747    0.744365
     24          8           0       -8.776370    5.603868    0.920457
     25          6           0       -7.060193    7.135614    0.934542
     26          7           0       -8.254259    0.376894   -0.000440
     27          6           0       -8.984171    1.504145   -0.053232
     28          6           0      -10.410949    1.193179   -0.481078
     29          6           0      -10.345623   -0.366854   -0.810150
     30          6           0       -8.945838   -0.786678   -0.297243
     31          6           0      -11.529067    1.805238    0.412494
     32          6           0      -10.523790   -0.655580   -2.307003
     33          6           0       -9.557506    0.018302   -3.298598
     34          7           0       -6.208001   -1.732598   -0.126748
     35          6           0       -7.294920   -2.674715   -0.261822
     36          6           0       -6.830005   -3.998676   -0.335865
     37          6           0       -5.412367   -3.830236   -0.168138
     38          6           0       -5.082848   -2.435479   -0.101720
     39          6           0       -7.630952   -5.221282   -0.550769
     40          6           0       -4.204038   -4.630944   -0.126324
     41          8           0       -4.101349   -5.821459   -0.297174
     42          6           0       -3.089415   -3.620747    0.160337
     43          6           0       -2.661616   -3.921032    1.579210
     44          8           0       -3.352539   -3.810884    2.594946
     45          8           0       -1.312484   -4.267966    1.537831
     46          6           0       -0.705071   -4.403479    2.856765
     47          6           0        4.472614   -2.048112   -1.058493
     48          6           0        5.528785   -1.193643   -0.310949
     49          6           0        6.846252   -1.390443   -0.186007
     50          6           0        7.657457   -2.502652   -0.816222
     51          6           0        7.616793   -0.415633    0.652920
     52          6           0        7.594051    1.119645    0.181059
     53          6           0        9.019343    1.622575    0.270047
     54          6           0        9.655178    2.229188   -1.061303
     55          6           0        8.747078    3.309711   -1.798468
     56          6           0       10.049048    1.115504   -2.014459
     57          6           0       11.434286    1.364966   -2.695815
     58          6           0       12.515078    0.303791   -2.202421
     59          6           0       13.683179    0.903195   -1.600406
     60          6           0       14.640153    1.466080   -2.731938
     61          6           0       14.424314   -0.123596   -0.637229
     62          6           0       14.286056    0.375567    0.785117
     63          6           0       12.926480   -0.133874    1.561773
     64          6           0       12.416091    0.638527    2.773309
     65          6           0       13.326520    0.512462    4.029732
     66          6           0       10.944602    0.196968    3.167163
     67          1           0       -2.718869    3.363112    0.606153
     68          1           0       -9.290329    3.456893    0.160161
     69          1           0       -9.398796   -2.836058   -0.624238
     70          1           0       -1.522661   -1.164521    1.222113
     71          1           0       -0.886604    1.274125   -0.462526
     72          1           0       -0.584559    0.862707    2.307257
     73          1           0       -1.191028    2.375045    1.850406
     74          1           0        0.327958    1.699786    1.039552
     75          1           0       -0.335917   -0.618471   -1.513473
     76          1           0       -1.103585   -2.183181   -1.296175
     77          1           0        0.727973   -3.018958   -0.136448
     78          1           0        0.753949   -1.591909    0.850859
     79          1           0       -4.481048    6.299654    1.533861
     80          1           0       -4.569924    6.400709   -0.250018
     81          1           0       -3.359286    5.356057    0.506583
     82          1           0       -6.513331    7.172889    1.876124
     83          1           0       -7.942336    7.755917    1.097473
     84          1           0       -6.563432    7.571274    0.068330
     85          1           0      -10.545282    1.624351   -1.472771
     86          1           0      -11.096410   -0.846083   -0.182127
     87          1           0      -11.747582    1.177476    1.277106
     88          1           0      -12.455699    1.929922   -0.147789
     89          1           0      -11.202852    2.777076    0.781909
     90          1           0      -11.563775   -0.540904   -2.614991
     91          1           0      -10.403456   -1.738859   -2.345015
     92          1           0       -8.617732   -0.531114   -3.244022
     93          1           0       -9.359189    1.062472   -3.056132
     94          1           0       -9.934820   -0.122964   -4.311569
     95          1           0       -8.297962   -4.907571   -1.353185
     96          1           0       -8.076308   -5.660650    0.341990
     97          1           0       -6.959517   -5.935649   -1.027412
     98          1           0       -2.257627   -3.903465   -0.485422
     99          1           0       -0.446616   -3.430681    3.274726
    100          1           0        0.152651   -5.076569    2.856546
    101          1           0       -1.340966   -4.794136    3.651973
    102          1           0        4.409748   -1.710952   -2.093552
    103          1           0        4.788812   -3.090214   -1.027638
    104          1           0        5.123706   -0.432644    0.355877
    105          1           0        7.078906   -3.417240   -0.685719
    106          1           0        8.540345   -2.687639   -0.204218
    107          1           0        8.022893   -2.310938   -1.825071
    108          1           0        8.642222   -0.785526    0.656775
    109          1           0        7.170028   -0.471761    1.645888
    110          1           0        6.957825    1.666223    0.875989
    111          1           0        7.168906    1.105108   -0.822924
    112          1           0        9.767147    0.899927    0.597263
    113          1           0        9.153790    2.411063    1.010121
    114          1           0       10.620767    2.645191   -0.771701
    115          1           0        9.056480    3.303236   -2.843792
    116          1           0        8.856026    4.317602   -1.398003
    117          1           0        7.676599    3.206856   -1.619027
    118          1           0        9.214124    1.042738   -2.710436
    119          1           0       10.041793    0.112900   -1.586823
    120          1           0       11.714332    2.397201   -2.487988
    121          1           0       11.376947    1.300784   -3.782562
    122          1           0       12.804416   -0.435830   -2.948164
    123          1           0       12.017219   -0.424830   -1.562701
    124          1           0       13.278364    1.710323   -0.989124
    125          1           0       14.186351    1.307042   -3.710216
    126          1           0       15.591696    0.950149   -2.859782
    127          1           0       14.677611    2.553078   -2.648517
    128          1           0       15.496085   -0.228556   -0.806082
    129          1           0       13.919083   -1.081661   -0.760656
    130          1           0       14.240626    1.463404    0.746379
    131          1           0       15.226205    0.211399    1.312169
    132          1           0       13.125005   -1.189248    1.747889
    133          1           0       12.249918   -0.121197    0.706844
    134          1           0       12.447284    1.687269    2.477833
    135          1           0       12.797552    0.067442    4.872659
    136          1           0       13.612656    1.535302    4.273498
    137          1           0       14.228550   -0.013620    3.717107
    138          1           0       11.169723   -0.468616    4.000383
    139          1           0       10.421688   -0.385106    2.407898
    140          1           0       10.324591    1.082685    3.310099
 ---------------------------------------------------------------------

 SCF Done:  E(RwB97XD) =  -3007.86662902     A.U. after   19 cycles

 Excitation energies and oscillator strengths:

 Excited State   1:      Singlet-A      1.5878 eV  780.85 nm  f=0.3695  <S**2>=0.000
     245 -> 248       -0.19062
     246 -> 247        0.68294
     245 <- 248       -0.12197
 This state for optimization and/or second-order correction.
 Total Energy, E(TD-HF/TD-DFT) =  -3007.80827799
 Copying the excited state density for this state as the 1-particle RhoCI density.

 Excited State   2:      Singlet-A      2.1062 eV  588.67 nm  f=0.1374  <S**2>=0.000
     245 -> 247        0.64558
     246 -> 248        0.27405
     246 <- 248        0.10034

 Excited State   3:      Singlet-A      3.2325 eV  383.55 nm  f=0.0015  <S**2>=0.000
     244 -> 247        0.67272

 Excited State   4:      Singlet-A      3.2939 eV  376.41 nm  f=0.0043  <S**2>=0.000
     241 -> 247       -0.18060
     241 -> 249       -0.13382
     242 -> 247        0.50232
     242 -> 248       -0.12615
     242 -> 249        0.32476
     242 -> 250       -0.18186

 Excited State   5:      Singlet-A      3.4263 eV  361.86 nm  f=0.0056  <S**2>=0.000
     239 -> 247       -0.12751
     240 -> 247        0.30235
     240 -> 249       -0.19275
     240 -> 250       -0.14372
     241 -> 247        0.49016
     242 -> 247        0.17442
     244 -> 247        0.10145
     246 -> 248       -0.14054

 The electronic state is 1-A.
 Alpha  occ. eigenvalues --  -46.95564 -19.31537 -19.29990 -19.25825 -19.24467
 Alpha  occ. eigenvalues --  -19.23847 -19.22600 -14.46932 -14.46274 -14.44917
 Alpha  occ. eigenvalues --  -14.43829 -10.44169 -10.43696 -10.38202 -10.37948
 Alpha  occ. eigenvalues --  -10.36771 -10.35785 -10.35560 -10.35557 -10.35153
 Alpha  occ. eigenvalues --  -10.34991 -10.34950 -10.34171 -10.33522 -10.33024
 Alpha  occ. eigenvalues --  -10.32971 -10.32639 -10.32615 -10.32576 -10.32425
 Alpha  occ. eigenvalues --  -10.32213 -10.31862 -10.31803 -10.31424 -10.31341
 Alpha  occ. eigenvalues --  -10.31198 -10.31135 -10.30926 -10.30825 -10.30637
 Alpha  occ. eigenvalues --  -10.30347 -10.30224 -10.30112 -10.30064 -10.30031
 Alpha  occ. eigenvalues --  -10.30017 -10.29836 -10.29784 -10.29782 -10.29686
 Alpha  occ. eigenvalues --  -10.29569 -10.29557 -10.29474 -10.29367 -10.29356
 Alpha  occ. eigenvalues --  -10.29303 -10.28893 -10.28814 -10.28810 -10.28809
 Alpha  occ. eigenvalues --  -10.28762 -10.28708 -10.28453 -10.28428 -10.28364
 Alpha  occ. eigenvalues --  -10.28345  -3.21428  -1.95005  -1.94547  -1.94397
 Alpha  occ. eigenvalues --   -1.18535  -1.18170  -1.12724  -1.10438  -1.10276
 Alpha  occ. eigenvalues --   -1.09186  -1.05702  -1.05076  -1.04609  -1.03919
 Alpha  occ. eigenvalues --   -0.94727  -0.92556  -0.91998  -0.91140  -0.90878
 Alpha  occ. eigenvalues --   -0.90181  -0.89730  -0.89446  -0.89258  -0.89042
 Alpha  occ. eigenvalues --   -0.88826  -0.87211  -0.85991  -0.85581  -0.85081
 Alpha  occ. eigenvalues --   -0.84282  -0.83631  -0.83147  -0.83011  -0.82316
 Alpha  occ. eigenvalues --   -0.80839  -0.80649  -0.80060  -0.79196  -0.78298
 Alpha  occ. eigenvalues --   -0.78059  -0.77065  -0.77010  -0.76635  -0.76289
 Alpha  occ. eigenvalues --   -0.75528  -0.75126  -0.73552  -0.72671  -0.71848
 Alpha  occ. eigenvalues --   -0.71522  -0.70682  -0.69658  -0.69580  -0.67621
 Alpha  occ. eigenvalues --   -0.67233  -0.67158  -0.66588  -0.66182  -0.65997
 Alpha  occ. eigenvalues --   -0.64842  -0.64651  -0.64313  -0.63837  -0.62038
 Alpha  occ. eigenvalues --   -0.61864  -0.61449  -0.61233  -0.60574  -0.60283
 Alpha  occ. eigenvalues --   -0.59562  -0.59092  -0.57781  -0.57555  -0.57291
 Alpha  occ. eigenvalues --   -0.57135  -0.56854  -0.56565  -0.56476  -0.56125
 Alpha  occ. eigenvalues --   -0.55930  -0.55576  -0.55220  -0.54949  -0.54716
 Alpha  occ. eigenvalues --   -0.54593  -0.54275  -0.54083  -0.53754  -0.53624
 Alpha  occ. eigenvalues --   -0.53544  -0.53362  -0.53264  -0.53089  -0.52958
 Alpha  occ. eigenvalues --   -0.52183  -0.52011  -0.51693  -0.51641  -0.51451
 Alpha  occ. eigenvalues --   -0.51296  -0.51229  -0.51056  -0.50936  -0.50625
 Alpha  occ. eigenvalues --   -0.50436  -0.50277  -0.49941  -0.49843  -0.49733
 Alpha  occ. eigenvalues --   -0.49679  -0.49529  -0.49370  -0.48796  -0.48474
 Alpha  occ. eigenvalues --   -0.48134  -0.47758  -0.47727  -0.47603  -0.47547
 Alpha  occ. eigenvalues --   -0.47469  -0.47252  -0.47204  -0.46910  -0.46657
 Alpha  occ. eigenvalues --   -0.46597  -0.46436  -0.45982  -0.45780  -0.45768
 Alpha  occ. eigenvalues --   -0.45279  -0.45220  -0.45096  -0.44921  -0.44775
 Alpha  occ. eigenvalues --   -0.44697  -0.44502  -0.44400  -0.44149  -0.44049
 Alpha  occ. eigenvalues --   -0.43846  -0.43719  -0.43510  -0.43288  -0.43228
 Alpha  occ. eigenvalues --   -0.43202  -0.42913  -0.42676  -0.42595  -0.42193
 Alpha  occ. eigenvalues --   -0.41754  -0.41644  -0.41595  -0.41254  -0.40776
 Alpha  occ. eigenvalues --   -0.40484  -0.40150  -0.39747  -0.39535  -0.39397
 Alpha  occ. eigenvalues --   -0.39390  -0.39063  -0.38664  -0.38200  -0.37978
 Alpha  occ. eigenvalues --   -0.37700  -0.37506  -0.37121  -0.37063  -0.36166
 Alpha  occ. eigenvalues --   -0.36068  -0.35901  -0.35385  -0.33424  -0.32512
 Alpha  occ. eigenvalues --   -0.32281  -0.32123  -0.31898  -0.31593  -0.25972
 Alpha  occ. eigenvalues --   -0.23201
 Alpha virt. eigenvalues --   -0.07575  -0.00008   0.02086   0.04478   0.05221
 Alpha virt. eigenvalues --    0.06616   0.07158   0.07540   0.08244   0.09681
 Alpha virt. eigenvalues --    0.10886   0.11108   0.11286   0.11553   0.12097

 Mulliken charges:
               1
     1  Mg   0.939419
     2  C   -0.032066
     3  C   -0.088733
     4  C   -0.057509
     5  C   -0.106649
     6  N   -0.336425
     7  C   -0.012503
     8  C   -0.053196
     9  C   -0.119216
    10  C    0.113989
    11  C   -0.004276
    12  C    0.047323
    13  C   -0.038732
    14  C    0.214353
    15  O   -0.270546
    16  O   -0.373909
    17  N   -0.483882
    18  C    0.163368
    19  C   -0.197794
    20  C   -0.005785
    21  C    0.195152
    22  C    0.088296
    23  C   -0.013085
    24  O   -0.278222
    25  C    0.007830
    26  N   -0.364646
    27  C    0.013999
    28  C   -0.065208
    29  C   -0.099206
    30  C    0.091788
    31  C    0.026938
    32  C   -0.018351
    33  C   -0.048915
    34  N   -0.462199
    35  C    0.142982
    36  C   -0.163575
    37  C   -0.084056
    38  C    0.216323
    39  C    0.092199
    40  C    0.088950
    41  O   -0.190578
    42  C   -0.081022
    43  C    0.282311
    44  O   -0.241420
    45  O   -0.364693
    46  C    0.134921
    47  C    0.272250
    48  C   -0.128207
    49  C   -0.253210
    50  C    0.036733
    51  C    0.009599
    52  C    0.002829
    53  C   -0.003981
    54  C   -0.174355
    55  C   -0.003808
    56  C   -0.003819
    57  C   -0.013399
    58  C   -0.001896
    59  C   -0.180016
    60  C    0.016034
    61  C    0.035616
    62  C   -0.062290
    63  C   -0.013381
    64  C   -0.201212
    65  C    0.005179
    66  C    0.003982
    67  H   -0.001368
    68  H    0.022476
    69  H    0.013523
    70  H    0.048121
    71  H    0.051077
    72  H    0.021879
    73  H    0.035360
    74  H    0.046082
    75  H    0.048446
    76  H    0.036503
    77  H    0.073532
    78  H    0.054167
    79  H    0.057721
    80  H    0.048061
    81  H    0.027323
    82  H    0.056786
    83  H    0.046722
    84  H    0.048629
    85  H    0.036138
    86  H    0.027437
    87  H    0.035650
    88  H    0.036401
    89  H    0.052358
    90  H    0.031832
    91  H    0.012276
    92  H    0.041399
    93  H    0.049219
    94  H    0.046234
    95  H    0.034661
    96  H    0.074737
    97  H    0.052637
    98  H    0.060055
    99  H    0.039099
   100  H    0.060674
   101  H    0.057016
   102  H    0.068860
   103  H    0.042034
   104  H    0.020094
   105  H    0.037834
   106  H    0.025683
   107  H    0.067238
   108  H    0.019604
   109  H    0.045632
   110  H    0.031577
   111  H    0.045191
   112  H    0.006961
   113  H    0.013325
   114  H    0.012012
   115  H    0.038392
   116  H    0.021675
   117  H    0.033458
   118  H    0.008673
   119  H    0.000719
   120  H    0.023985
   121  H    0.024580
   122  H    0.005410
   123  H   -0.006393
   124  H    0.016676
   125  H    0.013292
   126  H    0.034505
   127  H    0.033540
   128  H    0.020695
   129  H    0.015522
   130  H    0.007378
   131  H    0.013046
   132  H    0.018984
   133  H   -0.000609
   134  H    0.019974
   135  H    0.034742
   136  H    0.029734
   137  H    0.034218
   138  H    0.028445
   139  H    0.020325
   140  H    0.043734
 Sum of Mulliken charges =  -0.00000

 Dipole moment (field-independent basis, Debye):
    X=              3.9216    Y=              2.3476    Z=             -1.0494  Tot=              4.6896
 Quadrupole moment (field-independent basis, Debye-Ang):
   XX=           -377.8694   YY=           -413.3800   ZZ=           -405.8444
   XY=             -0.7072   XZ=             27.0243   YZ=              0.1943

 Normal termination of Gaussian 16 at Sat Apr 30 12:49:48 2022.
