 Gaussian 16, Revision A.03,
 Gaussian 16:  ES64L-G16RevA.03 25-Dec-2016

 --------------------
 #p ZINDO=(nstates=5)
 --------------------

 -----------------------------
 step_751_chromophore_13 ZINDO
 -----------------------------
 Symbolic Z-matrix:
 Charge =  0 Multiplicity = 1

                         Standard orientation:
 ---------------------------------------------------------------------
 Center     Atomic      Atomic             Coordinates (Angstroms)
 Number     Number       Type             X           Y           Z
 ---------------------------------------------------------------------
      1         12           0       -6.114612    0.372496   -0.156012
      2          6           0       -3.676908   -2.227374   -0.013685
      3          6           0       -3.499152    2.614157    0.457653
      4          6           0       -8.463140    2.746502    0.212878
      5          6           0       -8.585601   -2.144298   -0.395237
      6          7           0       -3.839600    0.190496    0.285087
      7          6           0       -3.075594   -0.945878    0.031241
      8          6           0       -1.601037   -0.677393    0.250008
      9          6           0       -1.556374    0.882252    0.303407
     10          6           0       -3.057818    1.296822    0.372976
     11          6           0       -0.669860    1.512293    1.436228
     12          6           0       -0.599655   -1.372116   -0.771662
     13          6           0        0.689554   -1.931111   -0.183300
     14          6           0        2.024795   -1.527001   -0.934287
     15          8           0        2.088265   -0.856470   -1.960807
     16          8           0        3.150299   -2.077584   -0.403576
     17          7           0       -6.007149    2.395405    0.196149
     18          6           0       -4.852184    3.144331    0.407529
     19          6           0       -5.276780    4.543367    0.481262
     20          6           0       -6.693335    4.585734    0.622977
     21          6           0       -7.110232    3.191237    0.403650
     22          6           0       -4.371697    5.748319    0.600280
     23          6           0       -7.543174    5.729747    0.744365
     24          8           0       -8.776370    5.603868    0.920457
     25          6           0       -7.060193    7.135614    0.934542
     26          7           0       -8.254259    0.376894   -0.000440
     27          6           0       -8.984171    1.504145   -0.053232
     28          6           0      -10.410949    1.193179   -0.481078
     29          6           0      -10.345623   -0.366854   -0.810150
     30          6           0       -8.945838   -0.786678   -0.297243
     31          6           0      -11.529067    1.805238    0.412494
     32          6           0      -10.523790   -0.655580   -2.307003
     33          6           0       -9.557506    0.018302   -3.298598
     34          7           0       -6.208001   -1.732598   -0.126748
     35          6           0       -7.294920   -2.674715   -0.261822
     36          6           0       -6.830005   -3.998676   -0.335865
     37          6           0       -5.412367   -3.830236   -0.168138
     38          6           0       -5.082848   -2.435479   -0.101720
     39          6           0       -7.630952   -5.221282   -0.550769
     40          6           0       -4.204038   -4.630944   -0.126324
     41          8           0       -4.101349   -5.821459   -0.297174
     42          6           0       -3.089415   -3.620747    0.160337
     43          6           0       -2.661616   -3.921032    1.579210
     44          8           0       -3.352539   -3.810884    2.594946
     45          8           0       -1.312484   -4.267966    1.537831
     46          6           0       -0.705071   -4.403479    2.856765
     47          6           0        4.472614   -2.048112   -1.058493
     48          6           0        5.528785   -1.193643   -0.310949
     49          6           0        6.846252   -1.390443   -0.186007
     50          6           0        7.657457   -2.502652   -0.816222
     51          6           0        7.616793   -0.415633    0.652920
     52          6           0        7.594051    1.119645    0.181059
     53          6           0        9.019343    1.622575    0.270047
     54          6           0        9.655178    2.229188   -1.061303
     55          6           0        8.747078    3.309711   -1.798468
     56          6           0       10.049048    1.115504   -2.014459
     57          6           0       11.434286    1.364966   -2.695815
     58          6           0       12.515078    0.303791   -2.202421
     59          6           0       13.683179    0.903195   -1.600406
     60          6           0       14.640153    1.466080   -2.731938
     61          6           0       14.424314   -0.123596   -0.637229
     62          6           0       14.286056    0.375567    0.785117
     63          6           0       12.926480   -0.133874    1.561773
     64          6           0       12.416091    0.638527    2.773309
     65          6           0       13.326520    0.512462    4.029732
     66          6           0       10.944602    0.196968    3.167163
     67          1           0       -2.718869    3.363112    0.606153
     68          1           0       -9.290329    3.456893    0.160161
     69          1           0       -9.398796   -2.836058   -0.624238
     70          1           0       -1.522661   -1.164521    1.222113
     71          1           0       -0.886604    1.274125   -0.462526
     72          1           0       -0.584559    0.862707    2.307257
     73          1           0       -1.191028    2.375045    1.850406
     74          1           0        0.327958    1.699786    1.039552
     75          1           0       -0.335917   -0.618471   -1.513473
     76          1           0       -1.103585   -2.183181   -1.296175
     77          1           0        0.727973   -3.018958   -0.136448
     78          1           0        0.753949   -1.591909    0.850859
     79          1           0       -4.481048    6.299654    1.533861
     80          1           0       -4.569924    6.400709   -0.250018
     81          1           0       -3.359286    5.356057    0.506583
     82          1           0       -6.513331    7.172889    1.876124
     83          1           0       -7.942336    7.755917    1.097473
     84          1           0       -6.563432    7.571274    0.068330
     85          1           0      -10.545282    1.624351   -1.472771
     86          1           0      -11.096410   -0.846083   -0.182127
     87          1           0      -11.747582    1.177476    1.277106
     88          1           0      -12.455699    1.929922   -0.147789
     89          1           0      -11.202852    2.777076    0.781909
     90          1           0      -11.563775   -0.540904   -2.614991
     91          1           0      -10.403456   -1.738859   -2.345015
     92          1           0       -8.617732   -0.531114   -3.244022
     93          1           0       -9.359189    1.062472   -3.056132
     94          1           0       -9.934820   -0.122964   -4.311569
     95          1           0       -8.297962   -4.907571   -1.353185
     96          1           0       -8.076308   -5.660650    0.341990
     97          1           0       -6.959517   -5.935649   -1.027412
     98          1           0       -2.257627   -3.903465   -0.485422
     99          1           0       -0.446616   -3.430681    3.274726
    100          1           0        0.152651   -5.076569    2.856546
    101          1           0       -1.340966   -4.794136    3.651973
    102          1           0        4.409748   -1.710952   -2.093552
    103          1           0        4.788812   -3.090214   -1.027638
    104          1           0        5.123706   -0.432644    0.355877
    105          1           0        7.078906   -3.417240   -0.685719
    106          1           0        8.540345   -2.687639   -0.204218
    107          1           0        8.022893   -2.310938   -1.825071
    108          1           0        8.642222   -0.785526    0.656775
    109          1           0        7.170028   -0.471761    1.645888
    110          1           0        6.957825    1.666223    0.875989
    111          1           0        7.168906    1.105108   -0.822924
    112          1           0        9.767147    0.899927    0.597263
    113          1           0        9.153790    2.411063    1.010121
    114          1           0       10.620767    2.645191   -0.771701
    115          1           0        9.056480    3.303236   -2.843792
    116          1           0        8.856026    4.317602   -1.398003
    117          1           0        7.676599    3.206856   -1.619027
    118          1           0        9.214124    1.042738   -2.710436
    119          1           0       10.041793    0.112900   -1.586823
    120          1           0       11.714332    2.397201   -2.487988
    121          1           0       11.376947    1.300784   -3.782562
    122          1           0       12.804416   -0.435830   -2.948164
    123          1           0       12.017219   -0.424830   -1.562701
    124          1           0       13.278364    1.710323   -0.989124
    125          1           0       14.186351    1.307042   -3.710216
    126          1           0       15.591696    0.950149   -2.859782
    127          1           0       14.677611    2.553078   -2.648517
    128          1           0       15.496085   -0.228556   -0.806082
    129          1           0       13.919083   -1.081661   -0.760656
    130          1           0       14.240626    1.463404    0.746379
    131          1           0       15.226205    0.211399    1.312169
    132          1           0       13.125005   -1.189248    1.747889
    133          1           0       12.249918   -0.121197    0.706844
    134          1           0       12.447284    1.687269    2.477833
    135          1           0       12.797552    0.067442    4.872659
    136          1           0       13.612656    1.535302    4.273498
    137          1           0       14.228550   -0.013620    3.717107
    138          1           0       11.169723   -0.468616    4.000383
    139          1           0       10.421688   -0.385106    2.407898
    140          1           0       10.324591    1.082685    3.310099
 ---------------------------------------------------------------------

 SCF Done:  E(RZINDO/S) =  -474.069751004     A.U. after   20 cycles

 Excitation energies and oscillator strengths:

 Excited State   1:      Singlet-A      1.2059 eV 1028.15 nm  f=0.6055  <S**2>=0.000
     175 ->178         0.19704
     176 ->177         0.66014
 This state for optimization and/or second-order correction.
 Total Energy, E(CIS/TDA) =  -474.025435022
 Copying the excited state density for this state as the 1-particle RhoCI density.

 Excited State   2:      Singlet-A      1.8704 eV  662.89 nm  f=0.0848  <S**2>=0.000
     175 ->177         0.57083
     176 ->178        -0.38574

 Excited State   3:      Singlet-A      2.7173 eV  456.28 nm  f=0.0060  <S**2>=0.000
     168 ->179         0.10388
     169 ->177         0.21315
     169 ->179        -0.25452
     169 ->180        -0.20751
     169 ->187         0.10670
     170 ->177        -0.25661
     170 ->179         0.28732
     170 ->180         0.24195
     170 ->187        -0.12305

 Excited State   4:      Singlet-A      2.9161 eV  425.17 nm  f=0.1941  <S**2>=0.000
     169 ->177        -0.21522
     169 ->179        -0.18730
     169 ->180         0.12355
     169 ->183        -0.10463
     169 ->186        -0.14195
     170 ->177        -0.18456
     170 ->179        -0.15672
     170 ->180         0.11823
     170 ->186        -0.11871
     173 ->177        -0.23351
     175 ->177         0.16116
     176 ->178         0.29234
     176 ->179         0.16656

 Excited State   5:      Singlet-A      2.9490 eV  420.43 nm  f=0.4560  <S**2>=0.000
     169 ->177         0.18453
     169 ->179         0.13002
     169 ->180        -0.11290
     170 ->177         0.13872
     170 ->179         0.13408
     175 ->177         0.23832
     176 ->178         0.41009
     176 ->179         0.28025

 The electronic state is 1-A.
 Alpha  occ. eigenvalues --   -1.82826  -1.80463  -1.78147  -1.71707  -1.71142
 Alpha  occ. eigenvalues --   -1.69677  -1.66764  -1.60173  -1.59454  -1.58995
 Alpha  occ. eigenvalues --   -1.54642  -1.51379  -1.48959  -1.48689  -1.46086
 Alpha  occ. eigenvalues --   -1.43743  -1.42610  -1.39456  -1.38449  -1.38025
 Alpha  occ. eigenvalues --   -1.36092  -1.34697  -1.32549  -1.31226  -1.28421
 Alpha  occ. eigenvalues --   -1.24978  -1.24681  -1.21313  -1.20244  -1.18430
 Alpha  occ. eigenvalues --   -1.17811  -1.16386  -1.15143  -1.13737  -1.12971
 Alpha  occ. eigenvalues --   -1.11812  -1.11222  -1.10787  -1.04865  -1.03773
 Alpha  occ. eigenvalues --   -1.03482  -1.01478  -1.00533  -0.98347  -0.97871
 Alpha  occ. eigenvalues --   -0.96438  -0.95268  -0.93312  -0.93172  -0.92588
 Alpha  occ. eigenvalues --   -0.90194  -0.89696  -0.88448  -0.88229  -0.85970
 Alpha  occ. eigenvalues --   -0.84855  -0.83660  -0.82185  -0.81957  -0.80258
 Alpha  occ. eigenvalues --   -0.80076  -0.79531  -0.77897  -0.76849  -0.76374
 Alpha  occ. eigenvalues --   -0.76053  -0.75784  -0.75262  -0.75136  -0.74541
 Alpha  occ. eigenvalues --   -0.72971  -0.72923  -0.72127  -0.71728  -0.70645
 Alpha  occ. eigenvalues --   -0.69458  -0.68679  -0.68618  -0.68249  -0.67613
 Alpha  occ. eigenvalues --   -0.67376  -0.66759  -0.66662  -0.66321  -0.66110
 Alpha  occ. eigenvalues --   -0.65512  -0.64769  -0.64713  -0.64215  -0.63563
 Alpha  occ. eigenvalues --   -0.62891  -0.62780  -0.62565  -0.62284  -0.61656
 Alpha  occ. eigenvalues --   -0.61557  -0.60894  -0.60392  -0.60096  -0.59993
 Alpha  occ. eigenvalues --   -0.59704  -0.59333  -0.58908  -0.58221  -0.57949
 Alpha  occ. eigenvalues --   -0.57733  -0.57360  -0.57304  -0.56949  -0.56623
 Alpha  occ. eigenvalues --   -0.56360  -0.55217  -0.55015  -0.54833  -0.54600
 Alpha  occ. eigenvalues --   -0.54140  -0.53294  -0.52995  -0.52861  -0.52478
 Alpha  occ. eigenvalues --   -0.52394  -0.51946  -0.51823  -0.51579  -0.51369
 Alpha  occ. eigenvalues --   -0.51079  -0.50602  -0.50500  -0.50450  -0.50262
 Alpha  occ. eigenvalues --   -0.49776  -0.49741  -0.49405  -0.49384  -0.48866
 Alpha  occ. eigenvalues --   -0.48739  -0.48536  -0.48486  -0.48337  -0.47851
 Alpha  occ. eigenvalues --   -0.47714  -0.47094  -0.46927  -0.46763  -0.46559
 Alpha  occ. eigenvalues --   -0.46353  -0.46198  -0.45863  -0.45670  -0.45563
 Alpha  occ. eigenvalues --   -0.45129  -0.44500  -0.44485  -0.44141  -0.44042
 Alpha  occ. eigenvalues --   -0.43961  -0.43534  -0.42790  -0.42329  -0.42282
 Alpha  occ. eigenvalues --   -0.41796  -0.41530  -0.41476  -0.39296  -0.39106
 Alpha  occ. eigenvalues --   -0.38415  -0.37097  -0.34901  -0.34436  -0.34375
 Alpha  occ. eigenvalues --   -0.32981  -0.32343  -0.32319  -0.32216  -0.26480
 Alpha  occ. eigenvalues --   -0.21963
 Alpha virt. eigenvalues --   -0.08994  -0.02240  -0.00843   0.00941   0.01878
 Alpha virt. eigenvalues --    0.02032   0.02575   0.02789   0.04708   0.04869
 Alpha virt. eigenvalues --    0.06366   0.07131   0.07398   0.08130   0.08200

 Mulliken charges:
               1
     1  Mg   0.430522
     2  C   -0.054656
     3  C   -0.078958
     4  C   -0.055563
     5  C   -0.045111
     6  N   -0.294462
     7  C    0.127048
     8  C    0.000490
     9  C   -0.008400
    10  C    0.138706
    11  C   -0.059760
    12  C   -0.025163
    13  C    0.012376
    14  C    0.460707
    15  O   -0.524590
    16  O   -0.280364
    17  N   -0.315265
    18  C    0.101383
    19  C    0.007376
    20  C   -0.040697
    21  C    0.139818
    22  C   -0.046300
    23  C    0.325886
    24  O   -0.552723
    25  C   -0.029981
    26  N   -0.264119
    27  C    0.143501
    28  C   -0.006309
    29  C    0.000402
    30  C    0.114928
    31  C   -0.047870
    32  C   -0.021541
    33  C   -0.049667
    34  N   -0.335905
    35  C    0.083547
    36  C    0.047129
    37  C   -0.069360
    38  C    0.138479
    39  C   -0.035329
    40  C    0.334568
    41  O   -0.524053
    42  C    0.063920
    43  C    0.488916
    44  O   -0.511372
    45  O   -0.267347
    46  C    0.070734
    47  C    0.110876
    48  C   -0.094100
    49  C   -0.000011
    50  C   -0.044598
    51  C   -0.033873
    52  C   -0.024868
    53  C   -0.036949
    54  C   -0.017846
    55  C   -0.062062
    56  C   -0.035614
    57  C   -0.040896
    58  C   -0.028081
    59  C   -0.006062
    60  C   -0.064542
    61  C   -0.036857
    62  C   -0.049573
    63  C   -0.037814
    64  C   -0.010460
    65  C   -0.060683
    66  C   -0.068690
    67  H    0.026953
    68  H    0.047136
    69  H    0.032068
    70  H    0.042116
    71  H    0.045842
    72  H    0.013883
    73  H    0.025722
    74  H    0.025777
    75  H    0.036857
    76  H    0.025774
    77  H    0.046356
    78  H    0.038880
    79  H    0.036971
    80  H    0.031393
    81  H    0.018848
    82  H    0.041054
    83  H    0.029814
    84  H    0.035661
    85  H    0.027344
    86  H    0.025520
    87  H    0.021016
    88  H    0.019186
    89  H    0.032570
    90  H    0.015434
    91  H    0.009432
    92  H    0.020279
    93  H    0.031046
    94  H    0.020427
    95  H    0.027339
    96  H    0.049922
    97  H    0.031241
    98  H    0.048415
    99  H    0.033337
   100  H    0.034675
   101  H    0.046683
   102  H    0.060468
   103  H    0.037280
   104  H    0.030327
   105  H    0.024344
   106  H    0.016183
   107  H    0.040607
   108  H    0.022453
   109  H    0.026005
   110  H    0.025818
   111  H    0.034035
   112  H    0.020959
   113  H    0.007571
   114  H    0.018607
   115  H    0.025257
   116  H    0.011349
   117  H    0.027268
   118  H    0.010424
   119  H    0.016583
   120  H    0.024398
   121  H    0.015637
   122  H    0.012587
   123  H    0.007559
   124  H    0.025255
   125  H    0.009946
   126  H    0.028689
   127  H    0.021338
   128  H    0.021159
   129  H    0.021647
   130  H    0.011159
   131  H    0.013465
   132  H    0.017286
   133  H    0.016090
   134  H    0.019374
   135  H    0.029536
   136  H    0.014891
   137  H    0.023426
   138  H    0.030319
   139  H    0.016106
   140  H    0.026754
 Sum of Mulliken charges =  -0.00000

 Dipole moment (field-independent basis, Debye):
    X=              5.0421    Y=              2.7647    Z=             -1.9609  Tot=              6.0755
 N-N= 4.274466675550D+03 E-N= 0.000000000000D+00  KE=-9.223118599568D+03
 Leave Link  601 at Sat Apr 30 13:02:24 2022, MaxMem=  6710886400 cpu:               0.8 elap:               0.0
 (Enter /sw/apps/gaussian-16.0/g16/l9999.exe)
 1\1\GINC-BP1-COMPUTE103\SP\RZINDO CIS\STO-3G\C55H74Mg1N4O6\OF15641\30-
 Apr-2022\0\\#p ZINDO=(nstates=5)\\step_751_chromophore_13 ZINDO\\0,1\M
 g,0,46.867,24.884,27.952\C,0,47.363,27.124,30.683\C,0,45.899,22.496,30
 .319\C,0,46.889,22.643,25.449\C,0,48.236,27.369,25.843\N,0,46.752,24.7
 96,30.272\C,0,46.764,25.912,31.105\C,0,46.483,25.528,32.543\C,0,45.927
 ,24.077,32.392\C,0,46.212,23.721,30.901\C,0,46.471,23.016,33.414\C,0,4
 5.584,26.539,33.379\C,0,45.993,26.771,34.828\C,0,44.833,26.656,35.901\

 Normal termination of Gaussian 16 at Sat Apr 30 13:02:25 2022.
