 Gaussian 16, Revision A.03,
 Gaussian 16:  ES64L-G16RevA.03 25-Dec-2016

 ------------------------------
 #p blyp/Def2SVP td=(nstates=5)
 ------------------------------

 -------------------------------------------------
 step_251_chromophore_2 TDDFT with blyp functional
 -------------------------------------------------
 Symbolic Z-matrix:
 Charge =  0 Multiplicity = 1

                         Standard orientation:
 ---------------------------------------------------------------------
 Center     Atomic      Atomic             Coordinates (Angstroms)
 Number     Number       Type             X           Y           Z
 ---------------------------------------------------------------------
      1         12           0       -4.677588    0.814907    0.684496
      2          6           0       -5.347068   -2.450133   -0.009267
      3          6           0       -2.126258   -0.293417    2.756109
      4          6           0       -3.780086    4.027801    1.064491
      5          6           0       -6.815524    1.824254   -1.922459
      6          7           0       -3.673861   -1.164377    1.093078
      7          6           0       -4.196599   -2.344137    0.702838
      8          6           0       -3.359459   -3.500815    1.111091
      9          6           0       -2.522949   -2.786337    2.344895
     10          6           0       -2.773569   -1.288117    2.072768
     11          6           0       -2.972557   -3.286438    3.749440
     12          6           0       -2.456890   -3.913274   -0.040867
     13          6           0       -1.494019   -2.825010   -0.707422
     14          6           0       -0.076167   -3.199775   -1.120513
     15          8           0        0.490116   -4.224658   -0.728585
     16          8           0        0.395474   -2.291238   -1.980376
     17          7           0       -3.175977    1.743992    1.749136
     18          6           0       -2.292345    1.122697    2.667540
     19          6           0       -1.625425    2.164561    3.374567
     20          6           0       -2.019264    3.409499    2.899839
     21          6           0       -3.058721    3.142994    1.891334
     22          6           0       -0.635964    1.772418    4.452982
     23          6           0       -1.453609    4.758746    3.273730
     24          8           0       -0.528174    4.743584    4.123175
     25          6           0       -1.721883    5.992854    2.614911
     26          7           0       -5.079818    2.634803   -0.459812
     27          6           0       -4.624593    3.848648   -0.035955
     28          6           0       -5.149736    4.991029   -0.938114
     29          6           0       -6.132174    4.239942   -1.898672
     30          6           0       -5.953320    2.796442   -1.459675
     31          6           0       -5.783987    6.128018   -0.165756
     32          6           0       -5.754434    4.509399   -3.451812
     33          6           0       -6.967809    4.747864   -4.357812
     34          7           0       -5.912320   -0.083122   -0.757202
     35          6           0       -6.857257    0.417012   -1.594818
     36          6           0       -7.655138   -0.694531   -2.036101
     37          6           0       -7.159093   -1.897184   -1.423679
     38          6           0       -6.079060   -1.455531   -0.677408
     39          6           0       -8.641736   -0.656022   -3.152528
     40          6           0       -7.220405   -3.319338   -1.315227
     41          8           0       -8.070746   -4.027938   -1.868549
     42          6           0       -6.090318   -3.713027   -0.382070
     43          6           0       -6.667177   -4.427165    0.782848
     44          8           0       -7.337432   -5.423417    0.595202
     45          8           0       -6.302918   -3.924020    1.994350
     46          6           0       -6.847646   -4.635026    3.152649
     47          6           0        1.730454   -2.645816   -2.489938
     48          6           0        2.600761   -1.399692   -2.728739
     49          6           0        3.920978   -1.230186   -2.752550
     50          6           0        5.002812   -2.356889   -2.606266
     51          6           0        4.476785    0.181121   -3.028783
     52          6           0        5.071609    1.021705   -1.857311
     53          6           0        6.493692    1.543603   -2.278518
     54          6           0        7.296850    2.149812   -1.078513
     55          6           0        7.927362    3.494327   -1.422708
     56          6           0        8.263682    1.036400   -0.473003
     57          6           0        9.263644    1.583678    0.557165
     58          6           0        9.577822    0.446856    1.627173
     59          6           0       10.384141   -0.764490    1.175080
     60          6           0       10.124270   -1.972884    2.058534
     61          6           0       11.899096   -0.337137    1.238080
     62          6           0       12.663221   -0.478711   -0.106491
     63          6           0       13.988960   -1.229737    0.086395
     64          6           0       15.112850   -0.653198   -0.764040
     65          6           0       16.269846   -1.744340   -1.047377
     66          6           0       15.634246    0.582779   -0.061217
     67          1           0       -1.523842   -0.632263    3.601389
     68          1           0       -3.645798    5.067443    1.369818
     69          1           0       -7.624904    2.068744   -2.613996
     70          1           0       -3.862559   -4.414595    1.427476
     71          1           0       -1.481975   -3.112157    2.348032
     72          1           0       -2.124427   -3.717777    4.279901
     73          1           0       -3.698868   -4.082262    3.582283
     74          1           0       -3.450295   -2.528661    4.371798
     75          1           0       -3.089843   -4.405791   -0.779327
     76          1           0       -1.944184   -4.781586    0.372806
     77          1           0       -1.306278   -1.931416   -0.112007
     78          1           0       -2.020627   -2.609629   -1.636694
     79          1           0        0.304313    1.594726    3.930719
     80          1           0       -0.957273    0.833089    4.901270
     81          1           0       -0.485801    2.492133    5.258254
     82          1           0       -0.872742    6.674759    2.670243
     83          1           0       -2.668834    6.447884    2.908159
     84          1           0       -1.743471    5.739151    1.555935
     85          1           0       -4.254529    5.312948   -1.471307
     86          1           0       -7.158735    4.500868   -1.642118
     87          1           0       -5.689971    6.036407    0.915982
     88          1           0       -6.795296    6.467932   -0.387310
     89          1           0       -5.088343    6.948221   -0.345485
     90          1           0       -5.190112    3.700315   -3.915636
     91          1           0       -5.062851    5.343954   -3.565901
     92          1           0       -6.989729    5.805410   -4.619498
     93          1           0       -7.869589    4.571170   -3.771190
     94          1           0       -6.945031    4.147088   -5.267147
     95          1           0       -9.566538   -0.104103   -2.988892
     96          1           0       -8.858601   -1.701433   -3.375261
     97          1           0       -8.229792   -0.191061   -4.048257
     98          1           0       -5.457753   -4.398756   -0.946509
     99          1           0       -6.530859   -5.675997    3.082288
    100          1           0       -7.927973   -4.532452    3.256236
    101          1           0       -6.535412   -4.154509    4.079741
    102          1           0        1.583965   -3.208359   -3.411646
    103          1           0        2.238092   -3.290133   -1.771575
    104          1           0        1.956030   -0.536102   -2.890680
    105          1           0        5.539466   -2.042530   -1.711302
    106          1           0        5.659545   -2.220576   -3.465295
    107          1           0        4.634747   -3.380936   -2.532312
    108          1           0        3.672806    0.767898   -3.472307
    109          1           0        5.094224    0.118806   -3.924771
    110          1           0        5.239193    0.318423   -1.041625
    111          1           0        4.448766    1.885487   -1.623587
    112          1           0        6.437517    2.196778   -3.149694
    113          1           0        7.104733    0.708353   -2.617672
    114          1           0        6.576746    2.352765   -0.285747
    115          1           0        7.860768    3.604262   -2.505583
    116          1           0        8.984369    3.621124   -1.188153
    117          1           0        7.513301    4.281556   -0.792612
    118          1           0        8.840173    0.710615   -1.339512
    119          1           0        7.671065    0.190778   -0.123952
    120          1           0        8.990603    2.504585    1.073308
    121          1           0       10.210606    1.712214    0.032620
    122          1           0        8.563207    0.167411    1.909472
    123          1           0        9.988368    0.939481    2.508293
    124          1           0       10.127003   -1.012078    0.144921
    125          1           0        9.060546   -2.180832    2.173136
    126          1           0       10.543129   -1.745323    3.038300
    127          1           0       10.624985   -2.804053    1.562239
    128          1           0       12.365597   -0.911825    2.038080
    129          1           0       11.948549    0.720485    1.499522
    130          1           0       12.769230    0.534425   -0.494580
    131          1           0       12.086931   -1.103026   -0.789683
    132          1           0       13.970873   -2.303683   -0.097583
    133          1           0       14.154413   -1.133383    1.160279
    134          1           0       14.577581   -0.409759   -1.682189
    135          1           0       17.199985   -1.404947   -0.591559
    136          1           0       16.419492   -1.745313   -2.127145
    137          1           0       15.981029   -2.757802   -0.768334
    138          1           0       16.677954    0.782747    0.180420
    139          1           0       15.205630    0.662464    0.937873
    140          1           0       15.336588    1.499141   -0.570355
 ---------------------------------------------------------------------

 SCF Done:  E(RB-LYP) =  -3007.37907481     A.U. after   20 cycles

 Excitation energies and oscillator strengths:

 Excited State   1:      Singlet-A      1.6860 eV  735.37 nm  f=0.0019  <S**2>=0.000
     244 -> 247        0.70263
 This state for optimization and/or second-order correction.
 Total Energy, E(TD-HF/TD-DFT) =  -3007.31711499
 Copying the excited state density for this state as the 1-particle RhoCI density.

 Excited State   2:      Singlet-A      1.7700 eV  700.47 nm  f=0.0094  <S**2>=0.000
     243 -> 247        0.59853
     245 -> 247        0.36534

 Excited State   3:      Singlet-A      1.8411 eV  673.44 nm  f=0.3046  <S**2>=0.000
     245 -> 248        0.17415
     246 -> 247        0.68533
     246 <- 247       -0.15008

 Excited State   4:      Singlet-A      2.0024 eV  619.18 nm  f=0.0690  <S**2>=0.000
     243 -> 247       -0.36514
     245 -> 247        0.54912
     246 -> 248       -0.17962

 Excited State   5:      Singlet-A      2.3791 eV  521.15 nm  f=0.0023  <S**2>=0.000
     241 -> 247       -0.15881
     242 -> 247        0.67501

 The electronic state is 1-A.
 Alpha  occ. eigenvalues --  -46.27452 -18.83380 -18.83127 -18.76424 -18.76356
 Alpha  occ. eigenvalues --  -18.75293 -18.74699 -14.03188 -14.03080 -14.01097
 Alpha  occ. eigenvalues --  -14.00336 -10.04098 -10.04047  -9.99462  -9.99323
 Alpha  occ. eigenvalues --   -9.98663  -9.97961  -9.96905  -9.96530  -9.96341
 Alpha  occ. eigenvalues --   -9.96308  -9.95903  -9.95672  -9.95254  -9.94424
 Alpha  occ. eigenvalues --   -9.94416  -9.94299  -9.94117  -9.94116  -9.93893
 Alpha  occ. eigenvalues --   -9.93673  -9.93640  -9.93391  -9.93350  -9.93272
 Alpha  occ. eigenvalues --   -9.93226  -9.93049  -9.93039  -9.92938  -9.92839
 Alpha  occ. eigenvalues --   -9.92796  -9.92763  -9.92748  -9.92431  -9.92360
 Alpha  occ. eigenvalues --   -9.92344  -9.92046  -9.92020  -9.91973  -9.91795
 Alpha  occ. eigenvalues --   -9.91752  -9.91526  -9.91504  -9.91489  -9.91319
 Alpha  occ. eigenvalues --   -9.91300  -9.91277  -9.90957  -9.90941  -9.90765
 Alpha  occ. eigenvalues --   -9.90710  -9.90707  -9.90647  -9.90581  -9.90443
 Alpha  occ. eigenvalues --   -9.90341  -2.92010  -1.72408  -1.71927  -1.71702
 Alpha  occ. eigenvalues --   -0.99000  -0.98839  -0.90913  -0.89926  -0.89824
 Alpha  occ. eigenvalues --   -0.89659  -0.87149  -0.86790  -0.85323  -0.83726
 Alpha  occ. eigenvalues --   -0.76930  -0.73227  -0.72900  -0.72503  -0.72383
 Alpha  occ. eigenvalues --   -0.72198  -0.71789  -0.71177  -0.70826  -0.69574
 Alpha  occ. eigenvalues --   -0.69322  -0.69012  -0.68493  -0.68000  -0.67358
 Alpha  occ. eigenvalues --   -0.66970  -0.66415  -0.65822  -0.65338  -0.64926
 Alpha  occ. eigenvalues --   -0.64222  -0.63004  -0.62584  -0.62160  -0.61574
 Alpha  occ. eigenvalues --   -0.60528  -0.60063  -0.59755  -0.59410  -0.58625
 Alpha  occ. eigenvalues --   -0.58072  -0.57381  -0.57117  -0.55994  -0.54608
 Alpha  occ. eigenvalues --   -0.54302  -0.53721  -0.52650  -0.52411  -0.52292
 Alpha  occ. eigenvalues --   -0.51494  -0.51346  -0.51053  -0.50752  -0.50057
 Alpha  occ. eigenvalues --   -0.49864  -0.49510  -0.49259  -0.47869  -0.46631
 Alpha  occ. eigenvalues --   -0.46561  -0.45858  -0.45682  -0.45196  -0.45079
 Alpha  occ. eigenvalues --   -0.44522  -0.44066  -0.43408  -0.43274  -0.42748
 Alpha  occ. eigenvalues --   -0.42500  -0.42123  -0.41511  -0.41432  -0.41332
 Alpha  occ. eigenvalues --   -0.41256  -0.40976  -0.40776  -0.40620  -0.40421
 Alpha  occ. eigenvalues --   -0.40213  -0.39695  -0.39522  -0.39371  -0.39301
 Alpha  occ. eigenvalues --   -0.39160  -0.38843  -0.38739  -0.38579  -0.38402
 Alpha  occ. eigenvalues --   -0.38271  -0.37813  -0.37719  -0.37518  -0.37280
 Alpha  occ. eigenvalues --   -0.37227  -0.37083  -0.36814  -0.36550  -0.36350
 Alpha  occ. eigenvalues --   -0.36302  -0.36138  -0.35858  -0.35700  -0.35508
 Alpha  occ. eigenvalues --   -0.35463  -0.35166  -0.34904  -0.34771  -0.34506
 Alpha  occ. eigenvalues --   -0.34372  -0.34228  -0.34112  -0.34011  -0.33805
 Alpha  occ. eigenvalues --   -0.33697  -0.33615  -0.33454  -0.33264  -0.33046
 Alpha  occ. eigenvalues --   -0.32970  -0.32924  -0.32824  -0.32805  -0.32525
 Alpha  occ. eigenvalues --   -0.32129  -0.31855  -0.31688  -0.31666  -0.31342
 Alpha  occ. eigenvalues --   -0.31101  -0.30916  -0.30840  -0.30630  -0.30586
 Alpha  occ. eigenvalues --   -0.30290  -0.30250  -0.30107  -0.29763  -0.29659
 Alpha  occ. eigenvalues --   -0.29598  -0.29514  -0.29331  -0.28976  -0.28720
 Alpha  occ. eigenvalues --   -0.28554  -0.28350  -0.28131  -0.27952  -0.27730
 Alpha  occ. eigenvalues --   -0.27455  -0.27369  -0.27031  -0.26754  -0.26552
 Alpha  occ. eigenvalues --   -0.26217  -0.26136  -0.25951  -0.25796  -0.25487
 Alpha  occ. eigenvalues --   -0.25314  -0.25194  -0.24412  -0.24131  -0.23723
 Alpha  occ. eigenvalues --   -0.23114  -0.22720  -0.21575  -0.21405  -0.20863
 Alpha  occ. eigenvalues --   -0.20512  -0.19997  -0.18445  -0.18022  -0.17398
 Alpha  occ. eigenvalues --   -0.16234
 Alpha virt. eigenvalues --   -0.11899  -0.07114  -0.06230  -0.04872  -0.03575
 Alpha virt. eigenvalues --   -0.02553  -0.01969  -0.01403  -0.01227   0.00241
 Alpha virt. eigenvalues --    0.01283   0.01640   0.02260   0.02370   0.03008

 Mulliken charges:
               1
     1  Mg   0.667641
     2  C    0.038313
     3  C   -0.047826
     4  C   -0.043135
     5  C   -0.066544
     6  N   -0.175635
     7  C   -0.063787
     8  C    0.019543
     9  C   -0.030249
    10  C    0.056334
    11  C    0.120597
    12  C    0.115050
    13  C    0.108847
    14  C    0.062598
    15  O   -0.205089
    16  O   -0.248574
    17  N   -0.347620
    18  C    0.119759
    19  C   -0.128001
    20  C    0.068417
    21  C    0.109923
    22  C    0.189117
    23  C   -0.104274
    24  O   -0.203868
    25  C    0.181349
    26  N   -0.181040
    27  C   -0.020607
    28  C    0.048122
    29  C    0.026855
    30  C    0.058480
    31  C    0.131115
    32  C    0.083935
    33  C    0.061379
    34  N   -0.266697
    35  C    0.073897
    36  C   -0.167241
    37  C    0.130053
    38  C    0.041776
    39  C    0.148320
    40  C   -0.098730
    41  O   -0.125887
    42  C    0.075866
    43  C    0.093108
    44  O   -0.159805
    45  O   -0.259436
    46  C    0.224767
    47  C    0.293129
    48  C   -0.107519
    49  C   -0.141179
    50  C    0.147340
    51  C    0.117402
    52  C    0.100343
    53  C    0.053118
    54  C   -0.073976
    55  C    0.119903
    56  C    0.060446
    57  C    0.102912
    58  C    0.060728
    59  C   -0.059397
    60  C    0.124009
    61  C    0.084236
    62  C    0.072665
    63  C    0.072950
    64  C   -0.077712
    65  C    0.106536
    66  C    0.101067
    67  H   -0.064464
    68  H   -0.095133
    69  H   -0.068431
    70  H   -0.039147
    71  H   -0.021320
    72  H   -0.006942
    73  H   -0.015922
    74  H   -0.007687
    75  H   -0.031640
    76  H   -0.016173
    77  H    0.030695
    78  H    0.012674
    79  H   -0.000303
    80  H   -0.015100
    81  H    0.007564
    82  H   -0.004579
    83  H    0.026482
    84  H   -0.003016
    85  H   -0.011786
    86  H   -0.017998
    87  H   -0.009635
    88  H    0.002060
    89  H   -0.020042
    90  H   -0.018816
    91  H   -0.023634
    92  H   -0.010929
    93  H   -0.008057
    94  H    0.000859
    95  H   -0.009121
    96  H    0.007117
    97  H   -0.008430
    98  H    0.019812
    99  H    0.022577
   100  H    0.016231
   101  H    0.010332
   102  H    0.006145
   103  H    0.012017
   104  H   -0.032565
   105  H   -0.001672
   106  H   -0.003157
   107  H    0.001738
   108  H   -0.048036
   109  H   -0.029192
   110  H   -0.016392
   111  H   -0.007977
   112  H   -0.030439
   113  H   -0.039800
   114  H   -0.039018
   115  H   -0.016847
   116  H   -0.027360
   117  H   -0.013481
   118  H   -0.028791
   119  H   -0.022733
   120  H   -0.020845
   121  H   -0.037412
   122  H   -0.050850
   123  H   -0.042487
   124  H   -0.038193
   125  H   -0.018137
   126  H   -0.013582
   127  H   -0.015283
   128  H   -0.030815
   129  H   -0.027887
   130  H   -0.020370
   131  H   -0.026970
   132  H   -0.041679
   133  H   -0.036449
   134  H   -0.027150
   135  H   -0.010735
   136  H   -0.017840
   137  H   -0.012529
   138  H   -0.020960
   139  H   -0.026389
   140  H   -0.022093
 Sum of Mulliken charges =  -0.00000

 Dipole moment (field-independent basis, Debye):
    X=              1.3422    Y=              5.1859    Z=             -0.0265  Tot=              5.3568
 Quadrupole moment (field-independent basis, Debye-Ang):
   XX=           -420.3653   YY=           -416.8942   ZZ=           -399.3323
   XY=            -50.8543   XZ=            -28.2299   YZ=            -31.4641

 Normal termination of Gaussian 16 at Fri Apr 29 11:20:41 2022.
