 Gaussian 16, Revision A.03,
 Gaussian 16:  ES64L-G16RevA.03 25-Dec-2016

 -----------------------------------
 #p cam-b3lyp/Def2SVP td=(nstates=5)
 -----------------------------------

 ------------------------------------------------------
 step_251_chromophore_2 TDDFT with cam-b3lyp functional
 ------------------------------------------------------
 Symbolic Z-matrix:
 Charge =  0 Multiplicity = 1

                         Standard orientation:
 ---------------------------------------------------------------------
 Center     Atomic      Atomic             Coordinates (Angstroms)
 Number     Number       Type             X           Y           Z
 ---------------------------------------------------------------------
      1         12           0       -4.677588    0.814907    0.684496
      2          6           0       -5.347068   -2.450133   -0.009267
      3          6           0       -2.126258   -0.293417    2.756109
      4          6           0       -3.780086    4.027801    1.064491
      5          6           0       -6.815524    1.824254   -1.922459
      6          7           0       -3.673861   -1.164377    1.093078
      7          6           0       -4.196599   -2.344137    0.702838
      8          6           0       -3.359459   -3.500815    1.111091
      9          6           0       -2.522949   -2.786337    2.344895
     10          6           0       -2.773569   -1.288117    2.072768
     11          6           0       -2.972557   -3.286438    3.749440
     12          6           0       -2.456890   -3.913274   -0.040867
     13          6           0       -1.494019   -2.825010   -0.707422
     14          6           0       -0.076167   -3.199775   -1.120513
     15          8           0        0.490116   -4.224658   -0.728585
     16          8           0        0.395474   -2.291238   -1.980376
     17          7           0       -3.175977    1.743992    1.749136
     18          6           0       -2.292345    1.122697    2.667540
     19          6           0       -1.625425    2.164561    3.374567
     20          6           0       -2.019264    3.409499    2.899839
     21          6           0       -3.058721    3.142994    1.891334
     22          6           0       -0.635964    1.772418    4.452982
     23          6           0       -1.453609    4.758746    3.273730
     24          8           0       -0.528174    4.743584    4.123175
     25          6           0       -1.721883    5.992854    2.614911
     26          7           0       -5.079818    2.634803   -0.459812
     27          6           0       -4.624593    3.848648   -0.035955
     28          6           0       -5.149736    4.991029   -0.938114
     29          6           0       -6.132174    4.239942   -1.898672
     30          6           0       -5.953320    2.796442   -1.459675
     31          6           0       -5.783987    6.128018   -0.165756
     32          6           0       -5.754434    4.509399   -3.451812
     33          6           0       -6.967809    4.747864   -4.357812
     34          7           0       -5.912320   -0.083122   -0.757202
     35          6           0       -6.857257    0.417012   -1.594818
     36          6           0       -7.655138   -0.694531   -2.036101
     37          6           0       -7.159093   -1.897184   -1.423679
     38          6           0       -6.079060   -1.455531   -0.677408
     39          6           0       -8.641736   -0.656022   -3.152528
     40          6           0       -7.220405   -3.319338   -1.315227
     41          8           0       -8.070746   -4.027938   -1.868549
     42          6           0       -6.090318   -3.713027   -0.382070
     43          6           0       -6.667177   -4.427165    0.782848
     44          8           0       -7.337432   -5.423417    0.595202
     45          8           0       -6.302918   -3.924020    1.994350
     46          6           0       -6.847646   -4.635026    3.152649
     47          6           0        1.730454   -2.645816   -2.489938
     48          6           0        2.600761   -1.399692   -2.728739
     49          6           0        3.920978   -1.230186   -2.752550
     50          6           0        5.002812   -2.356889   -2.606266
     51          6           0        4.476785    0.181121   -3.028783
     52          6           0        5.071609    1.021705   -1.857311
     53          6           0        6.493692    1.543603   -2.278518
     54          6           0        7.296850    2.149812   -1.078513
     55          6           0        7.927362    3.494327   -1.422708
     56          6           0        8.263682    1.036400   -0.473003
     57          6           0        9.263644    1.583678    0.557165
     58          6           0        9.577822    0.446856    1.627173
     59          6           0       10.384141   -0.764490    1.175080
     60          6           0       10.124270   -1.972884    2.058534
     61          6           0       11.899096   -0.337137    1.238080
     62          6           0       12.663221   -0.478711   -0.106491
     63          6           0       13.988960   -1.229737    0.086395
     64          6           0       15.112850   -0.653198   -0.764040
     65          6           0       16.269846   -1.744340   -1.047377
     66          6           0       15.634246    0.582779   -0.061217
     67          1           0       -1.523842   -0.632263    3.601389
     68          1           0       -3.645798    5.067443    1.369818
     69          1           0       -7.624904    2.068744   -2.613996
     70          1           0       -3.862559   -4.414595    1.427476
     71          1           0       -1.481975   -3.112157    2.348032
     72          1           0       -2.124427   -3.717777    4.279901
     73          1           0       -3.698868   -4.082262    3.582283
     74          1           0       -3.450295   -2.528661    4.371798
     75          1           0       -3.089843   -4.405791   -0.779327
     76          1           0       -1.944184   -4.781586    0.372806
     77          1           0       -1.306278   -1.931416   -0.112007
     78          1           0       -2.020627   -2.609629   -1.636694
     79          1           0        0.304313    1.594726    3.930719
     80          1           0       -0.957273    0.833089    4.901270
     81          1           0       -0.485801    2.492133    5.258254
     82          1           0       -0.872742    6.674759    2.670243
     83          1           0       -2.668834    6.447884    2.908159
     84          1           0       -1.743471    5.739151    1.555935
     85          1           0       -4.254529    5.312948   -1.471307
     86          1           0       -7.158735    4.500868   -1.642118
     87          1           0       -5.689971    6.036407    0.915982
     88          1           0       -6.795296    6.467932   -0.387310
     89          1           0       -5.088343    6.948221   -0.345485
     90          1           0       -5.190112    3.700315   -3.915636
     91          1           0       -5.062851    5.343954   -3.565901
     92          1           0       -6.989729    5.805410   -4.619498
     93          1           0       -7.869589    4.571170   -3.771190
     94          1           0       -6.945031    4.147088   -5.267147
     95          1           0       -9.566538   -0.104103   -2.988892
     96          1           0       -8.858601   -1.701433   -3.375261
     97          1           0       -8.229792   -0.191061   -4.048257
     98          1           0       -5.457753   -4.398756   -0.946509
     99          1           0       -6.530859   -5.675997    3.082288
    100          1           0       -7.927973   -4.532452    3.256236
    101          1           0       -6.535412   -4.154509    4.079741
    102          1           0        1.583965   -3.208359   -3.411646
    103          1           0        2.238092   -3.290133   -1.771575
    104          1           0        1.956030   -0.536102   -2.890680
    105          1           0        5.539466   -2.042530   -1.711302
    106          1           0        5.659545   -2.220576   -3.465295
    107          1           0        4.634747   -3.380936   -2.532312
    108          1           0        3.672806    0.767898   -3.472307
    109          1           0        5.094224    0.118806   -3.924771
    110          1           0        5.239193    0.318423   -1.041625
    111          1           0        4.448766    1.885487   -1.623587
    112          1           0        6.437517    2.196778   -3.149694
    113          1           0        7.104733    0.708353   -2.617672
    114          1           0        6.576746    2.352765   -0.285747
    115          1           0        7.860768    3.604262   -2.505583
    116          1           0        8.984369    3.621124   -1.188153
    117          1           0        7.513301    4.281556   -0.792612
    118          1           0        8.840173    0.710615   -1.339512
    119          1           0        7.671065    0.190778   -0.123952
    120          1           0        8.990603    2.504585    1.073308
    121          1           0       10.210606    1.712214    0.032620
    122          1           0        8.563207    0.167411    1.909472
    123          1           0        9.988368    0.939481    2.508293
    124          1           0       10.127003   -1.012078    0.144921
    125          1           0        9.060546   -2.180832    2.173136
    126          1           0       10.543129   -1.745323    3.038300
    127          1           0       10.624985   -2.804053    1.562239
    128          1           0       12.365597   -0.911825    2.038080
    129          1           0       11.948549    0.720485    1.499522
    130          1           0       12.769230    0.534425   -0.494580
    131          1           0       12.086931   -1.103026   -0.789683
    132          1           0       13.970873   -2.303683   -0.097583
    133          1           0       14.154413   -1.133383    1.160279
    134          1           0       14.577581   -0.409759   -1.682189
    135          1           0       17.199985   -1.404947   -0.591559
    136          1           0       16.419492   -1.745313   -2.127145
    137          1           0       15.981029   -2.757802   -0.768334
    138          1           0       16.677954    0.782747    0.180420
    139          1           0       15.205630    0.662464    0.937873
    140          1           0       15.336588    1.499141   -0.570355
 ---------------------------------------------------------------------

 SCF Done:  E(RCAM-B3LYP) =  -3007.17868636     A.U. after   17 cycles

 Excitation energies and oscillator strengths:

 Excited State   1:      Singlet-A      1.7405 eV  712.33 nm  f=0.3853  <S**2>=0.000
     245 -> 248        0.17665
     246 -> 247        0.68532
     245 <- 248        0.10381
 This state for optimization and/or second-order correction.
 Total Energy, E(TD-HF/TD-DFT) =  -3007.11472284
 Copying the excited state density for this state as the 1-particle RhoCI density.

 Excited State   2:      Singlet-A      2.2172 eV  559.19 nm  f=0.1267  <S**2>=0.000
     245 -> 247        0.65067
     246 -> 248       -0.25268

 Excited State   3:      Singlet-A      3.1796 eV  389.94 nm  f=0.0012  <S**2>=0.000
     243 -> 247       -0.27356
     244 -> 247        0.63388

 Excited State   4:      Singlet-A      3.3434 eV  370.83 nm  f=0.0038  <S**2>=0.000
     240 -> 247       -0.12645
     242 -> 247        0.21304
     243 -> 247        0.55602
     244 -> 247        0.19911
     246 -> 248        0.19499

 Excited State   5:      Singlet-A      3.3934 eV  365.36 nm  f=0.0018  <S**2>=0.000
     240 -> 247        0.50696
     240 -> 248       -0.19556
     240 -> 249        0.26663
     240 -> 251       -0.26039
     243 -> 247        0.13263

 The electronic state is 1-A.
 Alpha  occ. eigenvalues --  -46.89090 -19.26320 -19.25979 -19.19409 -19.19256
 Alpha  occ. eigenvalues --  -19.18251 -19.18163 -14.42067 -14.42032 -14.39774
 Alpha  occ. eigenvalues --  -14.38588 -10.39402 -10.39262 -10.34839 -10.34419
 Alpha  occ. eigenvalues --  -10.32657 -10.32021 -10.31668 -10.31203 -10.31151
 Alpha  occ. eigenvalues --  -10.30512 -10.30366 -10.30171 -10.29188 -10.28518
 Alpha  occ. eigenvalues --  -10.28461 -10.28378 -10.28261 -10.28224 -10.28190
 Alpha  occ. eigenvalues --  -10.27915 -10.27719 -10.27563 -10.27490 -10.27385
 Alpha  occ. eigenvalues --  -10.27334 -10.27282 -10.27146 -10.27051 -10.27007
 Alpha  occ. eigenvalues --  -10.26762 -10.26551 -10.26515 -10.26483 -10.26196
 Alpha  occ. eigenvalues --  -10.26063 -10.25766 -10.25726 -10.25710 -10.25632
 Alpha  occ. eigenvalues --  -10.25527 -10.25515 -10.25203 -10.25035 -10.25029
 Alpha  occ. eigenvalues --  -10.25006 -10.24963 -10.24612 -10.24575 -10.24533
 Alpha  occ. eigenvalues --  -10.24413 -10.24351 -10.24288 -10.24245 -10.24006
 Alpha  occ. eigenvalues --  -10.23984  -3.17543  -1.92419  -1.92018  -1.91825
 Alpha  occ. eigenvalues --   -1.17390  -1.17345  -1.09003  -1.08400  -1.07944
 Alpha  occ. eigenvalues --   -1.07453  -1.04955  -1.04531  -1.02715  -1.01499
 Alpha  occ. eigenvalues --   -0.94042  -0.90085  -0.89709  -0.89322  -0.89071
 Alpha  occ. eigenvalues --   -0.88927  -0.88493  -0.87798  -0.87423  -0.86312
 Alpha  occ. eigenvalues --   -0.85855  -0.85302  -0.84807  -0.84115  -0.83621
 Alpha  occ. eigenvalues --   -0.83157  -0.82459  -0.81816  -0.81142  -0.80766
 Alpha  occ. eigenvalues --   -0.80009  -0.78597  -0.78151  -0.77944  -0.77048
 Alpha  occ. eigenvalues --   -0.75887  -0.75420  -0.75093  -0.74705  -0.73823
 Alpha  occ. eigenvalues --   -0.73127  -0.72324  -0.72084  -0.70846  -0.69140
 Alpha  occ. eigenvalues --   -0.68931  -0.68271  -0.67252  -0.66667  -0.66556
 Alpha  occ. eigenvalues --   -0.65688  -0.65522  -0.65293  -0.64658  -0.63942
 Alpha  occ. eigenvalues --   -0.63842  -0.63357  -0.63230  -0.61674  -0.60241
 Alpha  occ. eigenvalues --   -0.60214  -0.59360  -0.59292  -0.58763  -0.58372
 Alpha  occ. eigenvalues --   -0.58003  -0.57441  -0.56728  -0.56576  -0.55842
 Alpha  occ. eigenvalues --   -0.55718  -0.54990  -0.54334  -0.54295  -0.54222
 Alpha  occ. eigenvalues --   -0.54102  -0.53964  -0.53636  -0.53491  -0.53466
 Alpha  occ. eigenvalues --   -0.53039  -0.52448  -0.52066  -0.51873  -0.51823
 Alpha  occ. eigenvalues --   -0.51744  -0.51383  -0.51140  -0.51065  -0.50923
 Alpha  occ. eigenvalues --   -0.50569  -0.50293  -0.50023  -0.49681  -0.49583
 Alpha  occ. eigenvalues --   -0.49487  -0.49338  -0.49238  -0.48891  -0.48697
 Alpha  occ. eigenvalues --   -0.48655  -0.48404  -0.48325  -0.47764  -0.47686
 Alpha  occ. eigenvalues --   -0.47569  -0.47168  -0.46882  -0.46696  -0.46551
 Alpha  occ. eigenvalues --   -0.46386  -0.46254  -0.46035  -0.45774  -0.45694
 Alpha  occ. eigenvalues --   -0.45576  -0.45302  -0.45212  -0.44898  -0.44778
 Alpha  occ. eigenvalues --   -0.44708  -0.44619  -0.44607  -0.44427  -0.44136
 Alpha  occ. eigenvalues --   -0.43778  -0.43619  -0.43447  -0.43160  -0.43093
 Alpha  occ. eigenvalues --   -0.42397  -0.42328  -0.42221  -0.42202  -0.42054
 Alpha  occ. eigenvalues --   -0.41817  -0.41673  -0.41562  -0.41086  -0.41013
 Alpha  occ. eigenvalues --   -0.40880  -0.40728  -0.40547  -0.40359  -0.39786
 Alpha  occ. eigenvalues --   -0.39532  -0.39365  -0.39189  -0.38829  -0.38565
 Alpha  occ. eigenvalues --   -0.38378  -0.38337  -0.37890  -0.37706  -0.37548
 Alpha  occ. eigenvalues --   -0.37307  -0.37276  -0.36950  -0.36790  -0.36368
 Alpha  occ. eigenvalues --   -0.36177  -0.35959  -0.34833  -0.34649  -0.34112
 Alpha  occ. eigenvalues --   -0.34006  -0.33457  -0.33065  -0.31768  -0.30881
 Alpha  occ. eigenvalues --   -0.30601  -0.30413  -0.30086  -0.28972  -0.24284
 Alpha  occ. eigenvalues --   -0.21649
 Alpha virt. eigenvalues --   -0.09127  -0.01867   0.00170   0.01385   0.02031
 Alpha virt. eigenvalues --    0.05133   0.05762   0.05938   0.06611   0.06876
 Alpha virt. eigenvalues --    0.07914   0.08494   0.08519   0.08621   0.09040

 Mulliken charges:
               1
     1  Mg   0.798827
     2  C    0.009311
     3  C   -0.058278
     4  C   -0.075065
     5  C   -0.069528
     6  N   -0.242681
     7  C   -0.025013
     8  C   -0.033450
     9  C   -0.080823
    10  C    0.064398
    11  C    0.067427
    12  C    0.074682
    13  C    0.031771
    14  C    0.147735
    15  O   -0.250023
    16  O   -0.311758
    17  N   -0.433494
    18  C    0.129219
    19  C   -0.132408
    20  C   -0.006801
    21  C    0.148066
    22  C    0.133163
    23  C   -0.016385
    24  O   -0.242422
    25  C    0.084174
    26  N   -0.253701
    27  C    0.012166
    28  C   -0.005312
    29  C   -0.034203
    30  C    0.078952
    31  C    0.065347
    32  C    0.032823
    33  C   -0.000088
    34  N   -0.353934
    35  C    0.076919
    36  C   -0.161070
    37  C    0.052486
    38  C    0.081077
    39  C    0.092224
    40  C   -0.004256
    41  O   -0.166018
    42  C   -0.004904
    43  C    0.184674
    44  O   -0.197187
    45  O   -0.322876
    46  C    0.181815
    47  C    0.263697
    48  C   -0.132486
    49  C   -0.166914
    50  C    0.093233
    51  C    0.058533
    52  C    0.046349
    53  C    0.001897
    54  C   -0.127381
    55  C    0.057600
    56  C    0.017103
    57  C    0.047257
    58  C    0.006270
    59  C   -0.118155
    60  C    0.068718
    61  C    0.030439
    62  C    0.017248
    63  C    0.024348
    64  C   -0.140229
    65  C    0.050834
    66  C    0.037492
    67  H   -0.027849
    68  H   -0.058757
    69  H   -0.033218
    70  H   -0.002289
    71  H    0.014754
    72  H    0.017611
    73  H    0.006012
    74  H    0.017049
    75  H   -0.002987
    76  H    0.017143
    77  H    0.058898
    78  H    0.045587
    79  H    0.029043
    80  H    0.009574
    81  H    0.039311
    82  H    0.033569
    83  H    0.054680
    84  H    0.027021
    85  H    0.023017
    86  H    0.016279
    87  H    0.015970
    88  H    0.029027
    89  H    0.004905
    90  H    0.011704
    91  H    0.003943
    92  H    0.012482
    93  H    0.012583
    94  H    0.024921
    95  H    0.015342
    96  H    0.034442
    97  H    0.015611
    98  H    0.059790
    99  H    0.046320
   100  H    0.040298
   101  H    0.032968
   102  H    0.033768
   103  H    0.043032
   104  H    0.002557
   105  H    0.019125
   106  H    0.019894
   107  H    0.025503
   108  H   -0.014825
   109  H    0.000359
   110  H    0.008172
   111  H    0.020077
   112  H   -0.001911
   113  H   -0.012602
   114  H   -0.007411
   115  H    0.007446
   116  H   -0.001589
   117  H    0.011314
   118  H   -0.002740
   119  H    0.001458
   120  H    0.007818
   121  H   -0.011691
   122  H   -0.021325
   123  H   -0.011915
   124  H   -0.007369
   125  H    0.006590
   126  H    0.008582
   127  H    0.009043
   128  H   -0.002163
   129  H    0.000779
   130  H    0.006390
   131  H    0.001407
   132  H   -0.012656
   133  H   -0.009128
   134  H    0.004562
   135  H    0.012253
   136  H    0.005998
   137  H    0.010496
   138  H    0.005076
   139  H   -0.002803
   140  H    0.002248
 Sum of Mulliken charges =  -0.00000

 Dipole moment (field-independent basis, Debye):
    X=              1.7174    Y=              5.8444    Z=              0.5344  Tot=              6.1149
 Quadrupole moment (field-independent basis, Debye-Ang):
   XX=           -424.5806   YY=           -413.2552   ZZ=           -397.2826
   XY=            -53.8114   XZ=            -30.2493   YZ=            -32.0243

 Normal termination of Gaussian 16 at Fri Apr 29 10:21:29 2022.
