 Gaussian 16, Revision A.03,
 Gaussian 16:  ES64L-G16RevA.03 25-Dec-2016

 ---------------------------------
 #p PBE1PBE/Def2SVP td=(nstates=5)
 ---------------------------------

 ----------------------------------------------------
 step_251_chromophore_2 TDDFT with PBE1PBE functional
 ----------------------------------------------------
 Symbolic Z-matrix:
 Charge =  0 Multiplicity = 1

                         Standard orientation:
 ---------------------------------------------------------------------
 Center     Atomic      Atomic             Coordinates (Angstroms)
 Number     Number       Type             X           Y           Z
 ---------------------------------------------------------------------
      1         12           0       -4.677588    0.814907    0.684496
      2          6           0       -5.347068   -2.450133   -0.009267
      3          6           0       -2.126258   -0.293417    2.756109
      4          6           0       -3.780086    4.027801    1.064491
      5          6           0       -6.815524    1.824254   -1.922459
      6          7           0       -3.673861   -1.164377    1.093078
      7          6           0       -4.196599   -2.344137    0.702838
      8          6           0       -3.359459   -3.500815    1.111091
      9          6           0       -2.522949   -2.786337    2.344895
     10          6           0       -2.773569   -1.288117    2.072768
     11          6           0       -2.972557   -3.286438    3.749440
     12          6           0       -2.456890   -3.913274   -0.040867
     13          6           0       -1.494019   -2.825010   -0.707422
     14          6           0       -0.076167   -3.199775   -1.120513
     15          8           0        0.490116   -4.224658   -0.728585
     16          8           0        0.395474   -2.291238   -1.980376
     17          7           0       -3.175977    1.743992    1.749136
     18          6           0       -2.292345    1.122697    2.667540
     19          6           0       -1.625425    2.164561    3.374567
     20          6           0       -2.019264    3.409499    2.899839
     21          6           0       -3.058721    3.142994    1.891334
     22          6           0       -0.635964    1.772418    4.452982
     23          6           0       -1.453609    4.758746    3.273730
     24          8           0       -0.528174    4.743584    4.123175
     25          6           0       -1.721883    5.992854    2.614911
     26          7           0       -5.079818    2.634803   -0.459812
     27          6           0       -4.624593    3.848648   -0.035955
     28          6           0       -5.149736    4.991029   -0.938114
     29          6           0       -6.132174    4.239942   -1.898672
     30          6           0       -5.953320    2.796442   -1.459675
     31          6           0       -5.783987    6.128018   -0.165756
     32          6           0       -5.754434    4.509399   -3.451812
     33          6           0       -6.967809    4.747864   -4.357812
     34          7           0       -5.912320   -0.083122   -0.757202
     35          6           0       -6.857257    0.417012   -1.594818
     36          6           0       -7.655138   -0.694531   -2.036101
     37          6           0       -7.159093   -1.897184   -1.423679
     38          6           0       -6.079060   -1.455531   -0.677408
     39          6           0       -8.641736   -0.656022   -3.152528
     40          6           0       -7.220405   -3.319338   -1.315227
     41          8           0       -8.070746   -4.027938   -1.868549
     42          6           0       -6.090318   -3.713027   -0.382070
     43          6           0       -6.667177   -4.427165    0.782848
     44          8           0       -7.337432   -5.423417    0.595202
     45          8           0       -6.302918   -3.924020    1.994350
     46          6           0       -6.847646   -4.635026    3.152649
     47          6           0        1.730454   -2.645816   -2.489938
     48          6           0        2.600761   -1.399692   -2.728739
     49          6           0        3.920978   -1.230186   -2.752550
     50          6           0        5.002812   -2.356889   -2.606266
     51          6           0        4.476785    0.181121   -3.028783
     52          6           0        5.071609    1.021705   -1.857311
     53          6           0        6.493692    1.543603   -2.278518
     54          6           0        7.296850    2.149812   -1.078513
     55          6           0        7.927362    3.494327   -1.422708
     56          6           0        8.263682    1.036400   -0.473003
     57          6           0        9.263644    1.583678    0.557165
     58          6           0        9.577822    0.446856    1.627173
     59          6           0       10.384141   -0.764490    1.175080
     60          6           0       10.124270   -1.972884    2.058534
     61          6           0       11.899096   -0.337137    1.238080
     62          6           0       12.663221   -0.478711   -0.106491
     63          6           0       13.988960   -1.229737    0.086395
     64          6           0       15.112850   -0.653198   -0.764040
     65          6           0       16.269846   -1.744340   -1.047377
     66          6           0       15.634246    0.582779   -0.061217
     67          1           0       -1.523842   -0.632263    3.601389
     68          1           0       -3.645798    5.067443    1.369818
     69          1           0       -7.624904    2.068744   -2.613996
     70          1           0       -3.862559   -4.414595    1.427476
     71          1           0       -1.481975   -3.112157    2.348032
     72          1           0       -2.124427   -3.717777    4.279901
     73          1           0       -3.698868   -4.082262    3.582283
     74          1           0       -3.450295   -2.528661    4.371798
     75          1           0       -3.089843   -4.405791   -0.779327
     76          1           0       -1.944184   -4.781586    0.372806
     77          1           0       -1.306278   -1.931416   -0.112007
     78          1           0       -2.020627   -2.609629   -1.636694
     79          1           0        0.304313    1.594726    3.930719
     80          1           0       -0.957273    0.833089    4.901270
     81          1           0       -0.485801    2.492133    5.258254
     82          1           0       -0.872742    6.674759    2.670243
     83          1           0       -2.668834    6.447884    2.908159
     84          1           0       -1.743471    5.739151    1.555935
     85          1           0       -4.254529    5.312948   -1.471307
     86          1           0       -7.158735    4.500868   -1.642118
     87          1           0       -5.689971    6.036407    0.915982
     88          1           0       -6.795296    6.467932   -0.387310
     89          1           0       -5.088343    6.948221   -0.345485
     90          1           0       -5.190112    3.700315   -3.915636
     91          1           0       -5.062851    5.343954   -3.565901
     92          1           0       -6.989729    5.805410   -4.619498
     93          1           0       -7.869589    4.571170   -3.771190
     94          1           0       -6.945031    4.147088   -5.267147
     95          1           0       -9.566538   -0.104103   -2.988892
     96          1           0       -8.858601   -1.701433   -3.375261
     97          1           0       -8.229792   -0.191061   -4.048257
     98          1           0       -5.457753   -4.398756   -0.946509
     99          1           0       -6.530859   -5.675997    3.082288
    100          1           0       -7.927973   -4.532452    3.256236
    101          1           0       -6.535412   -4.154509    4.079741
    102          1           0        1.583965   -3.208359   -3.411646
    103          1           0        2.238092   -3.290133   -1.771575
    104          1           0        1.956030   -0.536102   -2.890680
    105          1           0        5.539466   -2.042530   -1.711302
    106          1           0        5.659545   -2.220576   -3.465295
    107          1           0        4.634747   -3.380936   -2.532312
    108          1           0        3.672806    0.767898   -3.472307
    109          1           0        5.094224    0.118806   -3.924771
    110          1           0        5.239193    0.318423   -1.041625
    111          1           0        4.448766    1.885487   -1.623587
    112          1           0        6.437517    2.196778   -3.149694
    113          1           0        7.104733    0.708353   -2.617672
    114          1           0        6.576746    2.352765   -0.285747
    115          1           0        7.860768    3.604262   -2.505583
    116          1           0        8.984369    3.621124   -1.188153
    117          1           0        7.513301    4.281556   -0.792612
    118          1           0        8.840173    0.710615   -1.339512
    119          1           0        7.671065    0.190778   -0.123952
    120          1           0        8.990603    2.504585    1.073308
    121          1           0       10.210606    1.712214    0.032620
    122          1           0        8.563207    0.167411    1.909472
    123          1           0        9.988368    0.939481    2.508293
    124          1           0       10.127003   -1.012078    0.144921
    125          1           0        9.060546   -2.180832    2.173136
    126          1           0       10.543129   -1.745323    3.038300
    127          1           0       10.624985   -2.804053    1.562239
    128          1           0       12.365597   -0.911825    2.038080
    129          1           0       11.948549    0.720485    1.499522
    130          1           0       12.769230    0.534425   -0.494580
    131          1           0       12.086931   -1.103026   -0.789683
    132          1           0       13.970873   -2.303683   -0.097583
    133          1           0       14.154413   -1.133383    1.160279
    134          1           0       14.577581   -0.409759   -1.682189
    135          1           0       17.199985   -1.404947   -0.591559
    136          1           0       16.419492   -1.745313   -2.127145
    137          1           0       15.981029   -2.757802   -0.768334
    138          1           0       16.677954    0.782747    0.180420
    139          1           0       15.205630    0.662464    0.937873
    140          1           0       15.336588    1.499141   -0.570355
 ---------------------------------------------------------------------

 SCF Done:  E(RPBE1PBE) =  -3005.36729408     A.U. after   15 cycles

 Excitation energies and oscillator strengths:

 Excited State   1:      Singlet-A      1.8901 eV  655.96 nm  f=0.3722  <S**2>=0.000
     245 -> 248        0.16923
     246 -> 247        0.69207
     246 <- 247       -0.10823
 This state for optimization and/or second-order correction.
 Total Energy, E(TD-HF/TD-DFT) =  -3005.29783327
 Copying the excited state density for this state as the 1-particle RhoCI density.

 Excited State   2:      Singlet-A      2.2078 eV  561.58 nm  f=0.1142  <S**2>=0.000
     245 -> 247        0.66050
     246 -> 248       -0.21971

 Excited State   3:      Singlet-A      2.8238 eV  439.06 nm  f=0.0029  <S**2>=0.000
     242 -> 247        0.36655
     242 -> 249       -0.10717
     244 -> 247        0.57298

 Excited State   4:      Singlet-A      2.8764 eV  431.04 nm  f=0.0002  <S**2>=0.000
     243 -> 247        0.65784
     243 -> 248       -0.11011
     243 -> 249        0.10263
     243 -> 250       -0.11513

 Excited State   5:      Singlet-A      2.9097 eV  426.10 nm  f=0.0010  <S**2>=0.000
     241 -> 247        0.22830
     242 -> 247        0.54286
     244 -> 247       -0.34690

 The electronic state is 1-A.
 Alpha  occ. eigenvalues --  -46.92448 -19.26976 -19.26664 -19.19682 -19.19590
 Alpha  occ. eigenvalues --  -19.18648 -19.18244 -14.41554 -14.41448 -14.39363
 Alpha  occ. eigenvalues --  -14.38358 -10.36445 -10.36303 -10.31816 -10.31692
 Alpha  occ. eigenvalues --  -10.29883 -10.29423 -10.29224 -10.28699 -10.28662
 Alpha  occ. eigenvalues --  -10.28313 -10.27981 -10.27844 -10.27116 -10.26257
 Alpha  occ. eigenvalues --  -10.26215 -10.26199 -10.26043 -10.26025 -10.25769
 Alpha  occ. eigenvalues --  -10.25672 -10.25668 -10.25161 -10.25095 -10.24945
 Alpha  occ. eigenvalues --  -10.24889 -10.24870 -10.24838 -10.24759 -10.24685
 Alpha  occ. eigenvalues --  -10.24471 -10.23986 -10.23890 -10.23669 -10.23635
 Alpha  occ. eigenvalues --  -10.23600 -10.23392 -10.23292 -10.23278 -10.23210
 Alpha  occ. eigenvalues --  -10.23087 -10.22878 -10.22821 -10.22602 -10.22572
 Alpha  occ. eigenvalues --  -10.22560 -10.22548 -10.22438 -10.22152 -10.22001
 Alpha  occ. eigenvalues --  -10.21980 -10.21865 -10.21721 -10.21618 -10.21539
 Alpha  occ. eigenvalues --  -10.21382  -3.14484  -1.87299  -1.86876  -1.86689
 Alpha  occ. eigenvalues --   -1.12238  -1.12132  -1.03841  -1.02952  -1.02830
 Alpha  occ. eigenvalues --   -1.02326  -0.99528  -0.99125  -0.97528  -0.95957
 Alpha  occ. eigenvalues --   -0.88505  -0.84159  -0.83827  -0.83559  -0.83333
 Alpha  occ. eigenvalues --   -0.83180  -0.82597  -0.82095  -0.81531  -0.80498
 Alpha  occ. eigenvalues --   -0.80167  -0.79583  -0.79015  -0.78431  -0.77744
 Alpha  occ. eigenvalues --   -0.77376  -0.76695  -0.76033  -0.75449  -0.75013
 Alpha  occ. eigenvalues --   -0.74185  -0.72945  -0.72426  -0.72162  -0.71367
 Alpha  occ. eigenvalues --   -0.70029  -0.69488  -0.69430  -0.68838  -0.68017
 Alpha  occ. eigenvalues --   -0.67485  -0.66718  -0.66503  -0.65163  -0.63653
 Alpha  occ. eigenvalues --   -0.63279  -0.62514  -0.61635  -0.60963  -0.60903
 Alpha  occ. eigenvalues --   -0.60037  -0.59796  -0.59789  -0.59202  -0.58434
 Alpha  occ. eigenvalues --   -0.58044  -0.57858  -0.57407  -0.55873  -0.54762
 Alpha  occ. eigenvalues --   -0.54654  -0.53903  -0.53757  -0.53143  -0.52960
 Alpha  occ. eigenvalues --   -0.52651  -0.51762  -0.51159  -0.51123  -0.50436
 Alpha  occ. eigenvalues --   -0.50202  -0.49515  -0.49014  -0.48843  -0.48675
 Alpha  occ. eigenvalues --   -0.48634  -0.48454  -0.48105  -0.47980  -0.47776
 Alpha  occ. eigenvalues --   -0.47671  -0.46941  -0.46574  -0.46438  -0.46417
 Alpha  occ. eigenvalues --   -0.46211  -0.45959  -0.45758  -0.45644  -0.45537
 Alpha  occ. eigenvalues --   -0.45037  -0.44716  -0.44535  -0.44253  -0.44170
 Alpha  occ. eigenvalues --   -0.44060  -0.43891  -0.43845  -0.43525  -0.43337
 Alpha  occ. eigenvalues --   -0.43310  -0.43039  -0.42857  -0.42357  -0.42273
 Alpha  occ. eigenvalues --   -0.42210  -0.41808  -0.41543  -0.41446  -0.41177
 Alpha  occ. eigenvalues --   -0.41022  -0.40930  -0.40737  -0.40477  -0.40426
 Alpha  occ. eigenvalues --   -0.40353  -0.39971  -0.39822  -0.39558  -0.39501
 Alpha  occ. eigenvalues --   -0.39438  -0.39411  -0.39342  -0.39164  -0.38885
 Alpha  occ. eigenvalues --   -0.38496  -0.38319  -0.38221  -0.37966  -0.37775
 Alpha  occ. eigenvalues --   -0.37322  -0.37152  -0.37073  -0.36976  -0.36866
 Alpha  occ. eigenvalues --   -0.36664  -0.36521  -0.36331  -0.35914  -0.35837
 Alpha  occ. eigenvalues --   -0.35788  -0.35454  -0.35310  -0.35156  -0.34536
 Alpha  occ. eigenvalues --   -0.34507  -0.34119  -0.34108  -0.33629  -0.33358
 Alpha  occ. eigenvalues --   -0.33341  -0.33128  -0.32736  -0.32694  -0.32509
 Alpha  occ. eigenvalues --   -0.32226  -0.32068  -0.31989  -0.31559  -0.31254
 Alpha  occ. eigenvalues --   -0.31239  -0.30769  -0.29818  -0.29728  -0.29199
 Alpha  occ. eigenvalues --   -0.29078  -0.28527  -0.28245  -0.27352  -0.25847
 Alpha  occ. eigenvalues --   -0.25569  -0.25397  -0.25350  -0.24785  -0.21181
 Alpha  occ. eigenvalues --   -0.19233
 Alpha virt. eigenvalues --   -0.11551  -0.05388  -0.04010  -0.02335  -0.01334
 Alpha virt. eigenvalues --    0.00593   0.01349   0.01470   0.02006   0.03203
 Alpha virt. eigenvalues --    0.04165   0.04475   0.05090   0.05294   0.05802

 Mulliken charges:
               1
     1  Mg   0.939770
     2  C   -0.011284
     3  C   -0.049417
     4  C   -0.084177
     5  C   -0.063850
     6  N   -0.345996
     7  C    0.046197
     8  C   -0.107500
     9  C   -0.148560
    10  C    0.086390
    11  C    0.010992
    12  C    0.032886
    13  C   -0.051991
    14  C    0.216589
    15  O   -0.283078
    16  O   -0.342576
    17  N   -0.541325
    18  C    0.157568
    19  C   -0.164746
    20  C   -0.066826
    21  C    0.185392
    22  C    0.076417
    23  C    0.041323
    24  O   -0.276771
    25  C    0.004619
    26  N   -0.358311
    27  C    0.053330
    28  C   -0.082726
    29  C   -0.118358
    30  C    0.121353
    31  C    0.008920
    32  C   -0.018847
    33  C   -0.073259
    34  N   -0.474835
    35  C    0.113221
    36  C   -0.186550
    37  C    0.008284
    38  C    0.139135
    39  C    0.039392
    40  C    0.090227
    41  O   -0.211447
    42  C   -0.117094
    43  C    0.280204
    44  O   -0.231732
    45  O   -0.355250
    46  C    0.125771
    47  C    0.226096
    48  C   -0.143553
    49  C   -0.214408
    50  C    0.030120
    51  C    0.002596
    52  C   -0.024476
    53  C   -0.051440
    54  C   -0.210932
    55  C   -0.000151
    56  C   -0.035672
    57  C   -0.019245
    58  C   -0.052744
    59  C   -0.204267
    60  C    0.005871
    61  C   -0.019276
    62  C   -0.043697
    63  C   -0.031075
    64  C   -0.237081
    65  C   -0.009754
    66  C   -0.017653
    67  H    0.002722
    68  H   -0.020921
    69  H    0.001139
    70  H    0.034669
    71  H    0.050247
    72  H    0.044404
    73  H    0.036030
    74  H    0.044235
    75  H    0.032499
    76  H    0.049432
    77  H    0.094226
    78  H    0.077551
    79  H    0.057649
    80  H    0.035890
    81  H    0.065834
    82  H    0.060826
    83  H    0.079815
    84  H    0.054470
    85  H    0.059347
    86  H    0.052449
    87  H    0.043187
    88  H    0.055079
    89  H    0.032795
    90  H    0.043277
    91  H    0.035992
    92  H    0.040952
    93  H    0.039372
    94  H    0.051842
    95  H    0.044170
    96  H    0.063116
    97  H    0.044244
    98  H    0.096973
    99  H    0.067481
   100  H    0.062411
   101  H    0.054450
   102  H    0.060862
   103  H    0.068674
   104  H    0.032508
   105  H    0.047762
   106  H    0.047295
   107  H    0.051621
   108  H    0.017884
   109  H    0.031543
   110  H    0.043571
   111  H    0.052369
   112  H    0.029640
   113  H    0.020847
   114  H    0.032017
   115  H    0.034478
   116  H    0.025752
   117  H    0.038295
   118  H    0.029774
   119  H    0.032454
   120  H    0.039266
   121  H    0.024680
   122  H    0.013448
   123  H    0.021170
   124  H    0.030312
   125  H    0.034648
   126  H    0.035942
   127  H    0.038392
   128  H    0.028739
   129  H    0.033355
   130  H    0.037328
   131  H    0.034754
   132  H    0.019838
   133  H    0.024360
   134  H    0.042581
   135  H    0.039327
   136  H    0.033975
   137  H    0.036505
   138  H    0.031516
   139  H    0.024368
   140  H    0.029562
 Sum of Mulliken charges =  -0.00000

 Dipole moment (field-independent basis, Debye):
    X=              1.4815    Y=              5.6922    Z=              0.2161  Tot=              5.8857
 Quadrupole moment (field-independent basis, Debye-Ang):
   XX=           -418.7869   YY=           -409.7706   ZZ=           -394.2796
   XY=            -53.9156   XZ=            -28.0306   YZ=            -33.3082

 Normal termination of Gaussian 16 at Fri Apr 29 10:38:56 2022.
