 Gaussian 16, Revision A.03,
 Gaussian 16:  ES64L-G16RevA.03 25-Dec-2016

 --------------------------------
 #p wB97XD/Def2SVP td=(nstates=5)
 --------------------------------

 ---------------------------------------------------
 step_251_chromophore_2 TDDFT with wB97XD functional
 ---------------------------------------------------
 Symbolic Z-matrix:
 Charge =  0 Multiplicity = 1

                         Standard orientation:
 ---------------------------------------------------------------------
 Center     Atomic      Atomic             Coordinates (Angstroms)
 Number     Number       Type             X           Y           Z
 ---------------------------------------------------------------------
      1         12           0       -4.677588    0.814907    0.684496
      2          6           0       -5.347068   -2.450133   -0.009267
      3          6           0       -2.126258   -0.293417    2.756109
      4          6           0       -3.780086    4.027801    1.064491
      5          6           0       -6.815524    1.824254   -1.922459
      6          7           0       -3.673861   -1.164377    1.093078
      7          6           0       -4.196599   -2.344137    0.702838
      8          6           0       -3.359459   -3.500815    1.111091
      9          6           0       -2.522949   -2.786337    2.344895
     10          6           0       -2.773569   -1.288117    2.072768
     11          6           0       -2.972557   -3.286438    3.749440
     12          6           0       -2.456890   -3.913274   -0.040867
     13          6           0       -1.494019   -2.825010   -0.707422
     14          6           0       -0.076167   -3.199775   -1.120513
     15          8           0        0.490116   -4.224658   -0.728585
     16          8           0        0.395474   -2.291238   -1.980376
     17          7           0       -3.175977    1.743992    1.749136
     18          6           0       -2.292345    1.122697    2.667540
     19          6           0       -1.625425    2.164561    3.374567
     20          6           0       -2.019264    3.409499    2.899839
     21          6           0       -3.058721    3.142994    1.891334
     22          6           0       -0.635964    1.772418    4.452982
     23          6           0       -1.453609    4.758746    3.273730
     24          8           0       -0.528174    4.743584    4.123175
     25          6           0       -1.721883    5.992854    2.614911
     26          7           0       -5.079818    2.634803   -0.459812
     27          6           0       -4.624593    3.848648   -0.035955
     28          6           0       -5.149736    4.991029   -0.938114
     29          6           0       -6.132174    4.239942   -1.898672
     30          6           0       -5.953320    2.796442   -1.459675
     31          6           0       -5.783987    6.128018   -0.165756
     32          6           0       -5.754434    4.509399   -3.451812
     33          6           0       -6.967809    4.747864   -4.357812
     34          7           0       -5.912320   -0.083122   -0.757202
     35          6           0       -6.857257    0.417012   -1.594818
     36          6           0       -7.655138   -0.694531   -2.036101
     37          6           0       -7.159093   -1.897184   -1.423679
     38          6           0       -6.079060   -1.455531   -0.677408
     39          6           0       -8.641736   -0.656022   -3.152528
     40          6           0       -7.220405   -3.319338   -1.315227
     41          8           0       -8.070746   -4.027938   -1.868549
     42          6           0       -6.090318   -3.713027   -0.382070
     43          6           0       -6.667177   -4.427165    0.782848
     44          8           0       -7.337432   -5.423417    0.595202
     45          8           0       -6.302918   -3.924020    1.994350
     46          6           0       -6.847646   -4.635026    3.152649
     47          6           0        1.730454   -2.645816   -2.489938
     48          6           0        2.600761   -1.399692   -2.728739
     49          6           0        3.920978   -1.230186   -2.752550
     50          6           0        5.002812   -2.356889   -2.606266
     51          6           0        4.476785    0.181121   -3.028783
     52          6           0        5.071609    1.021705   -1.857311
     53          6           0        6.493692    1.543603   -2.278518
     54          6           0        7.296850    2.149812   -1.078513
     55          6           0        7.927362    3.494327   -1.422708
     56          6           0        8.263682    1.036400   -0.473003
     57          6           0        9.263644    1.583678    0.557165
     58          6           0        9.577822    0.446856    1.627173
     59          6           0       10.384141   -0.764490    1.175080
     60          6           0       10.124270   -1.972884    2.058534
     61          6           0       11.899096   -0.337137    1.238080
     62          6           0       12.663221   -0.478711   -0.106491
     63          6           0       13.988960   -1.229737    0.086395
     64          6           0       15.112850   -0.653198   -0.764040
     65          6           0       16.269846   -1.744340   -1.047377
     66          6           0       15.634246    0.582779   -0.061217
     67          1           0       -1.523842   -0.632263    3.601389
     68          1           0       -3.645798    5.067443    1.369818
     69          1           0       -7.624904    2.068744   -2.613996
     70          1           0       -3.862559   -4.414595    1.427476
     71          1           0       -1.481975   -3.112157    2.348032
     72          1           0       -2.124427   -3.717777    4.279901
     73          1           0       -3.698868   -4.082262    3.582283
     74          1           0       -3.450295   -2.528661    4.371798
     75          1           0       -3.089843   -4.405791   -0.779327
     76          1           0       -1.944184   -4.781586    0.372806
     77          1           0       -1.306278   -1.931416   -0.112007
     78          1           0       -2.020627   -2.609629   -1.636694
     79          1           0        0.304313    1.594726    3.930719
     80          1           0       -0.957273    0.833089    4.901270
     81          1           0       -0.485801    2.492133    5.258254
     82          1           0       -0.872742    6.674759    2.670243
     83          1           0       -2.668834    6.447884    2.908159
     84          1           0       -1.743471    5.739151    1.555935
     85          1           0       -4.254529    5.312948   -1.471307
     86          1           0       -7.158735    4.500868   -1.642118
     87          1           0       -5.689971    6.036407    0.915982
     88          1           0       -6.795296    6.467932   -0.387310
     89          1           0       -5.088343    6.948221   -0.345485
     90          1           0       -5.190112    3.700315   -3.915636
     91          1           0       -5.062851    5.343954   -3.565901
     92          1           0       -6.989729    5.805410   -4.619498
     93          1           0       -7.869589    4.571170   -3.771190
     94          1           0       -6.945031    4.147088   -5.267147
     95          1           0       -9.566538   -0.104103   -2.988892
     96          1           0       -8.858601   -1.701433   -3.375261
     97          1           0       -8.229792   -0.191061   -4.048257
     98          1           0       -5.457753   -4.398756   -0.946509
     99          1           0       -6.530859   -5.675997    3.082288
    100          1           0       -7.927973   -4.532452    3.256236
    101          1           0       -6.535412   -4.154509    4.079741
    102          1           0        1.583965   -3.208359   -3.411646
    103          1           0        2.238092   -3.290133   -1.771575
    104          1           0        1.956030   -0.536102   -2.890680
    105          1           0        5.539466   -2.042530   -1.711302
    106          1           0        5.659545   -2.220576   -3.465295
    107          1           0        4.634747   -3.380936   -2.532312
    108          1           0        3.672806    0.767898   -3.472307
    109          1           0        5.094224    0.118806   -3.924771
    110          1           0        5.239193    0.318423   -1.041625
    111          1           0        4.448766    1.885487   -1.623587
    112          1           0        6.437517    2.196778   -3.149694
    113          1           0        7.104733    0.708353   -2.617672
    114          1           0        6.576746    2.352765   -0.285747
    115          1           0        7.860768    3.604262   -2.505583
    116          1           0        8.984369    3.621124   -1.188153
    117          1           0        7.513301    4.281556   -0.792612
    118          1           0        8.840173    0.710615   -1.339512
    119          1           0        7.671065    0.190778   -0.123952
    120          1           0        8.990603    2.504585    1.073308
    121          1           0       10.210606    1.712214    0.032620
    122          1           0        8.563207    0.167411    1.909472
    123          1           0        9.988368    0.939481    2.508293
    124          1           0       10.127003   -1.012078    0.144921
    125          1           0        9.060546   -2.180832    2.173136
    126          1           0       10.543129   -1.745323    3.038300
    127          1           0       10.624985   -2.804053    1.562239
    128          1           0       12.365597   -0.911825    2.038080
    129          1           0       11.948549    0.720485    1.499522
    130          1           0       12.769230    0.534425   -0.494580
    131          1           0       12.086931   -1.103026   -0.789683
    132          1           0       13.970873   -2.303683   -0.097583
    133          1           0       14.154413   -1.133383    1.160279
    134          1           0       14.577581   -0.409759   -1.682189
    135          1           0       17.199985   -1.404947   -0.591559
    136          1           0       16.419492   -1.745313   -2.127145
    137          1           0       15.981029   -2.757802   -0.768334
    138          1           0       16.677954    0.782747    0.180420
    139          1           0       15.205630    0.662464    0.937873
    140          1           0       15.336588    1.499141   -0.570355
 ---------------------------------------------------------------------

 SCF Done:  E(RwB97XD) =  -3007.87638519     A.U. after   18 cycles

 Excitation energies and oscillator strengths:

 Excited State   1:      Singlet-A      1.6872 eV  734.83 nm  f=0.3848  <S**2>=0.000
     245 -> 248        0.18172
     246 -> 247        0.68315
     245 <- 248        0.11266
 This state for optimization and/or second-order correction.
 Total Energy, E(TD-HF/TD-DFT) =  -3007.81438020
 Copying the excited state density for this state as the 1-particle RhoCI density.

 Excited State   2:      Singlet-A      2.1629 eV  573.24 nm  f=0.1235  <S**2>=0.000
     245 -> 247        0.64792
     246 -> 248       -0.25583

 Excited State   3:      Singlet-A      3.2080 eV  386.48 nm  f=0.0008  <S**2>=0.000
     243 -> 247       -0.33270
     244 -> 247        0.60134

 Excited State   4:      Singlet-A      3.3621 eV  368.77 nm  f=0.0046  <S**2>=0.000
     240 -> 247       -0.17999
     240 -> 249       -0.14059
     240 -> 250        0.12307
     242 -> 247        0.23306
     243 -> 247        0.47830
     244 -> 247        0.24441
     246 -> 248        0.20808

 Excited State   5:      Singlet-A      3.4004 eV  364.62 nm  f=0.0037  <S**2>=0.000
     240 -> 247        0.47591
     240 -> 248       -0.18047
     240 -> 249        0.27593
     240 -> 250       -0.24954
     243 -> 247        0.20060
     246 -> 248        0.14028

 The electronic state is 1-A.
 Alpha  occ. eigenvalues --  -46.95448 -19.31511 -19.31214 -19.24343 -19.24203
 Alpha  occ. eigenvalues --  -19.23277 -19.23231 -14.46653 -14.46621 -14.44423
 Alpha  occ. eigenvalues --  -14.43151 -10.43224 -10.43051 -10.38813 -10.38402
 Alpha  occ. eigenvalues --  -10.36390 -10.35906 -10.35724 -10.35315 -10.35193
 Alpha  occ. eigenvalues --  -10.34473 -10.34464 -10.34139 -10.33147 -10.32548
 Alpha  occ. eigenvalues --  -10.32504 -10.32434 -10.32433 -10.32298 -10.32142
 Alpha  occ. eigenvalues --  -10.31989 -10.31791 -10.31506 -10.31500 -10.31489
 Alpha  occ. eigenvalues --  -10.31409 -10.31353 -10.31232 -10.31047 -10.30938
 Alpha  occ. eigenvalues --  -10.30765 -10.30426 -10.30353 -10.30339 -10.30064
 Alpha  occ. eigenvalues --  -10.29995 -10.29699 -10.29676 -10.29659 -10.29505
 Alpha  occ. eigenvalues --  -10.29484 -10.29432 -10.29180 -10.28976 -10.28964
 Alpha  occ. eigenvalues --  -10.28952 -10.28799 -10.28530 -10.28527 -10.28401
 Alpha  occ. eigenvalues --  -10.28358 -10.28236 -10.28178 -10.28072 -10.27898
 Alpha  occ. eigenvalues --  -10.27815  -3.21353  -1.94914  -1.94492  -1.94304
 Alpha  occ. eigenvalues --   -1.19587  -1.19499  -1.11181  -1.10630  -1.10146
 Alpha  occ. eigenvalues --   -1.09636  -1.06949  -1.06526  -1.04719  -1.03577
 Alpha  occ. eigenvalues --   -0.96014  -0.91848  -0.91503  -0.91250  -0.90940
 Alpha  occ. eigenvalues --   -0.90793  -0.90273  -0.89717  -0.89206  -0.88321
 Alpha  occ. eigenvalues --   -0.87780  -0.87189  -0.86697  -0.85988  -0.85472
 Alpha  occ. eigenvalues --   -0.85074  -0.84347  -0.83677  -0.83075  -0.82646
 Alpha  occ. eigenvalues --   -0.81850  -0.80535  -0.80046  -0.79907  -0.78955
 Alpha  occ. eigenvalues --   -0.77721  -0.77197  -0.77057  -0.76532  -0.75675
 Alpha  occ. eigenvalues --   -0.75049  -0.74265  -0.74068  -0.72780  -0.71106
 Alpha  occ. eigenvalues --   -0.70854  -0.70154  -0.69270  -0.68545  -0.68470
 Alpha  occ. eigenvalues --   -0.67568  -0.67437  -0.67307  -0.66650  -0.65821
 Alpha  occ. eigenvalues --   -0.65742  -0.65308  -0.65064  -0.63514  -0.62201
 Alpha  occ. eigenvalues --   -0.62154  -0.61368  -0.61232  -0.60660  -0.60348
 Alpha  occ. eigenvalues --   -0.60003  -0.59288  -0.58656  -0.58526  -0.57767
 Alpha  occ. eigenvalues --   -0.57656  -0.56892  -0.56309  -0.56181  -0.56111
 Alpha  occ. eigenvalues --   -0.56039  -0.55881  -0.55496  -0.55442  -0.55386
 Alpha  occ. eigenvalues --   -0.54984  -0.54410  -0.53953  -0.53781  -0.53710
 Alpha  occ. eigenvalues --   -0.53610  -0.53295  -0.53016  -0.52999  -0.52813
 Alpha  occ. eigenvalues --   -0.52429  -0.52269  -0.51885  -0.51586  -0.51537
 Alpha  occ. eigenvalues --   -0.51421  -0.51238  -0.51162  -0.50799  -0.50622
 Alpha  occ. eigenvalues --   -0.50563  -0.50308  -0.50175  -0.49668  -0.49563
 Alpha  occ. eigenvalues --   -0.49472  -0.49090  -0.48814  -0.48613  -0.48432
 Alpha  occ. eigenvalues --   -0.48361  -0.48208  -0.47982  -0.47636  -0.47620
 Alpha  occ. eigenvalues --   -0.47491  -0.47172  -0.47081  -0.46771  -0.46711
 Alpha  occ. eigenvalues --   -0.46619  -0.46526  -0.46497  -0.46329  -0.46021
 Alpha  occ. eigenvalues --   -0.45693  -0.45548  -0.45398  -0.45073  -0.44964
 Alpha  occ. eigenvalues --   -0.44288  -0.44251  -0.44151  -0.44062  -0.43965
 Alpha  occ. eigenvalues --   -0.43745  -0.43626  -0.43462  -0.43143  -0.42945
 Alpha  occ. eigenvalues --   -0.42784  -0.42571  -0.42420  -0.42221  -0.41639
 Alpha  occ. eigenvalues --   -0.41426  -0.41217  -0.41084  -0.40668  -0.40412
 Alpha  occ. eigenvalues --   -0.40333  -0.40185  -0.39778  -0.39735  -0.39481
 Alpha  occ. eigenvalues --   -0.39258  -0.39125  -0.39042  -0.38633  -0.38240
 Alpha  occ. eigenvalues --   -0.38097  -0.37809  -0.36688  -0.36669  -0.35990
 Alpha  occ. eigenvalues --   -0.35940  -0.35375  -0.35216  -0.33976  -0.32813
 Alpha  occ. eigenvalues --   -0.32620  -0.32359  -0.32289  -0.31113  -0.26203
 Alpha  occ. eigenvalues --   -0.23452
 Alpha virt. eigenvalues --   -0.07476   0.00071   0.02243   0.04145   0.04513
 Alpha virt. eigenvalues --    0.07444   0.08139   0.08222   0.08878   0.09738
 Alpha virt. eigenvalues --    0.10667   0.11282   0.11750   0.11983   0.12472

 Mulliken charges:
               1
     1  Mg   0.932296
     2  C   -0.003648
     3  C   -0.066072
     4  C   -0.091778
     5  C   -0.077686
     6  N   -0.310036
     7  C    0.010416
     8  C   -0.077731
     9  C   -0.129223
    10  C    0.077364
    11  C    0.022355
    12  C    0.040895
    13  C   -0.031458
    14  C    0.208113
    15  O   -0.281314
    16  O   -0.342443
    17  N   -0.514453
    18  C    0.149083
    19  C   -0.151795
    20  C   -0.055605
    21  C    0.178036
    22  C    0.087336
    23  C    0.034311
    24  O   -0.271201
    25  C    0.017163
    26  N   -0.324858
    27  C    0.043716
    28  C   -0.057444
    29  C   -0.088485
    30  C    0.106004
    31  C    0.017510
    32  C   -0.009813
    33  C   -0.055769
    34  N   -0.439497
    35  C    0.094657
    36  C   -0.179803
    37  C    0.012013
    38  C    0.116695
    39  C    0.048093
    40  C    0.071003
    41  O   -0.201705
    42  C   -0.081092
    43  C    0.257417
    44  O   -0.227614
    45  O   -0.352762
    46  C    0.138901
    47  C    0.240218
    48  C   -0.153915
    49  C   -0.200806
    50  C    0.045432
    51  C    0.017564
    52  C   -0.004949
    53  C   -0.033902
    54  C   -0.182935
    55  C    0.010471
    56  C   -0.018125
    57  C   -0.002884
    58  C   -0.030830
    59  C   -0.175665
    60  C    0.020291
    61  C   -0.005932
    62  C   -0.030849
    63  C   -0.008502
    64  C   -0.207165
    65  C    0.003991
    66  C   -0.008945
    67  H   -0.002768
    68  H   -0.037484
    69  H   -0.005315
    70  H    0.023185
    71  H    0.041845
    72  H    0.039985
    73  H    0.026735
    74  H    0.038155
    75  H    0.022581
    76  H    0.042362
    77  H    0.082454
    78  H    0.071734
    79  H    0.053798
    80  H    0.030336
    81  H    0.063780
    82  H    0.060716
    83  H    0.077347
    84  H    0.047411
    85  H    0.049438
    86  H    0.040763
    87  H    0.036189
    88  H    0.051883
    89  H    0.026913
    90  H    0.036405
    91  H    0.027725
    92  H    0.034845
    93  H    0.031465
    94  H    0.047201
    95  H    0.038304
    96  H    0.058215
    97  H    0.037628
    98  H    0.089700
    99  H    0.064063
   100  H    0.058758
   101  H    0.051014
   102  H    0.056909
   103  H    0.062350
   104  H    0.029523
   105  H    0.040025
   106  H    0.041238
   107  H    0.047932
   108  H    0.010962
   109  H    0.023088
   110  H    0.030589
   111  H    0.046055
   112  H    0.021146
   113  H    0.007994
   114  H    0.019134
   115  H    0.028287
   116  H    0.019078
   117  H    0.033574
   118  H    0.018701
   119  H    0.021237
   120  H    0.032669
   121  H    0.011570
   122  H    0.001668
   123  H    0.012778
   124  H    0.016256
   125  H    0.028995
   126  H    0.028678
   127  H    0.032051
   128  H    0.018196
   129  H    0.023386
   130  H    0.028979
   131  H    0.025640
   132  H    0.011326
   133  H    0.010300
   134  H    0.031216
   135  H    0.033089
   136  H    0.028006
   137  H    0.030770
   138  H    0.026756
   139  H    0.015865
   140  H    0.023964
 Sum of Mulliken charges =  -0.00000

 Dipole moment (field-independent basis, Debye):
    X=              1.8075    Y=              5.9718    Z=              0.6298  Tot=              6.2711
 Quadrupole moment (field-independent basis, Debye-Ang):
   XX=           -421.3254   YY=           -409.0534   ZZ=           -393.3973
   XY=            -54.6971   XZ=            -30.0224   YZ=            -32.5148

 Normal termination of Gaussian 16 at Fri Apr 29 11:07:59 2022.
