 Gaussian 16, Revision A.03,
 Gaussian 16:  ES64L-G16RevA.03 25-Dec-2016

 --------------------
 #p ZINDO=(nstates=5)
 --------------------

 ----------------------------
 step_251_chromophore_2 ZINDO
 ----------------------------
 Symbolic Z-matrix:
 Charge =  0 Multiplicity = 1

                         Standard orientation:
 ---------------------------------------------------------------------
 Center     Atomic      Atomic             Coordinates (Angstroms)
 Number     Number       Type             X           Y           Z
 ---------------------------------------------------------------------
      1         12           0       -4.677588    0.814907    0.684496
      2          6           0       -5.347068   -2.450133   -0.009267
      3          6           0       -2.126258   -0.293417    2.756109
      4          6           0       -3.780086    4.027801    1.064491
      5          6           0       -6.815524    1.824254   -1.922459
      6          7           0       -3.673861   -1.164377    1.093078
      7          6           0       -4.196599   -2.344137    0.702838
      8          6           0       -3.359459   -3.500815    1.111091
      9          6           0       -2.522949   -2.786337    2.344895
     10          6           0       -2.773569   -1.288117    2.072768
     11          6           0       -2.972557   -3.286438    3.749440
     12          6           0       -2.456890   -3.913274   -0.040867
     13          6           0       -1.494019   -2.825010   -0.707422
     14          6           0       -0.076167   -3.199775   -1.120513
     15          8           0        0.490116   -4.224658   -0.728585
     16          8           0        0.395474   -2.291238   -1.980376
     17          7           0       -3.175977    1.743992    1.749136
     18          6           0       -2.292345    1.122697    2.667540
     19          6           0       -1.625425    2.164561    3.374567
     20          6           0       -2.019264    3.409499    2.899839
     21          6           0       -3.058721    3.142994    1.891334
     22          6           0       -0.635964    1.772418    4.452982
     23          6           0       -1.453609    4.758746    3.273730
     24          8           0       -0.528174    4.743584    4.123175
     25          6           0       -1.721883    5.992854    2.614911
     26          7           0       -5.079818    2.634803   -0.459812
     27          6           0       -4.624593    3.848648   -0.035955
     28          6           0       -5.149736    4.991029   -0.938114
     29          6           0       -6.132174    4.239942   -1.898672
     30          6           0       -5.953320    2.796442   -1.459675
     31          6           0       -5.783987    6.128018   -0.165756
     32          6           0       -5.754434    4.509399   -3.451812
     33          6           0       -6.967809    4.747864   -4.357812
     34          7           0       -5.912320   -0.083122   -0.757202
     35          6           0       -6.857257    0.417012   -1.594818
     36          6           0       -7.655138   -0.694531   -2.036101
     37          6           0       -7.159093   -1.897184   -1.423679
     38          6           0       -6.079060   -1.455531   -0.677408
     39          6           0       -8.641736   -0.656022   -3.152528
     40          6           0       -7.220405   -3.319338   -1.315227
     41          8           0       -8.070746   -4.027938   -1.868549
     42          6           0       -6.090318   -3.713027   -0.382070
     43          6           0       -6.667177   -4.427165    0.782848
     44          8           0       -7.337432   -5.423417    0.595202
     45          8           0       -6.302918   -3.924020    1.994350
     46          6           0       -6.847646   -4.635026    3.152649
     47          6           0        1.730454   -2.645816   -2.489938
     48          6           0        2.600761   -1.399692   -2.728739
     49          6           0        3.920978   -1.230186   -2.752550
     50          6           0        5.002812   -2.356889   -2.606266
     51          6           0        4.476785    0.181121   -3.028783
     52          6           0        5.071609    1.021705   -1.857311
     53          6           0        6.493692    1.543603   -2.278518
     54          6           0        7.296850    2.149812   -1.078513
     55          6           0        7.927362    3.494327   -1.422708
     56          6           0        8.263682    1.036400   -0.473003
     57          6           0        9.263644    1.583678    0.557165
     58          6           0        9.577822    0.446856    1.627173
     59          6           0       10.384141   -0.764490    1.175080
     60          6           0       10.124270   -1.972884    2.058534
     61          6           0       11.899096   -0.337137    1.238080
     62          6           0       12.663221   -0.478711   -0.106491
     63          6           0       13.988960   -1.229737    0.086395
     64          6           0       15.112850   -0.653198   -0.764040
     65          6           0       16.269846   -1.744340   -1.047377
     66          6           0       15.634246    0.582779   -0.061217
     67          1           0       -1.523842   -0.632263    3.601389
     68          1           0       -3.645798    5.067443    1.369818
     69          1           0       -7.624904    2.068744   -2.613996
     70          1           0       -3.862559   -4.414595    1.427476
     71          1           0       -1.481975   -3.112157    2.348032
     72          1           0       -2.124427   -3.717777    4.279901
     73          1           0       -3.698868   -4.082262    3.582283
     74          1           0       -3.450295   -2.528661    4.371798
     75          1           0       -3.089843   -4.405791   -0.779327
     76          1           0       -1.944184   -4.781586    0.372806
     77          1           0       -1.306278   -1.931416   -0.112007
     78          1           0       -2.020627   -2.609629   -1.636694
     79          1           0        0.304313    1.594726    3.930719
     80          1           0       -0.957273    0.833089    4.901270
     81          1           0       -0.485801    2.492133    5.258254
     82          1           0       -0.872742    6.674759    2.670243
     83          1           0       -2.668834    6.447884    2.908159
     84          1           0       -1.743471    5.739151    1.555935
     85          1           0       -4.254529    5.312948   -1.471307
     86          1           0       -7.158735    4.500868   -1.642118
     87          1           0       -5.689971    6.036407    0.915982
     88          1           0       -6.795296    6.467932   -0.387310
     89          1           0       -5.088343    6.948221   -0.345485
     90          1           0       -5.190112    3.700315   -3.915636
     91          1           0       -5.062851    5.343954   -3.565901
     92          1           0       -6.989729    5.805410   -4.619498
     93          1           0       -7.869589    4.571170   -3.771190
     94          1           0       -6.945031    4.147088   -5.267147
     95          1           0       -9.566538   -0.104103   -2.988892
     96          1           0       -8.858601   -1.701433   -3.375261
     97          1           0       -8.229792   -0.191061   -4.048257
     98          1           0       -5.457753   -4.398756   -0.946509
     99          1           0       -6.530859   -5.675997    3.082288
    100          1           0       -7.927973   -4.532452    3.256236
    101          1           0       -6.535412   -4.154509    4.079741
    102          1           0        1.583965   -3.208359   -3.411646
    103          1           0        2.238092   -3.290133   -1.771575
    104          1           0        1.956030   -0.536102   -2.890680
    105          1           0        5.539466   -2.042530   -1.711302
    106          1           0        5.659545   -2.220576   -3.465295
    107          1           0        4.634747   -3.380936   -2.532312
    108          1           0        3.672806    0.767898   -3.472307
    109          1           0        5.094224    0.118806   -3.924771
    110          1           0        5.239193    0.318423   -1.041625
    111          1           0        4.448766    1.885487   -1.623587
    112          1           0        6.437517    2.196778   -3.149694
    113          1           0        7.104733    0.708353   -2.617672
    114          1           0        6.576746    2.352765   -0.285747
    115          1           0        7.860768    3.604262   -2.505583
    116          1           0        8.984369    3.621124   -1.188153
    117          1           0        7.513301    4.281556   -0.792612
    118          1           0        8.840173    0.710615   -1.339512
    119          1           0        7.671065    0.190778   -0.123952
    120          1           0        8.990603    2.504585    1.073308
    121          1           0       10.210606    1.712214    0.032620
    122          1           0        8.563207    0.167411    1.909472
    123          1           0        9.988368    0.939481    2.508293
    124          1           0       10.127003   -1.012078    0.144921
    125          1           0        9.060546   -2.180832    2.173136
    126          1           0       10.543129   -1.745323    3.038300
    127          1           0       10.624985   -2.804053    1.562239
    128          1           0       12.365597   -0.911825    2.038080
    129          1           0       11.948549    0.720485    1.499522
    130          1           0       12.769230    0.534425   -0.494580
    131          1           0       12.086931   -1.103026   -0.789683
    132          1           0       13.970873   -2.303683   -0.097583
    133          1           0       14.154413   -1.133383    1.160279
    134          1           0       14.577581   -0.409759   -1.682189
    135          1           0       17.199985   -1.404947   -0.591559
    136          1           0       16.419492   -1.745313   -2.127145
    137          1           0       15.981029   -2.757802   -0.768334
    138          1           0       16.677954    0.782747    0.180420
    139          1           0       15.205630    0.662464    0.937873
    140          1           0       15.336588    1.499141   -0.570355
 ---------------------------------------------------------------------

 SCF Done:  E(RZINDO/S) =  -474.446235343     A.U. after   19 cycles

 Excitation energies and oscillator strengths:

 Excited State   1:      Singlet-A      1.2866 eV  963.63 nm  f=0.5978  <S**2>=0.000
     175 ->178         0.17679
     176 ->177         0.66546
 This state for optimization and/or second-order correction.
 Total Energy, E(CIS/TDA) =  -474.398952191
 Copying the excited state density for this state as the 1-particle RhoCI density.

 Excited State   2:      Singlet-A      1.9291 eV  642.71 nm  f=0.0653  <S**2>=0.000
     175 ->177         0.56300
     176 ->178        -0.38938

 Excited State   3:      Singlet-A      2.8071 eV  441.69 nm  f=0.0003  <S**2>=0.000
     167 ->179         0.11440
     168 ->177         0.30271
     168 ->178        -0.23220
     168 ->179         0.37775
     168 ->181        -0.30020
     168 ->184        -0.10078
     168 ->185         0.20179

 Excited State   4:      Singlet-A      2.9364 eV  422.23 nm  f=0.0068  <S**2>=0.000
     171 ->177         0.32424
     171 ->179        -0.36212
     171 ->181        -0.34731
     171 ->185        -0.16733
     171 ->187        -0.15252
     171 ->188         0.13694

 Excited State   5:      Singlet-A      3.0261 eV  409.71 nm  f=0.9715  <S**2>=0.000
     175 ->177         0.35061
     176 ->178         0.54933
     176 ->179        -0.10579
     176 ->180        -0.15271

 The electronic state is 1-A.
 Alpha  occ. eigenvalues --   -1.85935  -1.81831  -1.80539  -1.74719  -1.73337
 Alpha  occ. eigenvalues --   -1.71749  -1.65802  -1.60538  -1.60154  -1.59563
 Alpha  occ. eigenvalues --   -1.55354  -1.50341  -1.49057  -1.47962  -1.46531
 Alpha  occ. eigenvalues --   -1.45314  -1.42734  -1.42138  -1.39538  -1.37403
 Alpha  occ. eigenvalues --   -1.36736  -1.32842  -1.32146  -1.30994  -1.29199
 Alpha  occ. eigenvalues --   -1.28434  -1.27731  -1.24360  -1.22586  -1.19363
 Alpha  occ. eigenvalues --   -1.16702  -1.16262  -1.15558  -1.14312  -1.13148
 Alpha  occ. eigenvalues --   -1.12631  -1.10839  -1.09272  -1.06526  -1.03600
 Alpha  occ. eigenvalues --   -1.02796  -1.00858  -1.00053  -0.97907  -0.97107
 Alpha  occ. eigenvalues --   -0.95203  -0.94968  -0.93890  -0.93192  -0.92236
 Alpha  occ. eigenvalues --   -0.91422  -0.90303  -0.89341  -0.88706  -0.85989
 Alpha  occ. eigenvalues --   -0.84975  -0.84518  -0.83932  -0.83175  -0.81639
 Alpha  occ. eigenvalues --   -0.80413  -0.78598  -0.77400  -0.77051  -0.76796
 Alpha  occ. eigenvalues --   -0.76606  -0.76089  -0.74282  -0.73800  -0.73517
 Alpha  occ. eigenvalues --   -0.72968  -0.72213  -0.71903  -0.71756  -0.71089
 Alpha  occ. eigenvalues --   -0.70479  -0.69551  -0.68640  -0.68386  -0.68055
 Alpha  occ. eigenvalues --   -0.67694  -0.67454  -0.67042  -0.66831  -0.66759
 Alpha  occ. eigenvalues --   -0.66447  -0.65390  -0.64951  -0.64780  -0.64089
 Alpha  occ. eigenvalues --   -0.64054  -0.63466  -0.62504  -0.62037  -0.61609
 Alpha  occ. eigenvalues --   -0.61132  -0.60971  -0.60743  -0.60031  -0.59707
 Alpha  occ. eigenvalues --   -0.59515  -0.59276  -0.59234  -0.58926  -0.58478
 Alpha  occ. eigenvalues --   -0.57990  -0.57896  -0.57706  -0.57179  -0.56755
 Alpha  occ. eigenvalues --   -0.56168  -0.55927  -0.55743  -0.55340  -0.55158
 Alpha  occ. eigenvalues --   -0.54430  -0.53990  -0.53527  -0.52919  -0.52533
 Alpha  occ. eigenvalues --   -0.52417  -0.52372  -0.52310  -0.51987  -0.51631
 Alpha  occ. eigenvalues --   -0.51425  -0.51398  -0.50963  -0.50757  -0.50680
 Alpha  occ. eigenvalues --   -0.50264  -0.49944  -0.49609  -0.49400  -0.49048
 Alpha  occ. eigenvalues --   -0.48604  -0.48409  -0.47932  -0.47862  -0.47631
 Alpha  occ. eigenvalues --   -0.47424  -0.47311  -0.47083  -0.46975  -0.46485
 Alpha  occ. eigenvalues --   -0.46429  -0.46161  -0.46132  -0.45868  -0.45677
 Alpha  occ. eigenvalues --   -0.44884  -0.44743  -0.44601  -0.44497  -0.44146
 Alpha  occ. eigenvalues --   -0.43892  -0.43417  -0.42744  -0.42428  -0.42195
 Alpha  occ. eigenvalues --   -0.41931  -0.41751  -0.41710  -0.39617  -0.38424
 Alpha  occ. eigenvalues --   -0.38010  -0.37055  -0.35875  -0.34986  -0.34315
 Alpha  occ. eigenvalues --   -0.34265  -0.33393  -0.33179  -0.31690  -0.27131
 Alpha  occ. eigenvalues --   -0.22459
 Alpha virt. eigenvalues --   -0.09091  -0.02559  -0.00701   0.00719   0.01026
 Alpha virt. eigenvalues --    0.01949   0.02639   0.02760   0.04424   0.05108
 Alpha virt. eigenvalues --    0.06208   0.06525   0.07523   0.07738   0.07843

 Mulliken charges:
               1
     1  Mg   0.429439
     2  C   -0.045220
     3  C   -0.074384
     4  C   -0.086391
     5  C   -0.066661
     6  N   -0.283014
     7  C    0.126904
     8  C   -0.000826
     9  C   -0.012258
    10  C    0.165663
    11  C   -0.052926
    12  C   -0.021651
    13  C    0.002458
    14  C    0.472627
    15  O   -0.537303
    16  O   -0.253177
    17  N   -0.354600
    18  C    0.116468
    19  C    0.069143
    20  C   -0.031908
    21  C    0.130163
    22  C   -0.038148
    23  C    0.334419
    24  O   -0.545159
    25  C   -0.016447
    26  N   -0.268881
    27  C    0.154929
    28  C    0.010416
    29  C   -0.001581
    30  C    0.116814
    31  C   -0.052723
    32  C   -0.032952
    33  C   -0.057918
    34  N   -0.337336
    35  C    0.080929
    36  C    0.014767
    37  C   -0.060671
    38  C    0.088863
    39  C   -0.043812
    40  C    0.341680
    41  O   -0.524641
    42  C    0.062320
    43  C    0.484683
    44  O   -0.504468
    45  O   -0.269178
    46  C    0.073978
    47  C    0.099868
    48  C   -0.085543
    49  C   -0.008421
    50  C   -0.046879
    51  C   -0.029702
    52  C   -0.027577
    53  C   -0.042441
    54  C   -0.019415
    55  C   -0.058542
    56  C   -0.032012
    57  C   -0.041187
    58  C   -0.040919
    59  C   -0.007682
    60  C   -0.053391
    61  C   -0.043628
    62  C   -0.038111
    63  C   -0.035658
    64  C   -0.007655
    65  C   -0.065612
    66  C   -0.056552
    67  H    0.028652
    68  H    0.018135
    69  H    0.021896
    70  H    0.039038
    71  H    0.035385
    72  H    0.021880
    73  H    0.020719
    74  H    0.024252
    75  H    0.021338
    76  H    0.025057
    77  H    0.055079
    78  H    0.041525
    79  H    0.037431
    80  H    0.021199
    81  H    0.043187
    82  H    0.041297
    83  H    0.049075
    84  H    0.028599
    85  H    0.037936
    86  H    0.039720
    87  H    0.020464
    88  H    0.033129
    89  H    0.008665
    90  H    0.023745
    91  H    0.017790
    92  H    0.015403
    93  H    0.020009
    94  H    0.027318
    95  H    0.028011
    96  H    0.031027
    97  H    0.021483
    98  H    0.067851
    99  H    0.050312
   100  H    0.045153
   101  H    0.027077
   102  H    0.047266
   103  H    0.055832
   104  H    0.024856
   105  H    0.029804
   106  H    0.028018
   107  H    0.033664
   108  H    0.008352
   109  H    0.022736
   110  H    0.027778
   111  H    0.033615
   112  H    0.021252
   113  H    0.013461
   114  H    0.011963
   115  H    0.023476
   116  H    0.013386
   117  H    0.022126
   118  H    0.015113
   119  H    0.025631
   120  H    0.028907
   121  H    0.015546
   122  H    0.003187
   123  H    0.014859
   124  H    0.022552
   125  H    0.017299
   126  H    0.022168
   127  H    0.017552
   128  H    0.022749
   129  H    0.017612
   130  H    0.026695
   131  H    0.017613
   132  H    0.015359
   133  H    0.016066
   134  H    0.025631
   135  H    0.025211
   136  H    0.013348
   137  H    0.027116
   138  H    0.021238
   139  H    0.011375
   140  H    0.009392
 Sum of Mulliken charges =  -0.00000

 Dipole moment (field-independent basis, Debye):
    X=              3.2329    Y=              8.6364    Z=              1.4123  Tot=              9.3292
 N-N= 4.365740199034D+03 E-N= 0.000000000000D+00  KE=-9.405263135835D+03
 Leave Link  601 at Fri Apr 29 11:20:47 2022, MaxMem=  6710886400 cpu:               0.8 elap:               0.0
 (Enter /sw/apps/gaussian-16.0/g16/l9999.exe)
 1\1\GINC-BP1-COMPUTE102\SP\RZINDO CIS\STO-3G\C55H74Mg1N4O6\OF15641\29-
 Apr-2022\0\\#p ZINDO=(nstates=5)\\step_251_chromophore_2 ZINDO\\0,1\Mg
 ,0,3.635,0.418,44.385\C,0,6.382,2.416,44.157\C,0,1.856,2.916,42.765\C,
 0,1.034,-1.702,44.271\C,0,5.659,-2.277,45.398\N,0,4.153,2.341,43.324\C
 ,0,5.357,2.937,43.436\C,0,5.441,4.201,42.661\C,0,3.826,4.531,42.537\C,
 0,3.195,3.17,42.899\C,0,3.382,5.724,43.434\C,0,6.085,3.933,41.31\C,0,5
 .459,2.815,40.354\C,0,5.369,3.048,38.851\O,0,5.497,4.162,38.334\O,0,5.

 Normal termination of Gaussian 16 at Fri Apr 29 11:20:47 2022.
