 Gaussian 16, Revision A.03,
 Gaussian 16:  ES64L-G16RevA.03 25-Dec-2016

 ------------------------------
 #p blyp/Def2SVP td=(nstates=5)
 ------------------------------

 --------------------------------------------------
 step_951_chromophore_26 TDDFT with blyp functional
 --------------------------------------------------
 Symbolic Z-matrix:
 Charge =  0 Multiplicity = 1

                         Standard orientation:
 ---------------------------------------------------------------------
 Center     Atomic      Atomic             Coordinates (Angstroms)
 Number     Number       Type             X           Y           Z
 ---------------------------------------------------------------------
      1         12           0       -4.058987    1.385987    0.553444
      2          6           0       -4.966227   -1.960894   -0.137955
      3          6           0       -2.062363    0.068903    3.109555
      4          6           0       -2.884689    4.486892    1.015023
      5          6           0       -5.372322    2.320057   -2.548384
      6          7           0       -3.555934   -0.777723    1.430704
      7          6           0       -4.167911   -1.961652    1.045197
      8          6           0       -3.728895   -3.135733    2.020501
      9          6           0       -2.921920   -2.342270    3.037614
     10          6           0       -2.844380   -0.952293    2.487541
     11          6           0       -3.512120   -2.418349    4.508103
     12          6           0       -3.077857   -4.266872    1.367950
     13          6           0       -2.214525   -4.055001    0.038655
     14          6           0       -0.843707   -4.722338    0.046189
     15          8           0       -0.762686   -5.903573   -0.383938
     16          8           0        0.225839   -3.895974    0.304868
     17          7           0       -2.642552    2.206834    1.921666
     18          6           0       -2.014587    1.544859    2.887379
     19          6           0       -1.293941    2.485665    3.761823
     20          6           0       -1.396568    3.726243    3.119324
     21          6           0       -2.381397    3.500112    1.970376
     22          6           0       -0.591890    2.177503    5.057623
     23          6           0       -0.635760    5.025650    3.416990
     24          8           0        0.036576    5.008625    4.419869
     25          6           0       -0.592325    6.353280    2.526843
     26          7           0       -3.996514    3.094424   -0.674022
     27          6           0       -3.563283    4.280461   -0.215253
     28          6           0       -3.919090    5.446741   -1.193752
     29          6           0       -4.556590    4.694501   -2.389799
     30          6           0       -4.673695    3.252246   -1.894295
     31          6           0       -4.610085    6.659764   -0.705431
     32          6           0       -3.683798    4.830874   -3.722491
     33          6           0       -3.123752    6.162265   -4.133753
     34          7           0       -5.048635    0.439939   -0.952264
     35          6           0       -5.604427    0.924454   -2.150572
     36          6           0       -6.312801   -0.136539   -2.836966
     37          6           0       -6.140740   -1.253494   -2.059808
     38          6           0       -5.348670   -0.862082   -0.915846
     39          6           0       -7.048113    0.015716   -4.150425
     40          6           0       -6.511119   -2.598503   -1.870325
     41          8           0       -7.119499   -3.279917   -2.659888
     42          6           0       -5.743035   -3.130822   -0.654244
     43          6           0       -6.710223   -3.831108    0.249166
     44          8           0       -6.662737   -4.959220    0.704892
     45          8           0       -7.673284   -2.876906    0.463128
     46          6           0       -8.872104   -3.455745    1.038315
     47          6           0        1.509300   -4.487453   -0.109774
     48          6           0        2.650344   -3.500270   -0.451810
     49          6           0        3.252337   -3.261805   -1.684868
     50          6           0        2.707284   -3.912416   -3.004000
     51          6           0        4.591374   -2.574476   -1.794569
     52          6           0        4.439210   -1.102015   -2.143755
     53          6           0        5.868672   -0.499756   -2.405602
     54          6           0        6.183678    0.806805   -1.606840
     55          6           0        5.983817    2.097704   -2.478587
     56          6           0        7.590058    0.800419   -0.944530
     57          6           0        7.689897    0.050600    0.420854
     58          6           0        8.481847   -1.255855    0.334527
     59          6           0        9.826370   -1.201686    1.038944
     60          6           0        9.876808   -2.027701    2.313466
     61          6           0       10.973200   -1.475596    0.043819
     62          6           0       11.302248   -0.320712   -0.982330
     63          6           0       12.877788   -0.044813   -1.080128
     64          6           0       13.385343    1.072051   -0.112353
     65          6           0       13.624584    2.444575   -0.859522
     66          6           0       14.668334    0.579735    0.623390
     67          1           0       -1.396280   -0.301849    3.892441
     68          1           0       -2.507678    5.511462    1.016043
     69          1           0       -5.842075    2.640025   -3.481263
     70          1           0       -4.630576   -3.556027    2.467399
     71          1           0       -1.889862   -2.650364    3.202647
     72          1           0       -4.142492   -3.291218    4.678382
     73          1           0       -4.014133   -1.479993    4.743493
     74          1           0       -2.695454   -2.510076    5.224092
     75          1           0       -3.800185   -5.002345    1.013481
     76          1           0       -2.534383   -4.714095    2.201317
     77          1           0       -2.080932   -2.973389    0.007801
     78          1           0       -2.850218   -4.323108   -0.805701
     79          1           0        0.443698    1.924644    4.831016
     80          1           0       -1.192982    1.434765    5.583249
     81          1           0       -0.574458    3.084873    5.660120
     82          1           0       -1.513266    6.881215    2.778112
     83          1           0       -0.417120    6.185110    1.464095
     84          1           0        0.141003    6.995152    3.015124
     85          1           0       -2.926026    5.694823   -1.567909
     86          1           0       -5.545563    5.057211   -2.672517
     87          1           0       -3.948197    7.523985   -0.751806
     88          1           0       -4.891880    6.554866    0.341933
     89          1           0       -5.445943    6.811241   -1.388914
     90          1           0       -4.304825    4.569282   -4.580131
     91          1           0       -2.907546    4.071396   -3.631125
     92          1           0       -3.184818    6.407164   -5.193868
     93          1           0       -2.054518    6.205952   -3.925198
     94          1           0       -3.639922    6.986327   -3.640244
     95          1           0       -6.522043    0.855498   -4.605515
     96          1           0       -8.091089    0.288485   -3.988005
     97          1           0       -6.919768   -0.854116   -4.793530
     98          1           0       -5.103296   -3.961003   -0.955903
     99          1           0       -9.614509   -2.663164    1.128231
    100          1           0       -8.863574   -3.758502    2.085221
    101          1           0       -9.397472   -4.195767    0.433614
    102          1           0        1.382741   -5.244310   -0.884656
    103          1           0        1.783078   -5.007898    0.807420
    104          1           0        3.364870   -3.218416    0.321010
    105          1           0        1.630538   -3.880576   -3.172590
    106          1           0        2.878258   -4.980040   -2.863912
    107          1           0        3.249074   -3.533906   -3.871156
    108          1           0        5.178364   -3.106430   -2.543147
    109          1           0        5.095189   -2.616010   -0.828145
    110          1           0        3.857780   -0.611340   -1.363363
    111          1           0        3.814290   -0.815196   -2.989586
    112          1           0        5.995055   -0.353159   -3.478385
    113          1           0        6.567434   -1.307064   -2.186793
    114          1           0        5.401995    1.005057   -0.872079
    115          1           0        6.843400    2.169287   -3.145405
    116          1           0        6.064756    2.981778   -1.845025
    117          1           0        4.991575    2.069456   -2.930016
    118          1           0        7.805688    1.861865   -0.828073
    119          1           0        8.244776    0.409803   -1.723133
    120          1           0        6.682313   -0.204252    0.746675
    121          1           0        8.140215    0.736097    1.139609
    122          1           0        8.597400   -1.570382   -0.702504
    123          1           0        7.825492   -2.041027    0.708539
    124          1           0       10.123253   -0.252426    1.486620
    125          1           0        8.990061   -2.648951    2.433702
    126          1           0        9.895582   -1.441102    3.231529
    127          1           0       10.791890   -2.620169    2.331977
    128          1           0       10.906612   -2.440459   -0.457841
    129          1           0       11.888273   -1.490279    0.635686
    130          1           0       10.867284    0.650827   -0.748103
    131          1           0       10.922304   -0.558498   -1.975558
    132          1           0       12.995199    0.129142   -2.150076
    133          1           0       13.342956   -0.989031   -0.797852
    134          1           0       12.651990    1.286696    0.665818
    135          1           0       12.990602    2.476813   -1.746046
    136          1           0       14.692889    2.436140   -1.074665
    137          1           0       13.294042    3.328679   -0.315675
    138          1           0       15.360625    0.305591   -0.174042
    139          1           0       14.357750   -0.260652    1.244510
    140          1           0       15.106900    1.416486    1.165994
 ---------------------------------------------------------------------

 SCF Done:  E(RB-LYP) =  -3007.36486068     A.U. after   22 cycles

 Excitation energies and oscillator strengths:

 Excited State   1:      Singlet-A      1.8091 eV  685.34 nm  f=0.0288  <S**2>=0.000
     244 -> 247        0.65633
     245 -> 247       -0.16719
     246 -> 247       -0.19697
 This state for optimization and/or second-order correction.
 Total Energy, E(TD-HF/TD-DFT) =  -3007.29837802
 Copying the excited state density for this state as the 1-particle RhoCI density.

 Excited State   2:      Singlet-A      1.8272 eV  678.54 nm  f=0.2786  <S**2>=0.000
     244 -> 247        0.18000
     245 -> 247       -0.10172
     245 -> 248       -0.18743
     246 -> 247        0.65895
     246 <- 247       -0.13781

 Excited State   3:      Singlet-A      1.9948 eV  621.55 nm  f=0.0016  <S**2>=0.000
     243 -> 247        0.70372

 Excited State   4:      Singlet-A      2.0776 eV  596.77 nm  f=0.0863  <S**2>=0.000
     244 -> 247        0.18307
     245 -> 247        0.61997
     246 -> 248        0.25674

 Excited State   5:      Singlet-A      2.2369 eV  554.27 nm  f=0.0011  <S**2>=0.000
     242 -> 247        0.70507

 The electronic state is 1-A.
 Alpha  occ. eigenvalues --  -46.28514 -18.83175 -18.82122 -18.78144 -18.75945
 Alpha  occ. eigenvalues --  -18.75759 -18.74819 -14.03358 -14.03045 -14.01935
 Alpha  occ. eigenvalues --  -14.01502 -10.04537 -10.03707 -10.00585  -9.98476
 Alpha  occ. eigenvalues --   -9.97806  -9.97623  -9.97057  -9.96911  -9.96796
 Alpha  occ. eigenvalues --   -9.96615  -9.96399  -9.95978  -9.95940  -9.94542
 Alpha  occ. eigenvalues --   -9.94162  -9.94142  -9.94123  -9.94002  -9.93897
 Alpha  occ. eigenvalues --   -9.93872  -9.93741  -9.93719  -9.93272  -9.93206
 Alpha  occ. eigenvalues --   -9.93201  -9.93161  -9.93040  -9.92906  -9.92896
 Alpha  occ. eigenvalues --   -9.92864  -9.92744  -9.92706  -9.92675  -9.92647
 Alpha  occ. eigenvalues --   -9.92483  -9.92280  -9.92247  -9.92240  -9.92168
 Alpha  occ. eigenvalues --   -9.91906  -9.91865  -9.91836  -9.91509  -9.91352
 Alpha  occ. eigenvalues --   -9.91297  -9.91211  -9.91157  -9.91131  -9.91072
 Alpha  occ. eigenvalues --   -9.91020  -9.90981  -9.90949  -9.90699  -9.90411
 Alpha  occ. eigenvalues --   -9.90196  -2.93050  -1.73453  -1.72942  -1.72763
 Alpha  occ. eigenvalues --   -0.98902  -0.96636  -0.92818  -0.91668  -0.91238
 Alpha  occ. eigenvalues --   -0.87861  -0.87780  -0.87216  -0.86049  -0.85238
 Alpha  occ. eigenvalues --   -0.76142  -0.73605  -0.73463  -0.72900  -0.72865
 Alpha  occ. eigenvalues --   -0.71816  -0.71323  -0.70812  -0.70562  -0.70257
 Alpha  occ. eigenvalues --   -0.69692  -0.68529  -0.68194  -0.67850  -0.67112
 Alpha  occ. eigenvalues --   -0.66300  -0.65846  -0.64823  -0.64569  -0.64358
 Alpha  occ. eigenvalues --   -0.64081  -0.62533  -0.62433  -0.61693  -0.61138
 Alpha  occ. eigenvalues --   -0.60481  -0.60252  -0.59952  -0.59333  -0.58713
 Alpha  occ. eigenvalues --   -0.58431  -0.57902  -0.56879  -0.56131  -0.54908
 Alpha  occ. eigenvalues --   -0.54110  -0.53707  -0.52729  -0.52621  -0.51632
 Alpha  occ. eigenvalues --   -0.51586  -0.51196  -0.50971  -0.50602  -0.49563
 Alpha  occ. eigenvalues --   -0.49407  -0.49231  -0.48884  -0.48581  -0.46578
 Alpha  occ. eigenvalues --   -0.45911  -0.45833  -0.45485  -0.45316  -0.44134
 Alpha  occ. eigenvalues --   -0.43976  -0.43388  -0.43225  -0.42827  -0.42629
 Alpha  occ. eigenvalues --   -0.42269  -0.42104  -0.41868  -0.41752  -0.41288
 Alpha  occ. eigenvalues --   -0.40950  -0.40542  -0.40283  -0.40038  -0.39784
 Alpha  occ. eigenvalues --   -0.39598  -0.39554  -0.39451  -0.39317  -0.39116
 Alpha  occ. eigenvalues --   -0.38837  -0.38815  -0.38611  -0.38296  -0.38134
 Alpha  occ. eigenvalues --   -0.37843  -0.37820  -0.37700  -0.37584  -0.37160
 Alpha  occ. eigenvalues --   -0.37095  -0.36973  -0.36882  -0.36446  -0.36288
 Alpha  occ. eigenvalues --   -0.36098  -0.36016  -0.35984  -0.35879  -0.35641
 Alpha  occ. eigenvalues --   -0.35548  -0.35388  -0.35217  -0.35083  -0.34649
 Alpha  occ. eigenvalues --   -0.34633  -0.34482  -0.34376  -0.34252  -0.33996
 Alpha  occ. eigenvalues --   -0.33947  -0.33878  -0.33816  -0.33594  -0.33338
 Alpha  occ. eigenvalues --   -0.33155  -0.32897  -0.32783  -0.32592  -0.32503
 Alpha  occ. eigenvalues --   -0.32331  -0.32157  -0.31977  -0.31822  -0.31801
 Alpha  occ. eigenvalues --   -0.31705  -0.31612  -0.31389  -0.31122  -0.31032
 Alpha  occ. eigenvalues --   -0.30728  -0.30689  -0.30342  -0.30197  -0.29800
 Alpha  occ. eigenvalues --   -0.29461  -0.29271  -0.29136  -0.28936  -0.28879
 Alpha  occ. eigenvalues --   -0.28750  -0.28663  -0.27993  -0.27830  -0.27685
 Alpha  occ. eigenvalues --   -0.27452  -0.27211  -0.27145  -0.26859  -0.26597
 Alpha  occ. eigenvalues --   -0.26433  -0.26365  -0.26043  -0.25766  -0.25409
 Alpha  occ. eigenvalues --   -0.24964  -0.24585  -0.24110  -0.23835  -0.23829
 Alpha  occ. eigenvalues --   -0.23632  -0.23027  -0.21990  -0.21225  -0.21198
 Alpha  occ. eigenvalues --   -0.21014  -0.19810  -0.18839  -0.18193  -0.17370
 Alpha  occ. eigenvalues --   -0.15991
 Alpha virt. eigenvalues --   -0.11599  -0.06725  -0.06011  -0.04537  -0.04135
 Alpha virt. eigenvalues --   -0.03770  -0.03418  -0.02904  -0.01171   0.00041
 Alpha virt. eigenvalues --    0.01200   0.01506   0.02207   0.02407   0.02833

 Mulliken charges:
               1
     1  Mg   0.706999
     2  C    0.035896
     3  C   -0.060493
     4  C   -0.038730
     5  C   -0.074814
     6  N   -0.134785
     7  C   -0.157463
     8  C    0.134659
     9  C   -0.009802
    10  C   -0.006967
    11  C    0.103273
    12  C    0.069151
    13  C    0.127501
    14  C    0.112541
    15  O   -0.241385
    16  O   -0.264223
    17  N   -0.202195
    18  C    0.074796
    19  C   -0.174740
    20  C    0.030784
    21  C    0.091477
    22  C    0.202940
    23  C   -0.091293
    24  O   -0.154511
    25  C    0.137574
    26  N   -0.251367
    27  C   -0.039507
    28  C    0.046577
    29  C   -0.011590
    30  C    0.078319
    31  C    0.189789
    32  C    0.061082
    33  C    0.074270
    34  N   -0.276853
    35  C    0.089703
    36  C   -0.199453
    37  C    0.112079
    38  C    0.077334
    39  C    0.179844
    40  C   -0.072799
    41  O   -0.122270
    42  C    0.064230
    43  C    0.095596
    44  O   -0.149069
    45  O   -0.265446
    46  C    0.225965
    47  C    0.299718
    48  C   -0.047035
    49  C   -0.179215
    50  C    0.115766
    51  C    0.133388
    52  C    0.045918
    53  C    0.124322
    54  C   -0.085459
    55  C    0.086697
    56  C    0.082343
    57  C    0.110719
    58  C    0.128241
    59  C   -0.054404
    60  C    0.111492
    61  C    0.086623
    62  C    0.027673
    63  C    0.089936
    64  C   -0.090685
    65  C    0.095471
    66  C    0.089754
    67  H   -0.058899
    68  H   -0.077081
    69  H   -0.065824
    70  H   -0.021984
    71  H   -0.016966
    72  H    0.001859
    73  H   -0.003158
    74  H   -0.012535
    75  H    0.000902
    76  H   -0.016131
    77  H   -0.001343
    78  H    0.012183
    79  H    0.009667
    80  H   -0.007038
    81  H    0.004994
    82  H    0.006853
    83  H    0.028233
    84  H   -0.014423
    85  H   -0.023897
    86  H   -0.033134
    87  H   -0.013620
    88  H   -0.007785
    89  H   -0.009090
    90  H   -0.022362
    91  H   -0.016961
    92  H   -0.010938
    93  H   -0.006389
    94  H   -0.017352
    95  H   -0.018016
    96  H    0.010747
    97  H    0.010492
    98  H   -0.012358
    99  H   -0.011950
   100  H    0.005175
   101  H    0.021111
   102  H    0.002959
   103  H   -0.018061
   104  H   -0.041720
   105  H    0.009017
   106  H    0.011920
   107  H   -0.006133
   108  H   -0.017624
   109  H   -0.018538
   110  H   -0.029610
   111  H   -0.031432
   112  H   -0.034105
   113  H   -0.033778
   114  H   -0.035729
   115  H   -0.019660
   116  H   -0.019058
   117  H   -0.009637
   118  H   -0.049500
   119  H   -0.022895
   120  H   -0.034939
   121  H   -0.026331
   122  H   -0.029625
   123  H   -0.044507
   124  H   -0.037364
   125  H   -0.027166
   126  H   -0.023005
   127  H   -0.026842
   128  H   -0.026472
   129  H   -0.043233
   130  H   -0.024512
   131  H   -0.032411
   132  H   -0.030912
   133  H   -0.034835
   134  H   -0.030855
   135  H   -0.019045
   136  H   -0.010951
   137  H   -0.015693
   138  H   -0.008256
   139  H   -0.001571
   140  H   -0.014763
 Sum of Mulliken charges =  -0.00000

 Dipole moment (field-independent basis, Debye):
    X=              0.3145    Y=              5.9400    Z=              0.1155  Tot=              5.9494
 Quadrupole moment (field-independent basis, Debye-Ang):
   XX=           -392.5807   YY=           -427.3513   ZZ=           -404.1674
   XY=            -40.5463   XZ=            -21.7158   YZ=            -30.6613

 Normal termination of Gaussian 16 at Thu May  5 15:32:38 2022.
