 Gaussian 16, Revision A.03,
 Gaussian 16:  ES64L-G16RevA.03 25-Dec-2016

 -----------------------------------
 #p cam-b3lyp/Def2SVP td=(nstates=5)
 -----------------------------------

 -------------------------------------------------------
 step_951_chromophore_26 TDDFT with cam-b3lyp functional
 -------------------------------------------------------
 Symbolic Z-matrix:
 Charge =  0 Multiplicity = 1

                         Standard orientation:
 ---------------------------------------------------------------------
 Center     Atomic      Atomic             Coordinates (Angstroms)
 Number     Number       Type             X           Y           Z
 ---------------------------------------------------------------------
      1         12           0       -4.058987    1.385987    0.553444
      2          6           0       -4.966227   -1.960894   -0.137955
      3          6           0       -2.062363    0.068903    3.109555
      4          6           0       -2.884689    4.486892    1.015023
      5          6           0       -5.372322    2.320057   -2.548384
      6          7           0       -3.555934   -0.777723    1.430704
      7          6           0       -4.167911   -1.961652    1.045197
      8          6           0       -3.728895   -3.135733    2.020501
      9          6           0       -2.921920   -2.342270    3.037614
     10          6           0       -2.844380   -0.952293    2.487541
     11          6           0       -3.512120   -2.418349    4.508103
     12          6           0       -3.077857   -4.266872    1.367950
     13          6           0       -2.214525   -4.055001    0.038655
     14          6           0       -0.843707   -4.722338    0.046189
     15          8           0       -0.762686   -5.903573   -0.383938
     16          8           0        0.225839   -3.895974    0.304868
     17          7           0       -2.642552    2.206834    1.921666
     18          6           0       -2.014587    1.544859    2.887379
     19          6           0       -1.293941    2.485665    3.761823
     20          6           0       -1.396568    3.726243    3.119324
     21          6           0       -2.381397    3.500112    1.970376
     22          6           0       -0.591890    2.177503    5.057623
     23          6           0       -0.635760    5.025650    3.416990
     24          8           0        0.036576    5.008625    4.419869
     25          6           0       -0.592325    6.353280    2.526843
     26          7           0       -3.996514    3.094424   -0.674022
     27          6           0       -3.563283    4.280461   -0.215253
     28          6           0       -3.919090    5.446741   -1.193752
     29          6           0       -4.556590    4.694501   -2.389799
     30          6           0       -4.673695    3.252246   -1.894295
     31          6           0       -4.610085    6.659764   -0.705431
     32          6           0       -3.683798    4.830874   -3.722491
     33          6           0       -3.123752    6.162265   -4.133753
     34          7           0       -5.048635    0.439939   -0.952264
     35          6           0       -5.604427    0.924454   -2.150572
     36          6           0       -6.312801   -0.136539   -2.836966
     37          6           0       -6.140740   -1.253494   -2.059808
     38          6           0       -5.348670   -0.862082   -0.915846
     39          6           0       -7.048113    0.015716   -4.150425
     40          6           0       -6.511119   -2.598503   -1.870325
     41          8           0       -7.119499   -3.279917   -2.659888
     42          6           0       -5.743035   -3.130822   -0.654244
     43          6           0       -6.710223   -3.831108    0.249166
     44          8           0       -6.662737   -4.959220    0.704892
     45          8           0       -7.673284   -2.876906    0.463128
     46          6           0       -8.872104   -3.455745    1.038315
     47          6           0        1.509300   -4.487453   -0.109774
     48          6           0        2.650344   -3.500270   -0.451810
     49          6           0        3.252337   -3.261805   -1.684868
     50          6           0        2.707284   -3.912416   -3.004000
     51          6           0        4.591374   -2.574476   -1.794569
     52          6           0        4.439210   -1.102015   -2.143755
     53          6           0        5.868672   -0.499756   -2.405602
     54          6           0        6.183678    0.806805   -1.606840
     55          6           0        5.983817    2.097704   -2.478587
     56          6           0        7.590058    0.800419   -0.944530
     57          6           0        7.689897    0.050600    0.420854
     58          6           0        8.481847   -1.255855    0.334527
     59          6           0        9.826370   -1.201686    1.038944
     60          6           0        9.876808   -2.027701    2.313466
     61          6           0       10.973200   -1.475596    0.043819
     62          6           0       11.302248   -0.320712   -0.982330
     63          6           0       12.877788   -0.044813   -1.080128
     64          6           0       13.385343    1.072051   -0.112353
     65          6           0       13.624584    2.444575   -0.859522
     66          6           0       14.668334    0.579735    0.623390
     67          1           0       -1.396280   -0.301849    3.892441
     68          1           0       -2.507678    5.511462    1.016043
     69          1           0       -5.842075    2.640025   -3.481263
     70          1           0       -4.630576   -3.556027    2.467399
     71          1           0       -1.889862   -2.650364    3.202647
     72          1           0       -4.142492   -3.291218    4.678382
     73          1           0       -4.014133   -1.479993    4.743493
     74          1           0       -2.695454   -2.510076    5.224092
     75          1           0       -3.800185   -5.002345    1.013481
     76          1           0       -2.534383   -4.714095    2.201317
     77          1           0       -2.080932   -2.973389    0.007801
     78          1           0       -2.850218   -4.323108   -0.805701
     79          1           0        0.443698    1.924644    4.831016
     80          1           0       -1.192982    1.434765    5.583249
     81          1           0       -0.574458    3.084873    5.660120
     82          1           0       -1.513266    6.881215    2.778112
     83          1           0       -0.417120    6.185110    1.464095
     84          1           0        0.141003    6.995152    3.015124
     85          1           0       -2.926026    5.694823   -1.567909
     86          1           0       -5.545563    5.057211   -2.672517
     87          1           0       -3.948197    7.523985   -0.751806
     88          1           0       -4.891880    6.554866    0.341933
     89          1           0       -5.445943    6.811241   -1.388914
     90          1           0       -4.304825    4.569282   -4.580131
     91          1           0       -2.907546    4.071396   -3.631125
     92          1           0       -3.184818    6.407164   -5.193868
     93          1           0       -2.054518    6.205952   -3.925198
     94          1           0       -3.639922    6.986327   -3.640244
     95          1           0       -6.522043    0.855498   -4.605515
     96          1           0       -8.091089    0.288485   -3.988005
     97          1           0       -6.919768   -0.854116   -4.793530
     98          1           0       -5.103296   -3.961003   -0.955903
     99          1           0       -9.614509   -2.663164    1.128231
    100          1           0       -8.863574   -3.758502    2.085221
    101          1           0       -9.397472   -4.195767    0.433614
    102          1           0        1.382741   -5.244310   -0.884656
    103          1           0        1.783078   -5.007898    0.807420
    104          1           0        3.364870   -3.218416    0.321010
    105          1           0        1.630538   -3.880576   -3.172590
    106          1           0        2.878258   -4.980040   -2.863912
    107          1           0        3.249074   -3.533906   -3.871156
    108          1           0        5.178364   -3.106430   -2.543147
    109          1           0        5.095189   -2.616010   -0.828145
    110          1           0        3.857780   -0.611340   -1.363363
    111          1           0        3.814290   -0.815196   -2.989586
    112          1           0        5.995055   -0.353159   -3.478385
    113          1           0        6.567434   -1.307064   -2.186793
    114          1           0        5.401995    1.005057   -0.872079
    115          1           0        6.843400    2.169287   -3.145405
    116          1           0        6.064756    2.981778   -1.845025
    117          1           0        4.991575    2.069456   -2.930016
    118          1           0        7.805688    1.861865   -0.828073
    119          1           0        8.244776    0.409803   -1.723133
    120          1           0        6.682313   -0.204252    0.746675
    121          1           0        8.140215    0.736097    1.139609
    122          1           0        8.597400   -1.570382   -0.702504
    123          1           0        7.825492   -2.041027    0.708539
    124          1           0       10.123253   -0.252426    1.486620
    125          1           0        8.990061   -2.648951    2.433702
    126          1           0        9.895582   -1.441102    3.231529
    127          1           0       10.791890   -2.620169    2.331977
    128          1           0       10.906612   -2.440459   -0.457841
    129          1           0       11.888273   -1.490279    0.635686
    130          1           0       10.867284    0.650827   -0.748103
    131          1           0       10.922304   -0.558498   -1.975558
    132          1           0       12.995199    0.129142   -2.150076
    133          1           0       13.342956   -0.989031   -0.797852
    134          1           0       12.651990    1.286696    0.665818
    135          1           0       12.990602    2.476813   -1.746046
    136          1           0       14.692889    2.436140   -1.074665
    137          1           0       13.294042    3.328679   -0.315675
    138          1           0       15.360625    0.305591   -0.174042
    139          1           0       14.357750   -0.260652    1.244510
    140          1           0       15.106900    1.416486    1.165994
 ---------------------------------------------------------------------

 SCF Done:  E(RCAM-B3LYP) =  -3007.15686888     A.U. after   17 cycles

 Excitation energies and oscillator strengths:

 Excited State   1:      Singlet-A      1.7872 eV  693.73 nm  f=0.3713  <S**2>=0.000
     245 -> 248        0.17160
     246 -> 247        0.68756
     245 <- 248        0.10076
 This state for optimization and/or second-order correction.
 Total Energy, E(TD-HF/TD-DFT) =  -3007.09119018
 Copying the excited state density for this state as the 1-particle RhoCI density.

 Excited State   2:      Singlet-A      2.3161 eV  535.31 nm  f=0.1161  <S**2>=0.000
     245 -> 247        0.64375
     246 -> 248       -0.28282

 Excited State   3:      Singlet-A      3.5539 eV  348.87 nm  f=0.0043  <S**2>=0.000
     240 -> 247       -0.14263
     241 -> 247        0.24698
     242 -> 247        0.14019
     242 -> 249        0.12015
     242 -> 251       -0.14527
     244 -> 247        0.50110
     244 -> 249        0.16885
     244 -> 251       -0.16271

 Excited State   4:      Singlet-A      3.5646 eV  347.82 nm  f=0.1126  <S**2>=0.000
     240 -> 247       -0.21498
     240 -> 249        0.13344
     241 -> 247        0.43122
     242 -> 247       -0.20080
     244 -> 247       -0.17455
     245 -> 247        0.10865
     246 -> 248        0.31881

 Excited State   5:      Singlet-A      3.5934 eV  345.03 nm  f=0.1250  <S**2>=0.000
     239 -> 247        0.29802
     239 -> 249       -0.13720
     240 -> 247        0.41418
     240 -> 249       -0.23913
     240 -> 251       -0.12991
     245 -> 247        0.11328
     246 -> 248        0.28927

 The electronic state is 1-A.
 Alpha  occ. eigenvalues --  -46.90180 -19.25964 -19.25005 -19.21153 -19.19582
 Alpha  occ. eigenvalues --  -19.18697 -19.17560 -14.42395 -14.41656 -14.40729
 Alpha  occ. eigenvalues --  -14.39738 -10.39843 -10.39073 -10.36184 -10.33296
 Alpha  occ. eigenvalues --  -10.32209 -10.32001 -10.31946 -10.31730 -10.31424
 Alpha  occ. eigenvalues --  -10.31162 -10.30997 -10.29904 -10.29626 -10.29189
 Alpha  occ. eigenvalues --  -10.28474 -10.28448 -10.28380 -10.28280 -10.28075
 Alpha  occ. eigenvalues --  -10.28003 -10.27970 -10.27821 -10.27746 -10.27435
 Alpha  occ. eigenvalues --  -10.27369 -10.27265 -10.27080 -10.26873 -10.26745
 Alpha  occ. eigenvalues --  -10.26508 -10.26496 -10.26431 -10.26409 -10.26380
 Alpha  occ. eigenvalues --  -10.26149 -10.26143 -10.26112 -10.26012 -10.25834
 Alpha  occ. eigenvalues --  -10.25590 -10.25520 -10.25502 -10.25200 -10.25048
 Alpha  occ. eigenvalues --  -10.25025 -10.24950 -10.24864 -10.24787 -10.24697
 Alpha  occ. eigenvalues --  -10.24651 -10.24644 -10.24617 -10.24341 -10.24006
 Alpha  occ. eigenvalues --  -10.23696  -3.18612  -1.93492  -1.93061  -1.92917
 Alpha  occ. eigenvalues --   -1.17312  -1.15002  -1.11673  -1.09708  -1.09090
 Alpha  occ. eigenvalues --   -1.05879  -1.05681  -1.05196  -1.03414  -1.02584
 Alpha  occ. eigenvalues --   -0.93079  -0.90437  -0.90303  -0.89665  -0.89541
 Alpha  occ. eigenvalues --   -0.88513  -0.88000  -0.87431  -0.87151  -0.87086
 Alpha  occ. eigenvalues --   -0.86115  -0.84997  -0.84258  -0.84080  -0.83213
 Alpha  occ. eigenvalues --   -0.82307  -0.81829  -0.80875  -0.80635  -0.80287
 Alpha  occ. eigenvalues --   -0.79809  -0.78087  -0.77929  -0.77632  -0.76521
 Alpha  occ. eigenvalues --   -0.75820  -0.75584  -0.75305  -0.74624  -0.73949
 Alpha  occ. eigenvalues --   -0.73439  -0.72901  -0.71793  -0.70969  -0.69408
 Alpha  occ. eigenvalues --   -0.68535  -0.68212  -0.67683  -0.67067  -0.65908
 Alpha  occ. eigenvalues --   -0.65624  -0.65160  -0.65005  -0.64518  -0.63359
 Alpha  occ. eigenvalues --   -0.63257  -0.63105  -0.62743  -0.62509  -0.60192
 Alpha  occ. eigenvalues --   -0.59525  -0.59495  -0.59134  -0.58714  -0.57581
 Alpha  occ. eigenvalues --   -0.57353  -0.56750  -0.56481  -0.56090  -0.55797
 Alpha  occ. eigenvalues --   -0.55490  -0.55256  -0.54811  -0.54665  -0.53996
 Alpha  occ. eigenvalues --   -0.53704  -0.53368  -0.52972  -0.52961  -0.52547
 Alpha  occ. eigenvalues --   -0.52481  -0.52219  -0.52017  -0.51990  -0.51773
 Alpha  occ. eigenvalues --   -0.51548  -0.51342  -0.51119  -0.50564  -0.50507
 Alpha  occ. eigenvalues --   -0.50391  -0.50067  -0.49988  -0.49786  -0.49515
 Alpha  occ. eigenvalues --   -0.49388  -0.49296  -0.49118  -0.49026  -0.48754
 Alpha  occ. eigenvalues --   -0.48530  -0.48338  -0.48237  -0.48008  -0.47823
 Alpha  occ. eigenvalues --   -0.47584  -0.47391  -0.47258  -0.47135  -0.47017
 Alpha  occ. eigenvalues --   -0.46590  -0.46476  -0.46278  -0.46001  -0.45851
 Alpha  occ. eigenvalues --   -0.45696  -0.45579  -0.45502  -0.45297  -0.45133
 Alpha  occ. eigenvalues --   -0.44833  -0.44696  -0.44562  -0.44362  -0.44162
 Alpha  occ. eigenvalues --   -0.43956  -0.43695  -0.43564  -0.43331  -0.43269
 Alpha  occ. eigenvalues --   -0.43205  -0.43037  -0.42972  -0.42771  -0.42760
 Alpha  occ. eigenvalues --   -0.42389  -0.42020  -0.41961  -0.41417  -0.41243
 Alpha  occ. eigenvalues --   -0.40740  -0.40414  -0.40328  -0.40069  -0.39826
 Alpha  occ. eigenvalues --   -0.39749  -0.39659  -0.38895  -0.38787  -0.38515
 Alpha  occ. eigenvalues --   -0.38318  -0.38285  -0.37953  -0.37830  -0.37667
 Alpha  occ. eigenvalues --   -0.37647  -0.37100  -0.37090  -0.36436  -0.36180
 Alpha  occ. eigenvalues --   -0.35677  -0.35309  -0.35279  -0.35032  -0.34690
 Alpha  occ. eigenvalues --   -0.34276  -0.32959  -0.32593  -0.31548  -0.31279
 Alpha  occ. eigenvalues --   -0.31002  -0.30261  -0.29828  -0.29782  -0.24231
 Alpha  occ. eigenvalues --   -0.21398
 Alpha virt. eigenvalues --   -0.08612  -0.01524   0.00560   0.01232   0.02579
 Alpha virt. eigenvalues --    0.03247   0.04636   0.04845   0.05543   0.07086
 Alpha virt. eigenvalues --    0.07583   0.08351   0.08479   0.09002   0.09024

 Mulliken charges:
               1
     1  Mg   0.838296
     2  C    0.018007
     3  C   -0.069097
     4  C   -0.071172
     5  C   -0.079127
     6  N   -0.198407
     7  C   -0.131850
     8  C    0.090460
     9  C   -0.071547
    10  C    0.016276
    11  C    0.049024
    12  C    0.016511
    13  C    0.060387
    14  C    0.194110
    15  O   -0.283148
    16  O   -0.328415
    17  N   -0.295417
    18  C    0.090430
    19  C   -0.173552
    20  C   -0.036767
    21  C    0.131613
    22  C    0.143759
    23  C   -0.019777
    24  O   -0.193846
    25  C    0.061501
    26  N   -0.330695
    27  C    0.005280
    28  C   -0.021493
    29  C   -0.057931
    30  C    0.088834
    31  C    0.122111
    32  C    0.011137
    33  C    0.007882
    34  N   -0.364543
    35  C    0.086492
    36  C   -0.201475
    37  C    0.038482
    38  C    0.107535
    39  C    0.134147
    40  C    0.022770
    41  O   -0.163856
    42  C   -0.014961
    43  C    0.183536
    44  O   -0.189604
    45  O   -0.325814
    46  C    0.182591
    47  C    0.265833
    48  C   -0.071687
    49  C   -0.191263
    50  C    0.053396
    51  C    0.067015
    52  C   -0.001767
    53  C    0.067136
    54  C   -0.138351
    55  C    0.033086
    56  C    0.029540
    57  C    0.055196
    58  C    0.071416
    59  C   -0.112169
    60  C    0.055043
    61  C    0.035631
    62  C   -0.018903
    63  C    0.032035
    64  C   -0.149040
    65  C    0.038197
    66  C    0.032642
    67  H   -0.020766
    68  H   -0.044544
    69  H   -0.031629
    70  H    0.014517
    71  H    0.018576
    72  H    0.027601
    73  H    0.022178
    74  H    0.011472
    75  H    0.032899
    76  H    0.013191
    77  H    0.032294
    78  H    0.043118
    79  H    0.039621
    80  H    0.019600
    81  H    0.038098
    82  H    0.035502
    83  H    0.055284
    84  H    0.023007
    85  H    0.012276
    86  H    0.001790
    87  H    0.011122
    88  H    0.019310
    89  H    0.017015
    90  H    0.005680
    91  H    0.012258
    92  H    0.015387
    93  H    0.015978
    94  H    0.004348
    95  H    0.002533
    96  H    0.034318
    97  H    0.035417
    98  H    0.026932
    99  H    0.013503
   100  H    0.027845
   101  H    0.043822
   102  H    0.034860
   103  H    0.012006
   104  H   -0.011509
   105  H    0.034377
   106  H    0.035099
   107  H    0.018610
   108  H    0.011819
   109  H    0.008615
   110  H   -0.000849
   111  H   -0.002687
   112  H   -0.004126
   113  H   -0.007272
   114  H   -0.005299
   115  H    0.003389
   116  H    0.004975
   117  H    0.013790
   118  H   -0.018688
   119  H    0.001081
   120  H   -0.006450
   121  H    0.002462
   122  H   -0.003181
   123  H   -0.014973
   124  H   -0.006633
   125  H   -0.002651
   126  H    0.001775
   127  H   -0.001145
   128  H    0.002009
   129  H   -0.018111
   130  H    0.000294
   131  H   -0.004280
   132  H   -0.000906
   133  H   -0.005192
   134  H   -0.001139
   135  H    0.004359
   136  H    0.011559
   137  H    0.008912
   138  H    0.013612
   139  H    0.019945
   140  H    0.010326
 Sum of Mulliken charges =  -0.00000

 Dipole moment (field-independent basis, Debye):
    X=              1.0239    Y=              6.7973    Z=              1.1685  Tot=              6.9726
 Quadrupole moment (field-independent basis, Debye-Ang):
   XX=           -397.5908   YY=           -423.5675   ZZ=           -401.4945
   XY=            -42.1186   XZ=            -25.1813   YZ=            -30.1080

 Normal termination of Gaussian 16 at Thu May  5 14:30:45 2022.
