 Gaussian 16, Revision A.03,
 Gaussian 16:  ES64L-G16RevA.03 25-Dec-2016

 ---------------------------------
 #p PBE1PBE/Def2SVP td=(nstates=5)
 ---------------------------------

 -----------------------------------------------------
 step_951_chromophore_26 TDDFT with PBE1PBE functional
 -----------------------------------------------------
 Symbolic Z-matrix:
 Charge =  0 Multiplicity = 1

                         Standard orientation:
 ---------------------------------------------------------------------
 Center     Atomic      Atomic             Coordinates (Angstroms)
 Number     Number       Type             X           Y           Z
 ---------------------------------------------------------------------
      1         12           0       -4.058987    1.385987    0.553444
      2          6           0       -4.966227   -1.960894   -0.137955
      3          6           0       -2.062363    0.068903    3.109555
      4          6           0       -2.884689    4.486892    1.015023
      5          6           0       -5.372322    2.320057   -2.548384
      6          7           0       -3.555934   -0.777723    1.430704
      7          6           0       -4.167911   -1.961652    1.045197
      8          6           0       -3.728895   -3.135733    2.020501
      9          6           0       -2.921920   -2.342270    3.037614
     10          6           0       -2.844380   -0.952293    2.487541
     11          6           0       -3.512120   -2.418349    4.508103
     12          6           0       -3.077857   -4.266872    1.367950
     13          6           0       -2.214525   -4.055001    0.038655
     14          6           0       -0.843707   -4.722338    0.046189
     15          8           0       -0.762686   -5.903573   -0.383938
     16          8           0        0.225839   -3.895974    0.304868
     17          7           0       -2.642552    2.206834    1.921666
     18          6           0       -2.014587    1.544859    2.887379
     19          6           0       -1.293941    2.485665    3.761823
     20          6           0       -1.396568    3.726243    3.119324
     21          6           0       -2.381397    3.500112    1.970376
     22          6           0       -0.591890    2.177503    5.057623
     23          6           0       -0.635760    5.025650    3.416990
     24          8           0        0.036576    5.008625    4.419869
     25          6           0       -0.592325    6.353280    2.526843
     26          7           0       -3.996514    3.094424   -0.674022
     27          6           0       -3.563283    4.280461   -0.215253
     28          6           0       -3.919090    5.446741   -1.193752
     29          6           0       -4.556590    4.694501   -2.389799
     30          6           0       -4.673695    3.252246   -1.894295
     31          6           0       -4.610085    6.659764   -0.705431
     32          6           0       -3.683798    4.830874   -3.722491
     33          6           0       -3.123752    6.162265   -4.133753
     34          7           0       -5.048635    0.439939   -0.952264
     35          6           0       -5.604427    0.924454   -2.150572
     36          6           0       -6.312801   -0.136539   -2.836966
     37          6           0       -6.140740   -1.253494   -2.059808
     38          6           0       -5.348670   -0.862082   -0.915846
     39          6           0       -7.048113    0.015716   -4.150425
     40          6           0       -6.511119   -2.598503   -1.870325
     41          8           0       -7.119499   -3.279917   -2.659888
     42          6           0       -5.743035   -3.130822   -0.654244
     43          6           0       -6.710223   -3.831108    0.249166
     44          8           0       -6.662737   -4.959220    0.704892
     45          8           0       -7.673284   -2.876906    0.463128
     46          6           0       -8.872104   -3.455745    1.038315
     47          6           0        1.509300   -4.487453   -0.109774
     48          6           0        2.650344   -3.500270   -0.451810
     49          6           0        3.252337   -3.261805   -1.684868
     50          6           0        2.707284   -3.912416   -3.004000
     51          6           0        4.591374   -2.574476   -1.794569
     52          6           0        4.439210   -1.102015   -2.143755
     53          6           0        5.868672   -0.499756   -2.405602
     54          6           0        6.183678    0.806805   -1.606840
     55          6           0        5.983817    2.097704   -2.478587
     56          6           0        7.590058    0.800419   -0.944530
     57          6           0        7.689897    0.050600    0.420854
     58          6           0        8.481847   -1.255855    0.334527
     59          6           0        9.826370   -1.201686    1.038944
     60          6           0        9.876808   -2.027701    2.313466
     61          6           0       10.973200   -1.475596    0.043819
     62          6           0       11.302248   -0.320712   -0.982330
     63          6           0       12.877788   -0.044813   -1.080128
     64          6           0       13.385343    1.072051   -0.112353
     65          6           0       13.624584    2.444575   -0.859522
     66          6           0       14.668334    0.579735    0.623390
     67          1           0       -1.396280   -0.301849    3.892441
     68          1           0       -2.507678    5.511462    1.016043
     69          1           0       -5.842075    2.640025   -3.481263
     70          1           0       -4.630576   -3.556027    2.467399
     71          1           0       -1.889862   -2.650364    3.202647
     72          1           0       -4.142492   -3.291218    4.678382
     73          1           0       -4.014133   -1.479993    4.743493
     74          1           0       -2.695454   -2.510076    5.224092
     75          1           0       -3.800185   -5.002345    1.013481
     76          1           0       -2.534383   -4.714095    2.201317
     77          1           0       -2.080932   -2.973389    0.007801
     78          1           0       -2.850218   -4.323108   -0.805701
     79          1           0        0.443698    1.924644    4.831016
     80          1           0       -1.192982    1.434765    5.583249
     81          1           0       -0.574458    3.084873    5.660120
     82          1           0       -1.513266    6.881215    2.778112
     83          1           0       -0.417120    6.185110    1.464095
     84          1           0        0.141003    6.995152    3.015124
     85          1           0       -2.926026    5.694823   -1.567909
     86          1           0       -5.545563    5.057211   -2.672517
     87          1           0       -3.948197    7.523985   -0.751806
     88          1           0       -4.891880    6.554866    0.341933
     89          1           0       -5.445943    6.811241   -1.388914
     90          1           0       -4.304825    4.569282   -4.580131
     91          1           0       -2.907546    4.071396   -3.631125
     92          1           0       -3.184818    6.407164   -5.193868
     93          1           0       -2.054518    6.205952   -3.925198
     94          1           0       -3.639922    6.986327   -3.640244
     95          1           0       -6.522043    0.855498   -4.605515
     96          1           0       -8.091089    0.288485   -3.988005
     97          1           0       -6.919768   -0.854116   -4.793530
     98          1           0       -5.103296   -3.961003   -0.955903
     99          1           0       -9.614509   -2.663164    1.128231
    100          1           0       -8.863574   -3.758502    2.085221
    101          1           0       -9.397472   -4.195767    0.433614
    102          1           0        1.382741   -5.244310   -0.884656
    103          1           0        1.783078   -5.007898    0.807420
    104          1           0        3.364870   -3.218416    0.321010
    105          1           0        1.630538   -3.880576   -3.172590
    106          1           0        2.878258   -4.980040   -2.863912
    107          1           0        3.249074   -3.533906   -3.871156
    108          1           0        5.178364   -3.106430   -2.543147
    109          1           0        5.095189   -2.616010   -0.828145
    110          1           0        3.857780   -0.611340   -1.363363
    111          1           0        3.814290   -0.815196   -2.989586
    112          1           0        5.995055   -0.353159   -3.478385
    113          1           0        6.567434   -1.307064   -2.186793
    114          1           0        5.401995    1.005057   -0.872079
    115          1           0        6.843400    2.169287   -3.145405
    116          1           0        6.064756    2.981778   -1.845025
    117          1           0        4.991575    2.069456   -2.930016
    118          1           0        7.805688    1.861865   -0.828073
    119          1           0        8.244776    0.409803   -1.723133
    120          1           0        6.682313   -0.204252    0.746675
    121          1           0        8.140215    0.736097    1.139609
    122          1           0        8.597400   -1.570382   -0.702504
    123          1           0        7.825492   -2.041027    0.708539
    124          1           0       10.123253   -0.252426    1.486620
    125          1           0        8.990061   -2.648951    2.433702
    126          1           0        9.895582   -1.441102    3.231529
    127          1           0       10.791890   -2.620169    2.331977
    128          1           0       10.906612   -2.440459   -0.457841
    129          1           0       11.888273   -1.490279    0.635686
    130          1           0       10.867284    0.650827   -0.748103
    131          1           0       10.922304   -0.558498   -1.975558
    132          1           0       12.995199    0.129142   -2.150076
    133          1           0       13.342956   -0.989031   -0.797852
    134          1           0       12.651990    1.286696    0.665818
    135          1           0       12.990602    2.476813   -1.746046
    136          1           0       14.692889    2.436140   -1.074665
    137          1           0       13.294042    3.328679   -0.315675
    138          1           0       15.360625    0.305591   -0.174042
    139          1           0       14.357750   -0.260652    1.244510
    140          1           0       15.106900    1.416486    1.165994
 ---------------------------------------------------------------------

 SCF Done:  E(RPBE1PBE) =  -3005.34459557     A.U. after   15 cycles

 Excitation energies and oscillator strengths:

 Excited State   1:      Singlet-A      1.8853 eV  657.62 nm  f=0.3606  <S**2>=0.000
     245 -> 248        0.17199
     246 -> 247        0.69305
     246 <- 247       -0.10082
 This state for optimization and/or second-order correction.
 Total Energy, E(TD-HF/TD-DFT) =  -3005.27531078
 Copying the excited state density for this state as the 1-particle RhoCI density.

 Excited State   2:      Singlet-A      2.2955 eV  540.13 nm  f=0.1136  <S**2>=0.000
     245 -> 247        0.65328
     246 -> 248       -0.26536

 Excited State   3:      Singlet-A      2.9384 eV  421.95 nm  f=0.0005  <S**2>=0.000
     244 -> 247        0.67789
     244 -> 249       -0.13622

 Excited State   4:      Singlet-A      3.0824 eV  402.23 nm  f=0.0001  <S**2>=0.000
     242 -> 247        0.66761
     242 -> 249        0.16708

 Excited State   5:      Singlet-A      3.2700 eV  379.15 nm  f=0.0014  <S**2>=0.000
     240 -> 247       -0.41325
     241 -> 247        0.54839
     242 -> 247        0.11803

 The electronic state is 1-A.
 Alpha  occ. eigenvalues --  -46.93554 -19.26691 -19.25681 -19.21465 -19.19508
 Alpha  occ. eigenvalues --  -19.19040 -19.18084 -14.41744 -14.41316 -14.40096
 Alpha  occ. eigenvalues --  -14.39558 -10.36944 -10.36145 -10.33107 -10.30691
 Alpha  occ. eigenvalues --  -10.29428 -10.29378 -10.29320 -10.29063 -10.28950
 Alpha  occ. eigenvalues --  -10.28694 -10.28549 -10.27887 -10.27853 -10.26362
 Alpha  occ. eigenvalues --  -10.26360 -10.26264 -10.26114 -10.25885 -10.25790
 Alpha  occ. eigenvalues --  -10.25748 -10.25657 -10.25469 -10.25363 -10.25166
 Alpha  occ. eigenvalues --  -10.25027 -10.24989 -10.24618 -10.24488 -10.24253
 Alpha  occ. eigenvalues --  -10.24213 -10.24144 -10.24138 -10.23958 -10.23801
 Alpha  occ. eigenvalues --  -10.23707 -10.23676 -10.23510 -10.23293 -10.23274
 Alpha  occ. eigenvalues --  -10.23273 -10.23238 -10.23033 -10.22756 -10.22682
 Alpha  occ. eigenvalues --  -10.22589 -10.22526 -10.22411 -10.22278 -10.22176
 Alpha  occ. eigenvalues --  -10.22078 -10.22026 -10.21991 -10.21859 -10.21783
 Alpha  occ. eigenvalues --  -10.21364  -3.15569  -1.88388  -1.87938  -1.87795
 Alpha  occ. eigenvalues --   -1.12153  -1.09817  -1.06158  -1.04732  -1.04008
 Alpha  occ. eigenvalues --   -1.00545  -1.00298  -0.99685  -0.98232  -0.97374
 Alpha  occ. eigenvalues --   -0.87600  -0.84685  -0.84397  -0.83831  -0.83737
 Alpha  occ. eigenvalues --   -0.82799  -0.82065  -0.81715  -0.81259  -0.81226
 Alpha  occ. eigenvalues --   -0.80539  -0.79154  -0.78571  -0.78284  -0.77465
 Alpha  occ. eigenvalues --   -0.76497  -0.76067  -0.74892  -0.74826  -0.74500
 Alpha  occ. eigenvalues --   -0.74073  -0.72373  -0.72264  -0.71684  -0.70868
 Alpha  occ. eigenvalues --   -0.70009  -0.69879  -0.69374  -0.68743  -0.68093
 Alpha  occ. eigenvalues --   -0.67894  -0.67265  -0.66137  -0.65337  -0.63826
 Alpha  occ. eigenvalues --   -0.63184  -0.62427  -0.61899  -0.61257  -0.60196
 Alpha  occ. eigenvalues --   -0.60054  -0.59649  -0.59449  -0.59061  -0.57861
 Alpha  occ. eigenvalues --   -0.57600  -0.57377  -0.57019  -0.56667  -0.54746
 Alpha  occ. eigenvalues --   -0.54046  -0.53896  -0.53570  -0.53258  -0.52118
 Alpha  occ. eigenvalues --   -0.51948  -0.51229  -0.50939  -0.50701  -0.50247
 Alpha  occ. eigenvalues --   -0.50126  -0.49724  -0.49319  -0.49278  -0.48449
 Alpha  occ. eigenvalues --   -0.48184  -0.47812  -0.47645  -0.47397  -0.47072
 Alpha  occ. eigenvalues --   -0.46846  -0.46716  -0.46531  -0.46420  -0.46193
 Alpha  occ. eigenvalues --   -0.46122  -0.45982  -0.45689  -0.45247  -0.44981
 Alpha  occ. eigenvalues --   -0.44846  -0.44593  -0.44532  -0.44395  -0.44073
 Alpha  occ. eigenvalues --   -0.44044  -0.43867  -0.43720  -0.43547  -0.43456
 Alpha  occ. eigenvalues --   -0.43063  -0.42799  -0.42765  -0.42621  -0.42499
 Alpha  occ. eigenvalues --   -0.42273  -0.42083  -0.41943  -0.41709  -0.41484
 Alpha  occ. eigenvalues --   -0.41241  -0.41172  -0.40999  -0.40755  -0.40505
 Alpha  occ. eigenvalues --   -0.40471  -0.40240  -0.40125  -0.40039  -0.39878
 Alpha  occ. eigenvalues --   -0.39517  -0.39452  -0.39337  -0.39067  -0.38870
 Alpha  occ. eigenvalues --   -0.38710  -0.38439  -0.38385  -0.38175  -0.37975
 Alpha  occ. eigenvalues --   -0.37902  -0.37803  -0.37632  -0.37628  -0.37559
 Alpha  occ. eigenvalues --   -0.37218  -0.36878  -0.36733  -0.36177  -0.36092
 Alpha  occ. eigenvalues --   -0.35646  -0.35307  -0.35085  -0.34836  -0.34719
 Alpha  occ. eigenvalues --   -0.34686  -0.34426  -0.33705  -0.33578  -0.33489
 Alpha  occ. eigenvalues --   -0.33266  -0.33070  -0.32820  -0.32712  -0.32623
 Alpha  occ. eigenvalues --   -0.32418  -0.32176  -0.31899  -0.31236  -0.31227
 Alpha  occ. eigenvalues --   -0.30604  -0.30257  -0.30230  -0.29925  -0.29893
 Alpha  occ. eigenvalues --   -0.29175  -0.28209  -0.27753  -0.27032  -0.26369
 Alpha  occ. eigenvalues --   -0.26034  -0.25822  -0.25135  -0.24998  -0.21078
 Alpha  occ. eigenvalues --   -0.18954
 Alpha virt. eigenvalues --   -0.11156  -0.05069  -0.03635  -0.01922  -0.01521
 Alpha virt. eigenvalues --   -0.01159  -0.00179   0.00263   0.01623   0.03063
 Alpha virt. eigenvalues --    0.03836   0.04569   0.05034   0.05275   0.05791

 Mulliken charges:
               1
     1  Mg   0.978580
     2  C    0.006636
     3  C   -0.051182
     4  C   -0.063658
     5  C   -0.071887
     6  N   -0.302359
     7  C   -0.058383
     8  C    0.021300
     9  C   -0.148285
    10  C    0.059487
    11  C   -0.006301
    12  C   -0.030276
    13  C   -0.025592
    14  C    0.260570
    15  O   -0.312793
    16  O   -0.358152
    17  N   -0.414603
    18  C    0.112630
    19  C   -0.200662
    20  C   -0.083017
    21  C    0.157546
    22  C    0.080755
    23  C    0.029803
    24  O   -0.227034
    25  C   -0.017079
    26  N   -0.433337
    27  C    0.046475
    28  C   -0.101694
    29  C   -0.130139
    30  C    0.117890
    31  C    0.058602
    32  C   -0.048170
    33  C   -0.065752
    34  N   -0.493765
    35  C    0.114504
    36  C   -0.215317
    37  C   -0.015203
    38  C    0.159287
    39  C    0.081188
    40  C    0.126083
    41  O   -0.209217
    42  C   -0.129976
    43  C    0.274592
    44  O   -0.229267
    45  O   -0.352944
    46  C    0.125761
    47  C    0.222806
    48  C   -0.085499
    49  C   -0.223998
    50  C   -0.008866
    51  C   -0.012895
    52  C   -0.052352
    53  C    0.011784
    54  C   -0.220526
    55  C   -0.030924
    56  C   -0.028928
    57  C   -0.007789
    58  C    0.018992
    59  C   -0.199154
    60  C    0.000295
    61  C   -0.028921
    62  C   -0.073311
    63  C   -0.026435
    64  C   -0.236152
    65  C   -0.022516
    66  C   -0.035811
    67  H    0.009785
    68  H   -0.007725
    69  H    0.000395
    70  H    0.053005
    71  H    0.055058
    72  H    0.053041
    73  H    0.050294
    74  H    0.038398
    75  H    0.065206
    76  H    0.046768
    77  H    0.069966
    78  H    0.075760
    79  H    0.066252
    80  H    0.045120
    81  H    0.064795
    82  H    0.061792
    83  H    0.078954
    84  H    0.050510
    85  H    0.053072
    86  H    0.038456
    87  H    0.038039
    88  H    0.047005
    89  H    0.043374
    90  H    0.038033
    91  H    0.045737
    92  H    0.043591
    93  H    0.043920
    94  H    0.034333
    95  H    0.031747
    96  H    0.063790
    97  H    0.063989
    98  H    0.066823
    99  H    0.036511
   100  H    0.050308
   101  H    0.065648
   102  H    0.059808
   103  H    0.040352
   104  H    0.018594
   105  H    0.061342
   106  H    0.062654
   107  H    0.045186
   108  H    0.044327
   109  H    0.042749
   110  H    0.031280
   111  H    0.029121
   112  H    0.028025
   113  H    0.027872
   114  H    0.033086
   115  H    0.031784
   116  H    0.033581
   117  H    0.042371
   118  H    0.014600
   119  H    0.033966
   120  H    0.026419
   121  H    0.034354
   122  H    0.028480
   123  H    0.017131
   124  H    0.031320
   125  H    0.024348
   126  H    0.028975
   127  H    0.025535
   128  H    0.034223
   129  H    0.017973
   130  H    0.033608
   131  H    0.027533
   132  H    0.030810
   133  H    0.027834
   134  H    0.036936
   135  H    0.031861
   136  H    0.038833
   137  H    0.036427
   138  H    0.041827
   139  H    0.048518
   140  H    0.039161
 Sum of Mulliken charges =  -0.00000

 Dipole moment (field-independent basis, Debye):
    X=              0.5883    Y=              6.5590    Z=              0.5367  Tot=              6.6071
 Quadrupole moment (field-independent basis, Debye-Ang):
   XX=           -390.8536   YY=           -420.5141   ZZ=           -398.0401
   XY=            -41.6945   XZ=            -22.4812   YZ=            -32.2853

 Normal termination of Gaussian 16 at Thu May  5 14:50:45 2022.
