 Gaussian 16, Revision A.03,
 Gaussian 16:  ES64L-G16RevA.03 25-Dec-2016

 --------------------------------
 #p wB97XD/Def2SVP td=(nstates=5)
 --------------------------------

 ----------------------------------------------------
 step_951_chromophore_26 TDDFT with wB97XD functional
 ----------------------------------------------------
 Symbolic Z-matrix:
 Charge =  0 Multiplicity = 1

                         Standard orientation:
 ---------------------------------------------------------------------
 Center     Atomic      Atomic             Coordinates (Angstroms)
 Number     Number       Type             X           Y           Z
 ---------------------------------------------------------------------
      1         12           0       -4.058987    1.385987    0.553444
      2          6           0       -4.966227   -1.960894   -0.137955
      3          6           0       -2.062363    0.068903    3.109555
      4          6           0       -2.884689    4.486892    1.015023
      5          6           0       -5.372322    2.320057   -2.548384
      6          7           0       -3.555934   -0.777723    1.430704
      7          6           0       -4.167911   -1.961652    1.045197
      8          6           0       -3.728895   -3.135733    2.020501
      9          6           0       -2.921920   -2.342270    3.037614
     10          6           0       -2.844380   -0.952293    2.487541
     11          6           0       -3.512120   -2.418349    4.508103
     12          6           0       -3.077857   -4.266872    1.367950
     13          6           0       -2.214525   -4.055001    0.038655
     14          6           0       -0.843707   -4.722338    0.046189
     15          8           0       -0.762686   -5.903573   -0.383938
     16          8           0        0.225839   -3.895974    0.304868
     17          7           0       -2.642552    2.206834    1.921666
     18          6           0       -2.014587    1.544859    2.887379
     19          6           0       -1.293941    2.485665    3.761823
     20          6           0       -1.396568    3.726243    3.119324
     21          6           0       -2.381397    3.500112    1.970376
     22          6           0       -0.591890    2.177503    5.057623
     23          6           0       -0.635760    5.025650    3.416990
     24          8           0        0.036576    5.008625    4.419869
     25          6           0       -0.592325    6.353280    2.526843
     26          7           0       -3.996514    3.094424   -0.674022
     27          6           0       -3.563283    4.280461   -0.215253
     28          6           0       -3.919090    5.446741   -1.193752
     29          6           0       -4.556590    4.694501   -2.389799
     30          6           0       -4.673695    3.252246   -1.894295
     31          6           0       -4.610085    6.659764   -0.705431
     32          6           0       -3.683798    4.830874   -3.722491
     33          6           0       -3.123752    6.162265   -4.133753
     34          7           0       -5.048635    0.439939   -0.952264
     35          6           0       -5.604427    0.924454   -2.150572
     36          6           0       -6.312801   -0.136539   -2.836966
     37          6           0       -6.140740   -1.253494   -2.059808
     38          6           0       -5.348670   -0.862082   -0.915846
     39          6           0       -7.048113    0.015716   -4.150425
     40          6           0       -6.511119   -2.598503   -1.870325
     41          8           0       -7.119499   -3.279917   -2.659888
     42          6           0       -5.743035   -3.130822   -0.654244
     43          6           0       -6.710223   -3.831108    0.249166
     44          8           0       -6.662737   -4.959220    0.704892
     45          8           0       -7.673284   -2.876906    0.463128
     46          6           0       -8.872104   -3.455745    1.038315
     47          6           0        1.509300   -4.487453   -0.109774
     48          6           0        2.650344   -3.500270   -0.451810
     49          6           0        3.252337   -3.261805   -1.684868
     50          6           0        2.707284   -3.912416   -3.004000
     51          6           0        4.591374   -2.574476   -1.794569
     52          6           0        4.439210   -1.102015   -2.143755
     53          6           0        5.868672   -0.499756   -2.405602
     54          6           0        6.183678    0.806805   -1.606840
     55          6           0        5.983817    2.097704   -2.478587
     56          6           0        7.590058    0.800419   -0.944530
     57          6           0        7.689897    0.050600    0.420854
     58          6           0        8.481847   -1.255855    0.334527
     59          6           0        9.826370   -1.201686    1.038944
     60          6           0        9.876808   -2.027701    2.313466
     61          6           0       10.973200   -1.475596    0.043819
     62          6           0       11.302248   -0.320712   -0.982330
     63          6           0       12.877788   -0.044813   -1.080128
     64          6           0       13.385343    1.072051   -0.112353
     65          6           0       13.624584    2.444575   -0.859522
     66          6           0       14.668334    0.579735    0.623390
     67          1           0       -1.396280   -0.301849    3.892441
     68          1           0       -2.507678    5.511462    1.016043
     69          1           0       -5.842075    2.640025   -3.481263
     70          1           0       -4.630576   -3.556027    2.467399
     71          1           0       -1.889862   -2.650364    3.202647
     72          1           0       -4.142492   -3.291218    4.678382
     73          1           0       -4.014133   -1.479993    4.743493
     74          1           0       -2.695454   -2.510076    5.224092
     75          1           0       -3.800185   -5.002345    1.013481
     76          1           0       -2.534383   -4.714095    2.201317
     77          1           0       -2.080932   -2.973389    0.007801
     78          1           0       -2.850218   -4.323108   -0.805701
     79          1           0        0.443698    1.924644    4.831016
     80          1           0       -1.192982    1.434765    5.583249
     81          1           0       -0.574458    3.084873    5.660120
     82          1           0       -1.513266    6.881215    2.778112
     83          1           0       -0.417120    6.185110    1.464095
     84          1           0        0.141003    6.995152    3.015124
     85          1           0       -2.926026    5.694823   -1.567909
     86          1           0       -5.545563    5.057211   -2.672517
     87          1           0       -3.948197    7.523985   -0.751806
     88          1           0       -4.891880    6.554866    0.341933
     89          1           0       -5.445943    6.811241   -1.388914
     90          1           0       -4.304825    4.569282   -4.580131
     91          1           0       -2.907546    4.071396   -3.631125
     92          1           0       -3.184818    6.407164   -5.193868
     93          1           0       -2.054518    6.205952   -3.925198
     94          1           0       -3.639922    6.986327   -3.640244
     95          1           0       -6.522043    0.855498   -4.605515
     96          1           0       -8.091089    0.288485   -3.988005
     97          1           0       -6.919768   -0.854116   -4.793530
     98          1           0       -5.103296   -3.961003   -0.955903
     99          1           0       -9.614509   -2.663164    1.128231
    100          1           0       -8.863574   -3.758502    2.085221
    101          1           0       -9.397472   -4.195767    0.433614
    102          1           0        1.382741   -5.244310   -0.884656
    103          1           0        1.783078   -5.007898    0.807420
    104          1           0        3.364870   -3.218416    0.321010
    105          1           0        1.630538   -3.880576   -3.172590
    106          1           0        2.878258   -4.980040   -2.863912
    107          1           0        3.249074   -3.533906   -3.871156
    108          1           0        5.178364   -3.106430   -2.543147
    109          1           0        5.095189   -2.616010   -0.828145
    110          1           0        3.857780   -0.611340   -1.363363
    111          1           0        3.814290   -0.815196   -2.989586
    112          1           0        5.995055   -0.353159   -3.478385
    113          1           0        6.567434   -1.307064   -2.186793
    114          1           0        5.401995    1.005057   -0.872079
    115          1           0        6.843400    2.169287   -3.145405
    116          1           0        6.064756    2.981778   -1.845025
    117          1           0        4.991575    2.069456   -2.930016
    118          1           0        7.805688    1.861865   -0.828073
    119          1           0        8.244776    0.409803   -1.723133
    120          1           0        6.682313   -0.204252    0.746675
    121          1           0        8.140215    0.736097    1.139609
    122          1           0        8.597400   -1.570382   -0.702504
    123          1           0        7.825492   -2.041027    0.708539
    124          1           0       10.123253   -0.252426    1.486620
    125          1           0        8.990061   -2.648951    2.433702
    126          1           0        9.895582   -1.441102    3.231529
    127          1           0       10.791890   -2.620169    2.331977
    128          1           0       10.906612   -2.440459   -0.457841
    129          1           0       11.888273   -1.490279    0.635686
    130          1           0       10.867284    0.650827   -0.748103
    131          1           0       10.922304   -0.558498   -1.975558
    132          1           0       12.995199    0.129142   -2.150076
    133          1           0       13.342956   -0.989031   -0.797852
    134          1           0       12.651990    1.286696    0.665818
    135          1           0       12.990602    2.476813   -1.746046
    136          1           0       14.692889    2.436140   -1.074665
    137          1           0       13.294042    3.328679   -0.315675
    138          1           0       15.360625    0.305591   -0.174042
    139          1           0       14.357750   -0.260652    1.244510
    140          1           0       15.106900    1.416486    1.165994
 ---------------------------------------------------------------------

 SCF Done:  E(RwB97XD) =  -3007.85755324     A.U. after   19 cycles

 Excitation energies and oscillator strengths:

 Excited State   1:      Singlet-A      1.7619 eV  703.68 nm  f=0.3716  <S**2>=0.000
     245 -> 248        0.17438
     246 -> 247        0.68496
     245 <- 248        0.10706
 This state for optimization and/or second-order correction.
 Total Energy, E(TD-HF/TD-DFT) =  -3007.79280333
 Copying the excited state density for this state as the 1-particle RhoCI density.

 Excited State   2:      Singlet-A      2.2785 eV  544.14 nm  f=0.1140  <S**2>=0.000
     245 -> 247        0.64167
     246 -> 248       -0.28314

 Excited State   3:      Singlet-A      3.5681 eV  347.48 nm  f=0.0692  <S**2>=0.000
     239 -> 247       -0.15763
     240 -> 247        0.11820
     240 -> 249       -0.17628
     241 -> 247        0.53724
     241 -> 249       -0.17457
     246 -> 248       -0.24636

 Excited State   4:      Singlet-A      3.5932 eV  345.05 nm  f=0.1667  <S**2>=0.000
     239 -> 247        0.26135
     240 -> 247        0.42790
     240 -> 249       -0.20591
     241 -> 249       -0.13434
     245 -> 247        0.12723
     246 -> 248        0.34754

 Excited State   5:      Singlet-A      3.6163 eV  342.85 nm  f=0.0079  <S**2>=0.000
     240 -> 247        0.10410
     242 -> 249        0.10346
     242 -> 251       -0.12977
     244 -> 247        0.53062
     244 -> 248       -0.11065
     244 -> 249        0.24673
     244 -> 251       -0.23513

 The electronic state is 1-A.
 Alpha  occ. eigenvalues --  -46.96514 -19.31140 -19.30254 -19.26056 -19.24652
 Alpha  occ. eigenvalues --  -19.23682 -19.22523 -14.46981 -14.46222 -14.45323
 Alpha  occ. eigenvalues --  -14.44281 -10.43661 -10.42917 -10.40233 -10.37214
 Alpha  occ. eigenvalues --  -10.36405 -10.36100 -10.35925 -10.35847 -10.35220
 Alpha  occ. eigenvalues --  -10.35117 -10.34993 -10.33860 -10.33559 -10.33445
 Alpha  occ. eigenvalues --  -10.32585 -10.32552 -10.32469 -10.32210 -10.32178
 Alpha  occ. eigenvalues --  -10.32105 -10.32028 -10.31857 -10.31777 -10.31422
 Alpha  occ. eigenvalues --  -10.31353 -10.31297 -10.30995 -10.30848 -10.30654
 Alpha  occ. eigenvalues --  -10.30453 -10.30417 -10.30351 -10.30322 -10.30264
 Alpha  occ. eigenvalues --  -10.30150 -10.30080 -10.29963 -10.29961 -10.29642
 Alpha  occ. eigenvalues --  -10.29572 -10.29416 -10.29310 -10.29135 -10.28991
 Alpha  occ. eigenvalues --  -10.28970 -10.28888 -10.28797 -10.28684 -10.28570
 Alpha  occ. eigenvalues --  -10.28521 -10.28463 -10.28449 -10.28252 -10.27813
 Alpha  occ. eigenvalues --  -10.27619  -3.22413  -1.95977  -1.95525  -1.95381
 Alpha  occ. eigenvalues --   -1.19439  -1.17202  -1.13950  -1.11859  -1.11254
 Alpha  occ. eigenvalues --   -1.07971  -1.07889  -1.07247  -1.05377  -1.04563
 Alpha  occ. eigenvalues --   -0.95007  -0.92285  -0.92086  -0.91425  -0.91383
 Alpha  occ. eigenvalues --   -0.90462  -0.89762  -0.89386  -0.89083  -0.88910
 Alpha  occ. eigenvalues --   -0.88012  -0.86910  -0.86098  -0.85944  -0.85099
 Alpha  occ. eigenvalues --   -0.84139  -0.83716  -0.82786  -0.82529  -0.82185
 Alpha  occ. eigenvalues --   -0.81685  -0.79998  -0.79812  -0.79616  -0.78413
 Alpha  occ. eigenvalues --   -0.77665  -0.77535  -0.77095  -0.76440  -0.75780
 Alpha  occ. eigenvalues --   -0.75372  -0.74849  -0.73738  -0.72921  -0.71316
 Alpha  occ. eigenvalues --   -0.70509  -0.70080  -0.69764  -0.68919  -0.67749
 Alpha  occ. eigenvalues --   -0.67591  -0.67119  -0.66921  -0.66497  -0.65204
 Alpha  occ. eigenvalues --   -0.65188  -0.64981  -0.64645  -0.64332  -0.62157
 Alpha  occ. eigenvalues --   -0.61585  -0.61425  -0.61102  -0.60682  -0.59461
 Alpha  occ. eigenvalues --   -0.59355  -0.58649  -0.58455  -0.58019  -0.57686
 Alpha  occ. eigenvalues --   -0.57445  -0.57130  -0.56705  -0.56599  -0.55864
 Alpha  occ. eigenvalues --   -0.55603  -0.55306  -0.54907  -0.54840  -0.54508
 Alpha  occ. eigenvalues --   -0.54388  -0.54111  -0.53961  -0.53861  -0.53693
 Alpha  occ. eigenvalues --   -0.53424  -0.53274  -0.53044  -0.52517  -0.52373
 Alpha  occ. eigenvalues --   -0.52275  -0.51981  -0.51891  -0.51703  -0.51451
 Alpha  occ. eigenvalues --   -0.51356  -0.51188  -0.50997  -0.50894  -0.50707
 Alpha  occ. eigenvalues --   -0.50388  -0.50354  -0.50106  -0.49872  -0.49696
 Alpha  occ. eigenvalues --   -0.49511  -0.49292  -0.49158  -0.49009  -0.48992
 Alpha  occ. eigenvalues --   -0.48543  -0.48363  -0.48180  -0.47909  -0.47759
 Alpha  occ. eigenvalues --   -0.47571  -0.47444  -0.47327  -0.47208  -0.47050
 Alpha  occ. eigenvalues --   -0.46733  -0.46652  -0.46448  -0.46297  -0.46055
 Alpha  occ. eigenvalues --   -0.45870  -0.45603  -0.45497  -0.45230  -0.45115
 Alpha  occ. eigenvalues --   -0.45105  -0.44959  -0.44867  -0.44672  -0.44653
 Alpha  occ. eigenvalues --   -0.44309  -0.43938  -0.43836  -0.43272  -0.43118
 Alpha  occ. eigenvalues --   -0.42663  -0.42304  -0.42179  -0.41929  -0.41717
 Alpha  occ. eigenvalues --   -0.41658  -0.41507  -0.40739  -0.40633  -0.40403
 Alpha  occ. eigenvalues --   -0.40240  -0.40128  -0.39793  -0.39775  -0.39572
 Alpha  occ. eigenvalues --   -0.39498  -0.39080  -0.38919  -0.38271  -0.38193
 Alpha  occ. eigenvalues --   -0.37655  -0.37266  -0.37184  -0.36866  -0.36675
 Alpha  occ. eigenvalues --   -0.36095  -0.34880  -0.34858  -0.33754  -0.33328
 Alpha  occ. eigenvalues --   -0.33214  -0.32287  -0.31853  -0.31727  -0.26177
 Alpha  occ. eigenvalues --   -0.23237
 Alpha virt. eigenvalues --   -0.06923   0.00418   0.02644   0.04410   0.04699
 Alpha virt. eigenvalues --    0.05483   0.06793   0.07087   0.08212   0.09659
 Alpha virt. eigenvalues --    0.10225   0.11384   0.11751   0.11969   0.12493

 Mulliken charges:
               1
     1  Mg   0.971849
     2  C    0.008096
     3  C   -0.073495
     4  C   -0.084660
     5  C   -0.087771
     6  N   -0.263353
     7  C   -0.096906
     8  C    0.048901
     9  C   -0.128167
    10  C    0.045448
    11  C    0.003683
    12  C   -0.023562
    13  C    0.000766
    14  C    0.250084
    15  O   -0.311281
    16  O   -0.358525
    17  N   -0.381523
    18  C    0.108577
    19  C   -0.188973
    20  C   -0.077578
    21  C    0.159879
    22  C    0.093947
    23  C    0.024170
    24  O   -0.223091
    25  C   -0.002505
    26  N   -0.404594
    27  C    0.038226
    28  C   -0.073696
    29  C   -0.105288
    30  C    0.107555
    31  C    0.069656
    32  C   -0.033197
    33  C   -0.050928
    34  N   -0.455196
    35  C    0.099910
    36  C   -0.216880
    37  C   -0.009173
    38  C    0.137056
    39  C    0.093958
    40  C    0.104702
    41  O   -0.202086
    42  C   -0.084268
    43  C    0.249073
    44  O   -0.222437
    45  O   -0.353682
    46  C    0.140439
    47  C    0.239853
    48  C   -0.095590
    49  C   -0.212305
    50  C    0.001827
    51  C    0.014690
    52  C   -0.042759
    53  C    0.027093
    54  C   -0.191702
    55  C   -0.016266
    56  C   -0.009520
    57  C    0.008537
    58  C    0.034205
    59  C   -0.168712
    60  C    0.010266
    61  C   -0.005284
    62  C   -0.060574
    63  C   -0.008668
    64  C   -0.211051
    65  C   -0.010435
    66  C   -0.018478
    67  H    0.005916
    68  H   -0.021130
    69  H   -0.006312
    70  H    0.042305
    71  H    0.045875
    72  H    0.049510
    73  H    0.043528
    74  H    0.033148
    75  H    0.058099
    76  H    0.038107
    77  H    0.057437
    78  H    0.069879
    79  H    0.064573
    80  H    0.041296
    81  H    0.062232
    82  H    0.057972
    83  H    0.076405
    84  H    0.049825
    85  H    0.038396
    86  H    0.028295
    87  H    0.033151
    88  H    0.041304
    89  H    0.038515
    90  H    0.030454
    91  H    0.037444
    92  H    0.038949
    93  H    0.037364
    94  H    0.025479
    95  H    0.022247
    96  H    0.057394
    97  H    0.059011
    98  H    0.055676
    99  H    0.032376
   100  H    0.045753
   101  H    0.061868
   102  H    0.054083
   103  H    0.036210
   104  H    0.013690
   105  H    0.057093
   106  H    0.056271
   107  H    0.040685
   108  H    0.036382
   109  H    0.032474
   110  H    0.021564
   111  H    0.022073
   112  H    0.021210
   113  H    0.012732
   114  H    0.019124
   115  H    0.024563
   116  H    0.026935
   117  H    0.036607
   118  H    0.006262
   119  H    0.020269
   120  H    0.017591
   121  H    0.026653
   122  H    0.015312
   123  H    0.009026
   124  H    0.016747
   125  H    0.017864
   126  H    0.023824
   127  H    0.020080
   128  H    0.027586
   129  H    0.001719
   130  H    0.020353
   131  H    0.020356
   132  H    0.024079
   133  H    0.016945
   134  H    0.024850
   135  H    0.025239
   136  H    0.032183
   137  H    0.031637
   138  H    0.033758
   139  H    0.041720
   140  H    0.033622
 Sum of Mulliken charges =  -0.00000

 Dipole moment (field-independent basis, Debye):
    X=              1.1679    Y=              7.0081    Z=              1.3687  Tot=              7.2354
 Quadrupole moment (field-independent basis, Debye-Ang):
   XX=           -394.6751   YY=           -419.3975   ZZ=           -396.9579
   XY=            -42.3373   XZ=            -25.3843   YZ=            -30.5359

 Normal termination of Gaussian 16 at Thu May  5 15:19:01 2022.
