 Gaussian 16, Revision A.03,
 Gaussian 16:  ES64L-G16RevA.03 25-Dec-2016

 --------------------
 #p ZINDO=(nstates=5)
 --------------------

 -----------------------------
 step_951_chromophore_26 ZINDO
 -----------------------------
 Symbolic Z-matrix:
 Charge =  0 Multiplicity = 1

                         Standard orientation:
 ---------------------------------------------------------------------
 Center     Atomic      Atomic             Coordinates (Angstroms)
 Number     Number       Type             X           Y           Z
 ---------------------------------------------------------------------
      1         12           0       -4.058987    1.385987    0.553444
      2          6           0       -4.966227   -1.960894   -0.137955
      3          6           0       -2.062363    0.068903    3.109555
      4          6           0       -2.884689    4.486892    1.015023
      5          6           0       -5.372322    2.320057   -2.548384
      6          7           0       -3.555934   -0.777723    1.430704
      7          6           0       -4.167911   -1.961652    1.045197
      8          6           0       -3.728895   -3.135733    2.020501
      9          6           0       -2.921920   -2.342270    3.037614
     10          6           0       -2.844380   -0.952293    2.487541
     11          6           0       -3.512120   -2.418349    4.508103
     12          6           0       -3.077857   -4.266872    1.367950
     13          6           0       -2.214525   -4.055001    0.038655
     14          6           0       -0.843707   -4.722338    0.046189
     15          8           0       -0.762686   -5.903573   -0.383938
     16          8           0        0.225839   -3.895974    0.304868
     17          7           0       -2.642552    2.206834    1.921666
     18          6           0       -2.014587    1.544859    2.887379
     19          6           0       -1.293941    2.485665    3.761823
     20          6           0       -1.396568    3.726243    3.119324
     21          6           0       -2.381397    3.500112    1.970376
     22          6           0       -0.591890    2.177503    5.057623
     23          6           0       -0.635760    5.025650    3.416990
     24          8           0        0.036576    5.008625    4.419869
     25          6           0       -0.592325    6.353280    2.526843
     26          7           0       -3.996514    3.094424   -0.674022
     27          6           0       -3.563283    4.280461   -0.215253
     28          6           0       -3.919090    5.446741   -1.193752
     29          6           0       -4.556590    4.694501   -2.389799
     30          6           0       -4.673695    3.252246   -1.894295
     31          6           0       -4.610085    6.659764   -0.705431
     32          6           0       -3.683798    4.830874   -3.722491
     33          6           0       -3.123752    6.162265   -4.133753
     34          7           0       -5.048635    0.439939   -0.952264
     35          6           0       -5.604427    0.924454   -2.150572
     36          6           0       -6.312801   -0.136539   -2.836966
     37          6           0       -6.140740   -1.253494   -2.059808
     38          6           0       -5.348670   -0.862082   -0.915846
     39          6           0       -7.048113    0.015716   -4.150425
     40          6           0       -6.511119   -2.598503   -1.870325
     41          8           0       -7.119499   -3.279917   -2.659888
     42          6           0       -5.743035   -3.130822   -0.654244
     43          6           0       -6.710223   -3.831108    0.249166
     44          8           0       -6.662737   -4.959220    0.704892
     45          8           0       -7.673284   -2.876906    0.463128
     46          6           0       -8.872104   -3.455745    1.038315
     47          6           0        1.509300   -4.487453   -0.109774
     48          6           0        2.650344   -3.500270   -0.451810
     49          6           0        3.252337   -3.261805   -1.684868
     50          6           0        2.707284   -3.912416   -3.004000
     51          6           0        4.591374   -2.574476   -1.794569
     52          6           0        4.439210   -1.102015   -2.143755
     53          6           0        5.868672   -0.499756   -2.405602
     54          6           0        6.183678    0.806805   -1.606840
     55          6           0        5.983817    2.097704   -2.478587
     56          6           0        7.590058    0.800419   -0.944530
     57          6           0        7.689897    0.050600    0.420854
     58          6           0        8.481847   -1.255855    0.334527
     59          6           0        9.826370   -1.201686    1.038944
     60          6           0        9.876808   -2.027701    2.313466
     61          6           0       10.973200   -1.475596    0.043819
     62          6           0       11.302248   -0.320712   -0.982330
     63          6           0       12.877788   -0.044813   -1.080128
     64          6           0       13.385343    1.072051   -0.112353
     65          6           0       13.624584    2.444575   -0.859522
     66          6           0       14.668334    0.579735    0.623390
     67          1           0       -1.396280   -0.301849    3.892441
     68          1           0       -2.507678    5.511462    1.016043
     69          1           0       -5.842075    2.640025   -3.481263
     70          1           0       -4.630576   -3.556027    2.467399
     71          1           0       -1.889862   -2.650364    3.202647
     72          1           0       -4.142492   -3.291218    4.678382
     73          1           0       -4.014133   -1.479993    4.743493
     74          1           0       -2.695454   -2.510076    5.224092
     75          1           0       -3.800185   -5.002345    1.013481
     76          1           0       -2.534383   -4.714095    2.201317
     77          1           0       -2.080932   -2.973389    0.007801
     78          1           0       -2.850218   -4.323108   -0.805701
     79          1           0        0.443698    1.924644    4.831016
     80          1           0       -1.192982    1.434765    5.583249
     81          1           0       -0.574458    3.084873    5.660120
     82          1           0       -1.513266    6.881215    2.778112
     83          1           0       -0.417120    6.185110    1.464095
     84          1           0        0.141003    6.995152    3.015124
     85          1           0       -2.926026    5.694823   -1.567909
     86          1           0       -5.545563    5.057211   -2.672517
     87          1           0       -3.948197    7.523985   -0.751806
     88          1           0       -4.891880    6.554866    0.341933
     89          1           0       -5.445943    6.811241   -1.388914
     90          1           0       -4.304825    4.569282   -4.580131
     91          1           0       -2.907546    4.071396   -3.631125
     92          1           0       -3.184818    6.407164   -5.193868
     93          1           0       -2.054518    6.205952   -3.925198
     94          1           0       -3.639922    6.986327   -3.640244
     95          1           0       -6.522043    0.855498   -4.605515
     96          1           0       -8.091089    0.288485   -3.988005
     97          1           0       -6.919768   -0.854116   -4.793530
     98          1           0       -5.103296   -3.961003   -0.955903
     99          1           0       -9.614509   -2.663164    1.128231
    100          1           0       -8.863574   -3.758502    2.085221
    101          1           0       -9.397472   -4.195767    0.433614
    102          1           0        1.382741   -5.244310   -0.884656
    103          1           0        1.783078   -5.007898    0.807420
    104          1           0        3.364870   -3.218416    0.321010
    105          1           0        1.630538   -3.880576   -3.172590
    106          1           0        2.878258   -4.980040   -2.863912
    107          1           0        3.249074   -3.533906   -3.871156
    108          1           0        5.178364   -3.106430   -2.543147
    109          1           0        5.095189   -2.616010   -0.828145
    110          1           0        3.857780   -0.611340   -1.363363
    111          1           0        3.814290   -0.815196   -2.989586
    112          1           0        5.995055   -0.353159   -3.478385
    113          1           0        6.567434   -1.307064   -2.186793
    114          1           0        5.401995    1.005057   -0.872079
    115          1           0        6.843400    2.169287   -3.145405
    116          1           0        6.064756    2.981778   -1.845025
    117          1           0        4.991575    2.069456   -2.930016
    118          1           0        7.805688    1.861865   -0.828073
    119          1           0        8.244776    0.409803   -1.723133
    120          1           0        6.682313   -0.204252    0.746675
    121          1           0        8.140215    0.736097    1.139609
    122          1           0        8.597400   -1.570382   -0.702504
    123          1           0        7.825492   -2.041027    0.708539
    124          1           0       10.123253   -0.252426    1.486620
    125          1           0        8.990061   -2.648951    2.433702
    126          1           0        9.895582   -1.441102    3.231529
    127          1           0       10.791890   -2.620169    2.331977
    128          1           0       10.906612   -2.440459   -0.457841
    129          1           0       11.888273   -1.490279    0.635686
    130          1           0       10.867284    0.650827   -0.748103
    131          1           0       10.922304   -0.558498   -1.975558
    132          1           0       12.995199    0.129142   -2.150076
    133          1           0       13.342956   -0.989031   -0.797852
    134          1           0       12.651990    1.286696    0.665818
    135          1           0       12.990602    2.476813   -1.746046
    136          1           0       14.692889    2.436140   -1.074665
    137          1           0       13.294042    3.328679   -0.315675
    138          1           0       15.360625    0.305591   -0.174042
    139          1           0       14.357750   -0.260652    1.244510
    140          1           0       15.106900    1.416486    1.165994
 ---------------------------------------------------------------------

 SCF Done:  E(RZINDO/S) =  -474.202438296     A.U. after   19 cycles

 Excitation energies and oscillator strengths:

 Excited State   1:      Singlet-A      1.3681 eV  906.26 nm  f=0.5086  <S**2>=0.000
     175 ->178        -0.14753
     176 ->177         0.67576
 This state for optimization and/or second-order correction.
 Total Energy, E(CIS/TDA) =  -474.152162083
 Copying the excited state density for this state as the 1-particle RhoCI density.

 Excited State   2:      Singlet-A      1.9865 eV  624.13 nm  f=0.0448  <S**2>=0.000
     175 ->177         0.54432
     176 ->178         0.41249

 Excited State   3:      Singlet-A      2.9289 eV  423.32 nm  f=0.7649  <S**2>=0.000
     175 ->177        -0.33203
     176 ->178         0.46506
     176 ->179         0.23905
     176 ->182         0.18401

 Excited State   4:      Singlet-A      2.9490 eV  420.42 nm  f=0.0176  <S**2>=0.000
     167 ->179         0.14867
     168 ->177        -0.29666
     168 ->179         0.43860
     168 ->182        -0.23480
     168 ->186        -0.20370
     168 ->192         0.10411

 Excited State   5:      Singlet-A      2.9680 eV  417.74 nm  f=0.0507  <S**2>=0.000
     171 ->177         0.25225
     171 ->178         0.20062
     171 ->179         0.22037
     171 ->182         0.35114
     171 ->184        -0.10754
     171 ->186        -0.20712
     171 ->188         0.15101
     171 ->203        -0.10350
     174 ->177         0.11360
     174 ->182         0.12149
     176 ->178         0.12600

 The electronic state is 1-A.
 Alpha  occ. eigenvalues --   -1.84543  -1.82553  -1.80809  -1.74786  -1.72209
 Alpha  occ. eigenvalues --   -1.70695  -1.65128  -1.60947  -1.59766  -1.58563
 Alpha  occ. eigenvalues --   -1.54140  -1.50771  -1.49452  -1.48236  -1.46771
 Alpha  occ. eigenvalues --   -1.46166  -1.43739  -1.40673  -1.38261  -1.36763
 Alpha  occ. eigenvalues --   -1.36353  -1.33213  -1.33115  -1.30215  -1.29687
 Alpha  occ. eigenvalues --   -1.29281  -1.25735  -1.22028  -1.19738  -1.18190
 Alpha  occ. eigenvalues --   -1.16817  -1.15374  -1.15152  -1.13893  -1.13599
 Alpha  occ. eigenvalues --   -1.12058  -1.10718  -1.10176  -1.05846  -1.04943
 Alpha  occ. eigenvalues --   -1.02945  -1.01553  -1.00288  -0.98341  -0.96978
 Alpha  occ. eigenvalues --   -0.94730  -0.94139  -0.92836  -0.92529  -0.92463
 Alpha  occ. eigenvalues --   -0.91628  -0.91096  -0.89050  -0.88721  -0.87158
 Alpha  occ. eigenvalues --   -0.85594  -0.84593  -0.83648  -0.82257  -0.80768
 Alpha  occ. eigenvalues --   -0.79812  -0.78972  -0.77597  -0.77515  -0.76687
 Alpha  occ. eigenvalues --   -0.76246  -0.75860  -0.75215  -0.74494  -0.73673
 Alpha  occ. eigenvalues --   -0.72735  -0.72208  -0.71874  -0.71555  -0.70291
 Alpha  occ. eigenvalues --   -0.69877  -0.69298  -0.68704  -0.68170  -0.67544
 Alpha  occ. eigenvalues --   -0.67055  -0.66670  -0.66495  -0.65944  -0.65700
 Alpha  occ. eigenvalues --   -0.65196  -0.64791  -0.64580  -0.63882  -0.63292
 Alpha  occ. eigenvalues --   -0.63168  -0.62853  -0.62751  -0.62477  -0.62331
 Alpha  occ. eigenvalues --   -0.61907  -0.61653  -0.61260  -0.61093  -0.60396
 Alpha  occ. eigenvalues --   -0.59719  -0.59454  -0.58959  -0.58733  -0.58564
 Alpha  occ. eigenvalues --   -0.57690  -0.57350  -0.57314  -0.56915  -0.56429
 Alpha  occ. eigenvalues --   -0.56174  -0.55833  -0.55664  -0.54904  -0.54655
 Alpha  occ. eigenvalues --   -0.54535  -0.54224  -0.53927  -0.53437  -0.53243
 Alpha  occ. eigenvalues --   -0.52911  -0.52753  -0.52287  -0.51820  -0.51671
 Alpha  occ. eigenvalues --   -0.51640  -0.51307  -0.51049  -0.50651  -0.50512
 Alpha  occ. eigenvalues --   -0.50353  -0.50223  -0.49728  -0.49434  -0.49164
 Alpha  occ. eigenvalues --   -0.48819  -0.48739  -0.48370  -0.48213  -0.48004
 Alpha  occ. eigenvalues --   -0.47490  -0.47436  -0.47316  -0.47037  -0.46570
 Alpha  occ. eigenvalues --   -0.46418  -0.46090  -0.46075  -0.45939  -0.45752
 Alpha  occ. eigenvalues --   -0.45159  -0.45090  -0.44384  -0.44243  -0.44193
 Alpha  occ. eigenvalues --   -0.43861  -0.43657  -0.42909  -0.42814  -0.42221
 Alpha  occ. eigenvalues --   -0.41968  -0.41913  -0.41442  -0.39270  -0.38316
 Alpha  occ. eigenvalues --   -0.38132  -0.37665  -0.36341  -0.34818  -0.34470
 Alpha  occ. eigenvalues --   -0.33540  -0.32896  -0.32176  -0.32152  -0.27288
 Alpha  occ. eigenvalues --   -0.22309
 Alpha virt. eigenvalues --   -0.08489  -0.02154  -0.00671   0.00676   0.01038
 Alpha virt. eigenvalues --    0.01617   0.02639   0.03038   0.03344   0.04136
 Alpha virt. eigenvalues --    0.04982   0.06424   0.06743   0.07098   0.07577

 Mulliken charges:
               1
     1  Mg   0.443034
     2  C   -0.018461
     3  C   -0.106910
     4  C   -0.140843
     5  C   -0.059232
     6  N   -0.272972
     7  C    0.049811
     8  C    0.024935
     9  C    0.010634
    10  C    0.191667
    11  C   -0.053153
    12  C   -0.016768
    13  C    0.003110
    14  C    0.464816
    15  O   -0.528413
    16  O   -0.257004
    17  N   -0.294702
    18  C    0.139559
    19  C    0.066951
    20  C   -0.047810
    21  C    0.164471
    22  C   -0.033598
    23  C    0.316961
    24  O   -0.505582
    25  C   -0.030171
    26  N   -0.294806
    27  C    0.185412
    28  C    0.008792
    29  C   -0.001943
    30  C    0.081787
    31  C   -0.041730
    32  C   -0.029309
    33  C   -0.052289
    34  N   -0.302371
    35  C    0.037753
    36  C    0.010036
    37  C   -0.061274
    38  C    0.084042
    39  C   -0.041765
    40  C    0.334432
    41  O   -0.536501
    42  C    0.051799
    43  C    0.491087
    44  O   -0.513108
    45  O   -0.252457
    46  C    0.070110
    47  C    0.107692
    48  C   -0.127133
    49  C    0.009503
    50  C   -0.048268
    51  C   -0.003853
    52  C   -0.031869
    53  C   -0.037576
    54  C   -0.019294
    55  C   -0.062078
    56  C   -0.036144
    57  C   -0.032575
    58  C   -0.024694
    59  C   -0.005474
    60  C   -0.057819
    61  C   -0.034550
    62  C   -0.049130
    63  C   -0.040558
    64  C   -0.015615
    65  C   -0.064079
    66  C   -0.058898
    67  H    0.026075
    68  H    0.023025
    69  H    0.023989
    70  H    0.037328
    71  H    0.032256
    72  H    0.030551
    73  H    0.024622
    74  H    0.015483
    75  H    0.031465
    76  H    0.023180
    77  H    0.026602
    78  H    0.055539
    79  H    0.048262
    80  H    0.029941
    81  H    0.042582
    82  H    0.038707
    83  H    0.046909
    84  H    0.039460
    85  H    0.027876
    86  H    0.026620
    87  H    0.017803
    88  H    0.025354
    89  H    0.028499
    90  H    0.015074
    91  H    0.022984
    92  H    0.018174
    93  H    0.014590
    94  H    0.015724
    95  H    0.015251
    96  H    0.036119
    97  H    0.036823
    98  H    0.049476
    99  H    0.012127
   100  H    0.043391
   101  H    0.051426
   102  H    0.060169
   103  H    0.035051
   104  H    0.025657
   105  H    0.033688
   106  H    0.029574
   107  H    0.022999
   108  H    0.028428
   109  H    0.025168
   110  H    0.020429
   111  H    0.019592
   112  H    0.018355
   113  H    0.016535
   114  H    0.017245
   115  H    0.020102
   116  H    0.012466
   117  H    0.023162
   118  H    0.013682
   119  H    0.023798
   120  H    0.018232
   121  H    0.022454
   122  H    0.017249
   123  H    0.013319
   124  H    0.021771
   125  H    0.016426
   126  H    0.013737
   127  H    0.016994
   128  H    0.024982
   129  H    0.008795
   130  H    0.020122
   131  H    0.013413
   132  H    0.023308
   133  H    0.018586
   134  H    0.018504
   135  H    0.016201
   136  H    0.026145
   137  H    0.020744
   138  H    0.020403
   139  H    0.024902
   140  H    0.018712
 Sum of Mulliken charges =  -0.00000

 Dipole moment (field-independent basis, Debye):
    X=              3.5969    Y=              9.7226    Z=              3.7137  Tot=             11.0117
 N-N= 4.435448138771D+03 E-N= 0.000000000000D+00  KE=-9.544521963747D+03
 Leave Link  601 at Thu May  5 15:32:46 2022, MaxMem=  6710886400 cpu:               0.8 elap:               0.0
 (Enter /sw/apps/gaussian-16.0/g16/l9999.exe)
 1\1\GINC-BP1-COMPUTE100\SP\RZINDO CIS\STO-3G\C55H74Mg1N4O6\OF15641\05-
 May-2022\0\\#p ZINDO=(nstates=5)\\step_951_chromophore_26 ZINDO\\0,1\M
 g,0,-8.78,18.352,43.171\C,0,-5.263,18.04,42.981\C,0,-8.306,21.664,42.1
 41\C,0,-12.113,18.6,42.978\C,0,-9.023,14.867,43.291\N,0,-6.929,19.754,
 42.612\C,0,-5.592,19.409,42.747\C,0,-4.68,20.685,42.497\C,0,-5.756,21.
 752,42.359\C,0,-7.056,21.01,42.367\C,0,-5.66,22.89,43.46\C,0,-3.714,20
 .548,41.412\C,0,-4.028,19.612,40.154\C,0,-3.765,20.249,38.794\O,0,-2.6

 Normal termination of Gaussian 16 at Thu May  5 15:32:46 2022.
