 Gaussian 16, Revision A.03,
 Gaussian 16:  ES64L-G16RevA.03 25-Dec-2016

 ------------------------------
 #p blyp/Def2SVP td=(nstates=5)
 ------------------------------

 ---------------------------------------------------
 step_1751_chromophore_10 TDDFT with blyp functional
 ---------------------------------------------------
 Symbolic Z-matrix:
 Charge =  0 Multiplicity = 1

                         Standard orientation:
 ---------------------------------------------------------------------
 Center     Atomic      Atomic             Coordinates (Angstroms)
 Number     Number       Type             X           Y           Z
 ---------------------------------------------------------------------
      1         12           0        6.270860    0.517298    0.187441
      2          6           0        3.962881   -2.112276   -0.057962
      3          6           0        3.896948    2.357508   -1.595360
      4          6           0        8.528127    3.013890   -0.086519
      5          6           0        8.544235   -1.448755    1.487709
      6          7           0        4.232056    0.055417   -0.854272
      7          6           0        3.403827   -1.046896   -0.615921
      8          6           0        1.935299   -0.783548   -0.953557
      9          6           0        2.038066    0.640944   -1.627847
     10          6           0        3.476968    1.094139   -1.404604
     11          6           0        1.491689    0.744192   -3.055256
     12          6           0        0.908760   -0.898445    0.254793
     13          6           0        0.057400   -2.162432    0.169355
     14          6           0       -1.427874   -2.038188    0.443495
     15          8           0       -1.897389   -1.313984    1.316682
     16          8           0       -2.173390   -2.789302   -0.405751
     17          7           0        6.093694    2.478583   -0.555009
     18          6           0        5.075899    3.077611   -1.198856
     19          6           0        5.342468    4.460884   -1.380050
     20          6           0        6.664587    4.664824   -0.964115
     21          6           0        7.154522    3.335616   -0.474203
     22          6           0        4.345972    5.422696   -2.096962
     23          6           0        7.362259    6.059444   -0.873090
     24          8           0        8.534205    6.139821   -0.480075
     25          6           0        6.621958    7.392248   -1.143161
     26          7           0        8.274714    0.796391    0.773241
     27          6           0        9.064777    1.848050    0.483602
     28          6           0       10.458390    1.680348    1.089374
     29          6           0       10.358856    0.322203    1.826287
     30          6           0        9.015933   -0.149525    1.390378
     31          6           0       11.625388    1.778660    0.074231
     32          6           0       10.445037    0.392519    3.326091
     33          6           0        9.241722    0.806314    4.194239
     34          7           0        6.312757   -1.356451    0.691859
     35          6           0        7.335650   -2.055339    1.224818
     36          6           0        6.919206   -3.409493    1.369535
     37          6           0        5.597858   -3.559787    0.955456
     38          6           0        5.291751   -2.217495    0.485769
     39          6           0        7.760814   -4.572074    1.874611
     40          6           0        4.426662   -4.400438    0.776140
     41          8           0        4.228797   -5.579308    1.048153
     42          6           0        3.267824   -3.412232    0.210703
     43          6           0        2.686069   -4.084276   -1.048562
     44          8           0        3.181180   -4.017443   -2.184809
     45          8           0        1.448137   -4.676170   -0.793348
     46          6           0        0.757236   -5.247964   -2.022964
     47          6           0       -3.571799   -2.981625   -0.000215
     48          6           0       -4.579256   -2.382831   -0.919088
     49          6           0       -5.870342   -2.773946   -0.912907
     50          6           0       -6.462183   -3.963525   -0.138739
     51          6           0       -6.833628   -2.158791   -1.957219
     52          6           0       -7.124342   -0.678629   -1.618720
     53          6           0       -8.256685   -0.135309   -2.597853
     54          6           0       -9.712989   -0.081431   -2.089534
     55          6           0      -10.699932   -0.812651   -2.950760
     56          6           0      -10.061853    1.422521   -1.810555
     57          6           0      -11.070706    1.563811   -0.639482
     58          6           0      -12.452068    2.174741   -0.826660
     59          6           0      -13.615280    1.115597   -0.714317
     60          6           0      -14.400892    0.831654   -2.082602
     61          6           0      -14.625242    1.609595    0.385225
     62          6           0      -14.321294    1.159004    1.787595
     63          6           0      -14.283233    2.257508    2.824093
     64          6           0      -14.983610    1.919964    4.178514
     65          6           0      -16.424911    2.388463    4.200471
     66          6           0      -13.989876    2.415175    5.324707
     67          1           0        3.074899    2.922544   -2.040489
     68          1           0        9.291241    3.792239   -0.140710
     69          1           0        9.386786   -2.038790    1.854885
     70          1           0        1.712544   -1.538790   -1.708037
     71          1           0        1.468694    1.304276   -0.976376
     72          1           0        0.776653    1.565601   -3.098417
     73          1           0        0.791813   -0.073329   -3.225895
     74          1           0        2.231882    0.728872   -3.855043
     75          1           0        0.294168   -0.016026    0.429146
     76          1           0        1.432981   -1.097225    1.189728
     77          1           0        0.532896   -2.926662    0.784238
     78          1           0        0.188517   -2.642150   -0.800421
     79          1           0        4.118386    6.278380   -1.461829
     80          1           0        3.420305    4.928285   -2.392528
     81          1           0        4.827539    5.786364   -3.005167
     82          1           0        7.270772    8.259547   -1.023773
     83          1           0        5.831312    7.355225   -0.393580
     84          1           0        6.258004    7.271460   -2.164165
     85          1           0       10.629683    2.460331    1.832211
     86          1           0       11.091016   -0.445981    1.579256
     87          1           0       12.281970    2.622568    0.285147
     88          1           0       11.164008    2.009823   -0.885851
     89          1           0       12.163491    0.833882    0.155977
     90          1           0       11.289837    1.005632    3.638008
     91          1           0       10.709559   -0.616838    3.641254
     92          1           0        8.521150    0.061790    4.532196
     93          1           0        8.528145    1.405078    3.626814
     94          1           0        9.539782    1.221094    5.156536
     95          1           0        7.268781   -4.989787    2.753395
     96          1           0        8.778866   -4.277440    2.130412
     97          1           0        7.962883   -5.321939    1.110048
     98          1           0        2.531106   -3.241580    0.995560
     99          1           0       -0.093231   -4.612452   -2.267607
    100          1           0        0.302450   -6.213771   -1.801194
    101          1           0        1.459262   -5.358365   -2.849056
    102          1           0       -3.869911   -2.670397    1.001638
    103          1           0       -3.622604   -4.064477    0.116455
    104          1           0       -4.311084   -1.569673   -1.594650
    105          1           0       -7.220715   -3.568706    0.537255
    106          1           0       -5.753773   -4.532009    0.463477
    107          1           0       -7.041217   -4.602271   -0.805505
    108          1           0       -7.812956   -2.637121   -1.930210
    109          1           0       -6.348475   -2.346258   -2.914550
    110          1           0       -6.251759   -0.028209   -1.673650
    111          1           0       -7.432445   -0.626176   -0.574786
    112          1           0       -8.295557   -0.748577   -3.498399
    113          1           0       -7.831631    0.837812   -2.847362
    114          1           0       -9.583048   -0.546125   -1.112530
    115          1           0      -10.270488   -1.693822   -3.426523
    116          1           0      -10.994619   -0.227056   -3.821648
    117          1           0      -11.605631   -1.008988   -2.375604
    118          1           0      -10.482047    1.915294   -2.687762
    119          1           0       -9.171097    2.023998   -1.628074
    120          1           0      -10.618438    2.177465    0.139202
    121          1           0      -11.137135    0.520720   -0.329393
    122          1           0      -12.494614    2.688596   -1.786248
    123          1           0      -12.631080    2.922834   -0.054401
    124          1           0      -13.208755    0.168418   -0.357708
    125          1           0      -14.690153   -0.218270   -2.109708
    126          1           0      -13.780230    1.102820   -2.936235
    127          1           0      -15.305940    1.431646   -2.179837
    128          1           0      -15.640424    1.273982    0.172068
    129          1           0      -14.705495    2.696264    0.362954
    130          1           0      -13.279509    0.840053    1.797412
    131          1           0      -14.857409    0.227724    1.968617
    132          1           0      -14.753759    3.176383    2.473789
    133          1           0      -13.215005    2.443854    2.939090
    134          1           0      -15.034621    0.831270    4.186616
    135          1           0      -17.149112    1.606034    3.972798
    136          1           0      -16.596825    3.174086    3.465695
    137          1           0      -16.658251    2.781336    5.190007
    138          1           0      -13.904750    1.483725    5.883267
    139          1           0      -14.434732    3.194226    5.945004
    140          1           0      -13.040313    2.740296    4.900626
 ---------------------------------------------------------------------

 SCF Done:  E(RB-LYP) =  -3007.37034040     A.U. after   21 cycles

 Excitation energies and oscillator strengths:

 Excited State   1:      Singlet-A      1.7961 eV  690.28 nm  f=0.0504  <S**2>=0.000
     244 -> 247        0.63119
     246 -> 247        0.30396
 This state for optimization and/or second-order correction.
 Total Energy, E(TD-HF/TD-DFT) =  -3007.30433311
 Copying the excited state density for this state as the 1-particle RhoCI density.

 Excited State   2:      Singlet-A      1.8489 eV  670.58 nm  f=0.2497  <S**2>=0.000
     244 -> 247       -0.31233
     245 -> 248        0.14050
     245 -> 249       -0.10823
     246 -> 247        0.61919
     246 <- 247       -0.13332

 Excited State   3:      Singlet-A      2.0311 eV  610.42 nm  f=0.1196  <S**2>=0.000
     243 -> 247        0.18004
     245 -> 247        0.63844
     246 -> 248       -0.18179
     246 -> 249        0.10105

 Excited State   4:      Singlet-A      2.1327 eV  581.36 nm  f=0.0071  <S**2>=0.000
     243 -> 247        0.68258
     245 -> 247       -0.16165

 Excited State   5:      Singlet-A      2.1798 eV  568.78 nm  f=0.0000  <S**2>=0.000
     242 -> 247        0.70681

 The electronic state is 1-A.
 Alpha  occ. eigenvalues --  -46.26588 -18.82671 -18.82379 -18.77020 -18.76331
 Alpha  occ. eigenvalues --  -18.76299 -18.75361 -14.02946 -14.02233 -14.01382
 Alpha  occ. eigenvalues --  -14.01148 -10.04530 -10.03922 -10.00552 -10.00186
 Alpha  occ. eigenvalues --   -9.97855  -9.97710  -9.96745  -9.96225  -9.95958
 Alpha  occ. eigenvalues --   -9.95614  -9.95542  -9.95511  -9.95349  -9.95267
 Alpha  occ. eigenvalues --   -9.94566  -9.94268  -9.93953  -9.93823  -9.93808
 Alpha  occ. eigenvalues --   -9.93543  -9.93486  -9.93395  -9.93350  -9.93083
 Alpha  occ. eigenvalues --   -9.92969  -9.92783  -9.92767  -9.92726  -9.92685
 Alpha  occ. eigenvalues --   -9.92657  -9.92506  -9.92426  -9.92366  -9.92324
 Alpha  occ. eigenvalues --   -9.92215  -9.92210  -9.92068  -9.91966  -9.91944
 Alpha  occ. eigenvalues --   -9.91912  -9.91808  -9.91797  -9.91650  -9.91520
 Alpha  occ. eigenvalues --   -9.91287  -9.91044  -9.90953  -9.90933  -9.90932
 Alpha  occ. eigenvalues --   -9.90868  -9.90702  -9.90598  -9.90412  -9.90282
 Alpha  occ. eigenvalues --   -9.90179  -2.91438  -1.71855  -1.71313  -1.71170
 Alpha  occ. eigenvalues --   -0.98182  -0.96256  -0.91452  -0.90445  -0.89557
 Alpha  occ. eigenvalues --   -0.88653  -0.87603  -0.86760  -0.86076  -0.83922
 Alpha  occ. eigenvalues --   -0.75578  -0.73582  -0.73472  -0.72844  -0.72406
 Alpha  occ. eigenvalues --   -0.72078  -0.71684  -0.71321  -0.70381  -0.70183
 Alpha  occ. eigenvalues --   -0.69658  -0.69120  -0.67999  -0.67803  -0.66972
 Alpha  occ. eigenvalues --   -0.66597  -0.65528  -0.64930  -0.64710  -0.64422
 Alpha  occ. eigenvalues --   -0.64167  -0.62485  -0.62318  -0.62113  -0.60884
 Alpha  occ. eigenvalues --   -0.60723  -0.60359  -0.60286  -0.59738  -0.58777
 Alpha  occ. eigenvalues --   -0.58483  -0.58095  -0.56728  -0.55991  -0.55543
 Alpha  occ. eigenvalues --   -0.54527  -0.53643  -0.52706  -0.52157  -0.51392
 Alpha  occ. eigenvalues --   -0.51189  -0.50965  -0.50453  -0.50417  -0.50079
 Alpha  occ. eigenvalues --   -0.49722  -0.49355  -0.48791  -0.47996  -0.46591
 Alpha  occ. eigenvalues --   -0.46551  -0.45904  -0.45467  -0.45161  -0.44917
 Alpha  occ. eigenvalues --   -0.44360  -0.43973  -0.43218  -0.42677  -0.42309
 Alpha  occ. eigenvalues --   -0.42096  -0.41697  -0.41392  -0.41227  -0.41079
 Alpha  occ. eigenvalues --   -0.40739  -0.40601  -0.40230  -0.39969  -0.39793
 Alpha  occ. eigenvalues --   -0.39769  -0.39509  -0.39162  -0.39092  -0.38847
 Alpha  occ. eigenvalues --   -0.38701  -0.38632  -0.38452  -0.38194  -0.37965
 Alpha  occ. eigenvalues --   -0.37637  -0.37593  -0.37530  -0.37386  -0.37218
 Alpha  occ. eigenvalues --   -0.37193  -0.37159  -0.36924  -0.36678  -0.36520
 Alpha  occ. eigenvalues --   -0.36222  -0.35966  -0.35942  -0.35827  -0.35560
 Alpha  occ. eigenvalues --   -0.35393  -0.35247  -0.35140  -0.34710  -0.34673
 Alpha  occ. eigenvalues --   -0.34564  -0.34276  -0.34170  -0.34092  -0.33926
 Alpha  occ. eigenvalues --   -0.33886  -0.33548  -0.33426  -0.33305  -0.33283
 Alpha  occ. eigenvalues --   -0.33012  -0.32961  -0.32822  -0.32646  -0.32416
 Alpha  occ. eigenvalues --   -0.32307  -0.31968  -0.31821  -0.31766  -0.31502
 Alpha  occ. eigenvalues --   -0.31357  -0.31275  -0.31135  -0.31033  -0.30754
 Alpha  occ. eigenvalues --   -0.30536  -0.30422  -0.30110  -0.30037  -0.29932
 Alpha  occ. eigenvalues --   -0.29753  -0.29655  -0.29452  -0.29338  -0.29272
 Alpha  occ. eigenvalues --   -0.28629  -0.28392  -0.28323  -0.27780  -0.27470
 Alpha  occ. eigenvalues --   -0.27433  -0.27271  -0.27239  -0.26631  -0.26573
 Alpha  occ. eigenvalues --   -0.26502  -0.26054  -0.25992  -0.25661  -0.25175
 Alpha  occ. eigenvalues --   -0.24982  -0.24562  -0.24004  -0.23800  -0.23461
 Alpha  occ. eigenvalues --   -0.23337  -0.22469  -0.22078  -0.21563  -0.21306
 Alpha  occ. eigenvalues --   -0.20887  -0.19632  -0.19325  -0.18191  -0.17096
 Alpha  occ. eigenvalues --   -0.16009
 Alpha virt. eigenvalues --   -0.11622  -0.06602  -0.06093  -0.04491  -0.03422
 Alpha virt. eigenvalues --   -0.02603  -0.01945  -0.01722  -0.01133   0.00328
 Alpha virt. eigenvalues --    0.01131   0.01475   0.02521   0.02670   0.02940

 Mulliken charges:
               1
     1  Mg   0.718848
     2  C    0.040835
     3  C   -0.049680
     4  C   -0.034630
     5  C   -0.089164
     6  N   -0.229298
     7  C   -0.140233
     8  C    0.068027
     9  C    0.001757
    10  C    0.003004
    11  C    0.159060
    12  C    0.147982
    13  C    0.067321
    14  C    0.076711
    15  O   -0.199453
    16  O   -0.249533
    17  N   -0.252788
    18  C    0.126590
    19  C   -0.138769
    20  C    0.010909
    21  C    0.101105
    22  C    0.165862
    23  C   -0.085411
    24  O   -0.180936
    25  C    0.147968
    26  N   -0.227861
    27  C    0.009893
    28  C    0.030903
    29  C    0.091496
    30  C   -0.066605
    31  C    0.140099
    32  C    0.075925
    33  C    0.074641
    34  N   -0.295076
    35  C    0.224185
    36  C   -0.198454
    37  C    0.129122
    38  C    0.062901
    39  C    0.168354
    40  C   -0.044092
    41  O   -0.125545
    42  C    0.016058
    43  C    0.151193
    44  O   -0.196846
    45  O   -0.295810
    46  C    0.191370
    47  C    0.294427
    48  C   -0.063756
    49  C   -0.161703
    50  C    0.147799
    51  C    0.118017
    52  C    0.042149
    53  C    0.102285
    54  C   -0.060565
    55  C    0.134444
    56  C    0.100426
    57  C    0.050332
    58  C    0.141149
    59  C   -0.095841
    60  C    0.097241
    61  C    0.088406
    62  C    0.079249
    63  C    0.074781
    64  C   -0.113354
    65  C    0.126199
    66  C    0.104701
    67  H   -0.081398
    68  H   -0.047587
    69  H   -0.080560
    70  H   -0.018025
    71  H   -0.025125
    72  H   -0.017969
    73  H   -0.022019
    74  H    0.009234
    75  H   -0.002071
    76  H   -0.020054
    77  H    0.019414
    78  H   -0.014039
    79  H   -0.001147
    80  H   -0.011835
    81  H    0.011365
    82  H    0.001338
    83  H    0.018159
    84  H    0.004715
    85  H   -0.015611
    86  H   -0.034515
    87  H   -0.005276
    88  H   -0.001460
    89  H   -0.004835
    90  H   -0.020970
    91  H   -0.029612
    92  H   -0.021597
    93  H   -0.009361
    94  H   -0.007640
    95  H    0.013686
    96  H   -0.036470
    97  H    0.006799
    98  H    0.010602
    99  H    0.022609
   100  H    0.018038
   101  H    0.039636
   102  H    0.010574
   103  H   -0.003245
   104  H   -0.037006
   105  H   -0.008693
   106  H   -0.015100
   107  H   -0.001310
   108  H   -0.036730
   109  H   -0.005818
   110  H   -0.025564
   111  H   -0.027328
   112  H   -0.049827
   113  H   -0.036926
   114  H   -0.037945
   115  H   -0.016152
   116  H   -0.021206
   117  H   -0.007547
   118  H   -0.044990
   119  H   -0.038906
   120  H   -0.036759
   121  H   -0.025222
   122  H   -0.039062
   123  H   -0.034894
   124  H   -0.029734
   125  H   -0.011363
   126  H   -0.018312
   127  H   -0.015450
   128  H   -0.047526
   129  H   -0.038676
   130  H   -0.043280
   131  H   -0.029658
   132  H   -0.028098
   133  H   -0.032597
   134  H   -0.031873
   135  H   -0.015329
   136  H   -0.021033
   137  H   -0.021484
   138  H   -0.008779
   139  H   -0.013481
   140  H   -0.008409
 Sum of Mulliken charges =  -0.00000

 Dipole moment (field-independent basis, Debye):
    X=             -2.2591    Y=              1.4365    Z=             -0.3241  Tot=              2.6967
 Quadrupole moment (field-independent basis, Debye-Ang):
   XX=           -378.2164   YY=           -423.0174   ZZ=           -404.2863
   XY=              8.4635   XZ=             21.5882   YZ=             -1.9580

 Normal termination of Gaussian 16 at Wed May  4 14:00:31 2022.
