 Gaussian 16, Revision A.03,
 Gaussian 16:  ES64L-G16RevA.03 25-Dec-2016

 -----------------------------------
 #p cam-b3lyp/Def2SVP td=(nstates=5)
 -----------------------------------

 --------------------------------------------------------
 step_1751_chromophore_10 TDDFT with cam-b3lyp functional
 --------------------------------------------------------
 Symbolic Z-matrix:
 Charge =  0 Multiplicity = 1

                         Standard orientation:
 ---------------------------------------------------------------------
 Center     Atomic      Atomic             Coordinates (Angstroms)
 Number     Number       Type             X           Y           Z
 ---------------------------------------------------------------------
      1         12           0        6.270860    0.517298    0.187441
      2          6           0        3.962881   -2.112276   -0.057962
      3          6           0        3.896948    2.357508   -1.595360
      4          6           0        8.528127    3.013890   -0.086519
      5          6           0        8.544235   -1.448755    1.487709
      6          7           0        4.232056    0.055417   -0.854272
      7          6           0        3.403827   -1.046896   -0.615921
      8          6           0        1.935299   -0.783548   -0.953557
      9          6           0        2.038066    0.640944   -1.627847
     10          6           0        3.476968    1.094139   -1.404604
     11          6           0        1.491689    0.744192   -3.055256
     12          6           0        0.908760   -0.898445    0.254793
     13          6           0        0.057400   -2.162432    0.169355
     14          6           0       -1.427874   -2.038188    0.443495
     15          8           0       -1.897389   -1.313984    1.316682
     16          8           0       -2.173390   -2.789302   -0.405751
     17          7           0        6.093694    2.478583   -0.555009
     18          6           0        5.075899    3.077611   -1.198856
     19          6           0        5.342468    4.460884   -1.380050
     20          6           0        6.664587    4.664824   -0.964115
     21          6           0        7.154522    3.335616   -0.474203
     22          6           0        4.345972    5.422696   -2.096962
     23          6           0        7.362259    6.059444   -0.873090
     24          8           0        8.534205    6.139821   -0.480075
     25          6           0        6.621958    7.392248   -1.143161
     26          7           0        8.274714    0.796391    0.773241
     27          6           0        9.064777    1.848050    0.483602
     28          6           0       10.458390    1.680348    1.089374
     29          6           0       10.358856    0.322203    1.826287
     30          6           0        9.015933   -0.149525    1.390378
     31          6           0       11.625388    1.778660    0.074231
     32          6           0       10.445037    0.392519    3.326091
     33          6           0        9.241722    0.806314    4.194239
     34          7           0        6.312757   -1.356451    0.691859
     35          6           0        7.335650   -2.055339    1.224818
     36          6           0        6.919206   -3.409493    1.369535
     37          6           0        5.597858   -3.559787    0.955456
     38          6           0        5.291751   -2.217495    0.485769
     39          6           0        7.760814   -4.572074    1.874611
     40          6           0        4.426662   -4.400438    0.776140
     41          8           0        4.228797   -5.579308    1.048153
     42          6           0        3.267824   -3.412232    0.210703
     43          6           0        2.686069   -4.084276   -1.048562
     44          8           0        3.181180   -4.017443   -2.184809
     45          8           0        1.448137   -4.676170   -0.793348
     46          6           0        0.757236   -5.247964   -2.022964
     47          6           0       -3.571799   -2.981625   -0.000215
     48          6           0       -4.579256   -2.382831   -0.919088
     49          6           0       -5.870342   -2.773946   -0.912907
     50          6           0       -6.462183   -3.963525   -0.138739
     51          6           0       -6.833628   -2.158791   -1.957219
     52          6           0       -7.124342   -0.678629   -1.618720
     53          6           0       -8.256685   -0.135309   -2.597853
     54          6           0       -9.712989   -0.081431   -2.089534
     55          6           0      -10.699932   -0.812651   -2.950760
     56          6           0      -10.061853    1.422521   -1.810555
     57          6           0      -11.070706    1.563811   -0.639482
     58          6           0      -12.452068    2.174741   -0.826660
     59          6           0      -13.615280    1.115597   -0.714317
     60          6           0      -14.400892    0.831654   -2.082602
     61          6           0      -14.625242    1.609595    0.385225
     62          6           0      -14.321294    1.159004    1.787595
     63          6           0      -14.283233    2.257508    2.824093
     64          6           0      -14.983610    1.919964    4.178514
     65          6           0      -16.424911    2.388463    4.200471
     66          6           0      -13.989876    2.415175    5.324707
     67          1           0        3.074899    2.922544   -2.040489
     68          1           0        9.291241    3.792239   -0.140710
     69          1           0        9.386786   -2.038790    1.854885
     70          1           0        1.712544   -1.538790   -1.708037
     71          1           0        1.468694    1.304276   -0.976376
     72          1           0        0.776653    1.565601   -3.098417
     73          1           0        0.791813   -0.073329   -3.225895
     74          1           0        2.231882    0.728872   -3.855043
     75          1           0        0.294168   -0.016026    0.429146
     76          1           0        1.432981   -1.097225    1.189728
     77          1           0        0.532896   -2.926662    0.784238
     78          1           0        0.188517   -2.642150   -0.800421
     79          1           0        4.118386    6.278380   -1.461829
     80          1           0        3.420305    4.928285   -2.392528
     81          1           0        4.827539    5.786364   -3.005167
     82          1           0        7.270772    8.259547   -1.023773
     83          1           0        5.831312    7.355225   -0.393580
     84          1           0        6.258004    7.271460   -2.164165
     85          1           0       10.629683    2.460331    1.832211
     86          1           0       11.091016   -0.445981    1.579256
     87          1           0       12.281970    2.622568    0.285147
     88          1           0       11.164008    2.009823   -0.885851
     89          1           0       12.163491    0.833882    0.155977
     90          1           0       11.289837    1.005632    3.638008
     91          1           0       10.709559   -0.616838    3.641254
     92          1           0        8.521150    0.061790    4.532196
     93          1           0        8.528145    1.405078    3.626814
     94          1           0        9.539782    1.221094    5.156536
     95          1           0        7.268781   -4.989787    2.753395
     96          1           0        8.778866   -4.277440    2.130412
     97          1           0        7.962883   -5.321939    1.110048
     98          1           0        2.531106   -3.241580    0.995560
     99          1           0       -0.093231   -4.612452   -2.267607
    100          1           0        0.302450   -6.213771   -1.801194
    101          1           0        1.459262   -5.358365   -2.849056
    102          1           0       -3.869911   -2.670397    1.001638
    103          1           0       -3.622604   -4.064477    0.116455
    104          1           0       -4.311084   -1.569673   -1.594650
    105          1           0       -7.220715   -3.568706    0.537255
    106          1           0       -5.753773   -4.532009    0.463477
    107          1           0       -7.041217   -4.602271   -0.805505
    108          1           0       -7.812956   -2.637121   -1.930210
    109          1           0       -6.348475   -2.346258   -2.914550
    110          1           0       -6.251759   -0.028209   -1.673650
    111          1           0       -7.432445   -0.626176   -0.574786
    112          1           0       -8.295557   -0.748577   -3.498399
    113          1           0       -7.831631    0.837812   -2.847362
    114          1           0       -9.583048   -0.546125   -1.112530
    115          1           0      -10.270488   -1.693822   -3.426523
    116          1           0      -10.994619   -0.227056   -3.821648
    117          1           0      -11.605631   -1.008988   -2.375604
    118          1           0      -10.482047    1.915294   -2.687762
    119          1           0       -9.171097    2.023998   -1.628074
    120          1           0      -10.618438    2.177465    0.139202
    121          1           0      -11.137135    0.520720   -0.329393
    122          1           0      -12.494614    2.688596   -1.786248
    123          1           0      -12.631080    2.922834   -0.054401
    124          1           0      -13.208755    0.168418   -0.357708
    125          1           0      -14.690153   -0.218270   -2.109708
    126          1           0      -13.780230    1.102820   -2.936235
    127          1           0      -15.305940    1.431646   -2.179837
    128          1           0      -15.640424    1.273982    0.172068
    129          1           0      -14.705495    2.696264    0.362954
    130          1           0      -13.279509    0.840053    1.797412
    131          1           0      -14.857409    0.227724    1.968617
    132          1           0      -14.753759    3.176383    2.473789
    133          1           0      -13.215005    2.443854    2.939090
    134          1           0      -15.034621    0.831270    4.186616
    135          1           0      -17.149112    1.606034    3.972798
    136          1           0      -16.596825    3.174086    3.465695
    137          1           0      -16.658251    2.781336    5.190007
    138          1           0      -13.904750    1.483725    5.883267
    139          1           0      -14.434732    3.194226    5.945004
    140          1           0      -13.040313    2.740296    4.900626
 ---------------------------------------------------------------------

 SCF Done:  E(RCAM-B3LYP) =  -3007.16534574     A.U. after   18 cycles

 Excitation energies and oscillator strengths:

 Excited State   1:      Singlet-A      1.7286 eV  717.24 nm  f=0.3815  <S**2>=0.000
     245 -> 248       -0.16958
     246 -> 247        0.68707
     245 <- 248       -0.10313
 This state for optimization and/or second-order correction.
 Total Energy, E(TD-HF/TD-DFT) =  -3007.10181950
 Copying the excited state density for this state as the 1-particle RhoCI density.

 Excited State   2:      Singlet-A      2.2165 eV  559.37 nm  f=0.1776  <S**2>=0.000
     245 -> 247        0.66001
     246 -> 248        0.24062

 Excited State   3:      Singlet-A      3.5125 eV  352.98 nm  f=0.0028  <S**2>=0.000
     241 -> 247        0.12073
     243 -> 247        0.66580
     246 -> 248       -0.12388

 Excited State   4:      Singlet-A      3.5350 eV  350.74 nm  f=0.0028  <S**2>=0.000
     242 -> 247        0.55881
     242 -> 248       -0.20508
     242 -> 249        0.15525
     242 -> 250        0.29476

 Excited State   5:      Singlet-A      3.6277 eV  341.77 nm  f=0.0290  <S**2>=0.000
     240 -> 247        0.48629
     240 -> 249       -0.33870
     241 -> 247        0.24529
     246 -> 248       -0.18836

 The electronic state is 1-A.
 Alpha  occ. eigenvalues --  -46.88068 -19.25556 -19.25327 -19.20132 -19.19471
 Alpha  occ. eigenvalues --  -19.19253 -19.18710 -14.41931 -14.40933 -14.39927
 Alpha  occ. eigenvalues --  -14.39499 -10.40124 -10.39188 -10.35925 -10.35553
 Alpha  occ. eigenvalues --  -10.31866 -10.31795 -10.31327 -10.30732 -10.30184
 Alpha  occ. eigenvalues --  -10.30068 -10.29997 -10.29847 -10.29587 -10.29298
 Alpha  occ. eigenvalues --  -10.28996 -10.28314 -10.28132 -10.27892 -10.27867
 Alpha  occ. eigenvalues --  -10.27766 -10.27705 -10.27622 -10.27450 -10.27238
 Alpha  occ. eigenvalues --  -10.27055 -10.26962 -10.26728 -10.26674 -10.26597
 Alpha  occ. eigenvalues --  -10.26593 -10.26447 -10.26402 -10.26161 -10.26094
 Alpha  occ. eigenvalues --  -10.26035 -10.25958 -10.25885 -10.25772 -10.25683
 Alpha  occ. eigenvalues --  -10.25645 -10.25584 -10.25491 -10.25370 -10.25347
 Alpha  occ. eigenvalues --  -10.24876 -10.24730 -10.24636 -10.24604 -10.24600
 Alpha  occ. eigenvalues --  -10.24479 -10.24268 -10.24237 -10.24072 -10.23937
 Alpha  occ. eigenvalues --  -10.23775  -3.16834  -1.91723  -1.91269  -1.91177
 Alpha  occ. eigenvalues --   -1.16624  -1.14745  -1.09799  -1.08942  -1.07429
 Alpha  occ. eigenvalues --   -1.06516  -1.05347  -1.04341  -1.03779  -1.01424
 Alpha  occ. eigenvalues --   -0.92662  -0.90465  -0.90160  -0.89647  -0.89134
 Alpha  occ. eigenvalues --   -0.88786  -0.88339  -0.87917  -0.86940  -0.86917
 Alpha  occ. eigenvalues --   -0.86149  -0.85470  -0.84247  -0.83938  -0.83114
 Alpha  occ. eigenvalues --   -0.82671  -0.81605  -0.80961  -0.80566  -0.80249
 Alpha  occ. eigenvalues --   -0.79981  -0.78118  -0.77879  -0.77761  -0.76290
 Alpha  occ. eigenvalues --   -0.76087  -0.75739  -0.75587  -0.75024  -0.73971
 Alpha  occ. eigenvalues --   -0.73599  -0.73113  -0.71596  -0.70658  -0.70331
 Alpha  occ. eigenvalues --   -0.69144  -0.68183  -0.67266  -0.66553  -0.65460
 Alpha  occ. eigenvalues --   -0.65312  -0.65087  -0.64651  -0.64328  -0.64131
 Alpha  occ. eigenvalues --   -0.63468  -0.63351  -0.62708  -0.61658  -0.60229
 Alpha  occ. eigenvalues --   -0.60084  -0.59400  -0.58995  -0.58622  -0.58361
 Alpha  occ. eigenvalues --   -0.57886  -0.57255  -0.56141  -0.55733  -0.55437
 Alpha  occ. eigenvalues --   -0.55184  -0.54896  -0.54340  -0.54141  -0.53926
 Alpha  occ. eigenvalues --   -0.53905  -0.53302  -0.53123  -0.52731  -0.52661
 Alpha  occ. eigenvalues --   -0.52363  -0.51990  -0.51795  -0.51710  -0.51521
 Alpha  occ. eigenvalues --   -0.51354  -0.51312  -0.51249  -0.50721  -0.50449
 Alpha  occ. eigenvalues --   -0.50113  -0.49925  -0.49791  -0.49721  -0.49636
 Alpha  occ. eigenvalues --   -0.49405  -0.49349  -0.49221  -0.48938  -0.48784
 Alpha  occ. eigenvalues --   -0.48551  -0.48482  -0.48264  -0.47921  -0.47697
 Alpha  occ. eigenvalues --   -0.47632  -0.47235  -0.47180  -0.46790  -0.46502
 Alpha  occ. eigenvalues --   -0.46325  -0.46172  -0.45955  -0.45881  -0.45794
 Alpha  occ. eigenvalues --   -0.45644  -0.45324  -0.45173  -0.45085  -0.44925
 Alpha  occ. eigenvalues --   -0.44776  -0.44734  -0.44476  -0.44156  -0.44052
 Alpha  occ. eigenvalues --   -0.43927  -0.43754  -0.43552  -0.43308  -0.43188
 Alpha  occ. eigenvalues --   -0.42905  -0.42794  -0.42612  -0.42589  -0.42478
 Alpha  occ. eigenvalues --   -0.41936  -0.41717  -0.41559  -0.41495  -0.41252
 Alpha  occ. eigenvalues --   -0.41084  -0.40964  -0.40633  -0.40564  -0.40380
 Alpha  occ. eigenvalues --   -0.39742  -0.39360  -0.39244  -0.38708  -0.38516
 Alpha  occ. eigenvalues --   -0.38280  -0.38177  -0.38065  -0.37855  -0.37393
 Alpha  occ. eigenvalues --   -0.37306  -0.36990  -0.36833  -0.36646  -0.36554
 Alpha  occ. eigenvalues --   -0.35889  -0.35140  -0.34770  -0.34542  -0.34528
 Alpha  occ. eigenvalues --   -0.33782  -0.33697  -0.32743  -0.31710  -0.31197
 Alpha  occ. eigenvalues --   -0.30657  -0.30535  -0.30412  -0.29272  -0.23749
 Alpha  occ. eigenvalues --   -0.21428
 Alpha virt. eigenvalues --   -0.08792  -0.01125   0.00485   0.02400   0.03038
 Alpha virt. eigenvalues --    0.04349   0.05217   0.05712   0.05797   0.06714
 Alpha virt. eigenvalues --    0.07883   0.08572   0.08829   0.09008   0.09230

 Mulliken charges:
               1
     1  Mg   0.853903
     2  C    0.008892
     3  C   -0.068639
     4  C   -0.046185
     5  C   -0.090655
     6  N   -0.297985
     7  C   -0.090452
     8  C    0.017923
     9  C   -0.051820
    10  C    0.028726
    11  C    0.093576
    12  C    0.089919
    13  C    0.000889
    14  C    0.163433
    15  O   -0.241727
    16  O   -0.313868
    17  N   -0.341488
    18  C    0.140582
    19  C   -0.149884
    20  C   -0.049510
    21  C    0.121763
    22  C    0.113615
    23  C   -0.010323
    24  O   -0.220985
    25  C    0.071865
    26  N   -0.296729
    27  C    0.023424
    28  C   -0.025769
    29  C    0.029562
    30  C   -0.050870
    31  C    0.082568
    32  C    0.025079
    33  C    0.011623
    34  N   -0.390576
    35  C    0.218246
    36  C   -0.196663
    37  C    0.047330
    38  C    0.104073
    39  C    0.122503
    40  C    0.059861
    41  O   -0.164955
    42  C   -0.059719
    43  C    0.233966
    44  O   -0.234218
    45  O   -0.360766
    46  C    0.157471
    47  C    0.256923
    48  C   -0.083265
    49  C   -0.187882
    50  C    0.085876
    51  C    0.060663
    52  C   -0.006344
    53  C    0.046234
    54  C   -0.121872
    55  C    0.079298
    56  C    0.050196
    57  C   -0.002744
    58  C    0.086863
    59  C   -0.150862
    60  C    0.043500
    61  C    0.033698
    62  C    0.022675
    63  C    0.025436
    64  C   -0.172608
    65  C    0.066345
    66  C    0.047002
    67  H   -0.048623
    68  H   -0.006475
    69  H   -0.044658
    70  H    0.016521
    71  H    0.010589
    72  H    0.007177
    73  H    0.004110
    74  H    0.035623
    75  H    0.030967
    76  H    0.012245
    77  H    0.048814
    78  H    0.014977
    79  H    0.024709
    80  H    0.017322
    81  H    0.036567
    82  H    0.036568
    83  H    0.043194
    84  H    0.029787
    85  H    0.020316
    86  H    0.002919
    87  H    0.019358
    88  H    0.023788
    89  H    0.019038
    90  H    0.007725
    91  H   -0.001085
    92  H    0.003976
    93  H    0.011557
    94  H    0.017636
    95  H    0.038503
    96  H   -0.011099
    97  H    0.032807
    98  H    0.049992
    99  H    0.041825
   100  H    0.040534
   101  H    0.066056
   102  H    0.043631
   103  H    0.024456
   104  H   -0.001422
   105  H    0.015536
   106  H    0.009215
   107  H    0.023690
   108  H   -0.008323
   109  H    0.023671
   110  H    0.002081
   111  H    0.000348
   112  H   -0.019671
   113  H   -0.007029
   114  H   -0.007118
   115  H    0.007711
   116  H    0.002340
   117  H    0.013627
   118  H   -0.017173
   119  H   -0.007879
   120  H   -0.006854
   121  H   -0.000562
   122  H   -0.010279
   123  H   -0.005430
   124  H   -0.000239
   125  H    0.011926
   126  H    0.003117
   127  H    0.008350
   128  H   -0.016532
   129  H   -0.010169
   130  H   -0.014738
   131  H   -0.000958
   132  H   -0.002143
   133  H   -0.004817
   134  H   -0.000679
   135  H    0.009157
   136  H    0.002122
   137  H    0.002698
   138  H    0.014474
   139  H    0.009611
   140  H    0.014859
 Sum of Mulliken charges =  -0.00000

 Dipole moment (field-independent basis, Debye):
    X=             -2.3115    Y=              2.0423    Z=             -0.5069  Tot=              3.1258
 Quadrupole moment (field-independent basis, Debye-Ang):
   XX=           -375.9887   YY=           -418.2034   ZZ=           -404.0780
   XY=             11.8994   XZ=             22.4990   YZ=             -3.1974

 Normal termination of Gaussian 16 at Wed May  4 12:37:44 2022.
