 Gaussian 16, Revision A.03,
 Gaussian 16:  ES64L-G16RevA.03 25-Dec-2016

 ---------------------------------
 #p PBE1PBE/Def2SVP td=(nstates=5)
 ---------------------------------

 ------------------------------------------------------
 step_1751_chromophore_10 TDDFT with PBE1PBE functional
 ------------------------------------------------------
 Symbolic Z-matrix:
 Charge =  0 Multiplicity = 1

                         Standard orientation:
 ---------------------------------------------------------------------
 Center     Atomic      Atomic             Coordinates (Angstroms)
 Number     Number       Type             X           Y           Z
 ---------------------------------------------------------------------
      1         12           0        6.270860    0.517298    0.187441
      2          6           0        3.962881   -2.112276   -0.057962
      3          6           0        3.896948    2.357508   -1.595360
      4          6           0        8.528127    3.013890   -0.086519
      5          6           0        8.544235   -1.448755    1.487709
      6          7           0        4.232056    0.055417   -0.854272
      7          6           0        3.403827   -1.046896   -0.615921
      8          6           0        1.935299   -0.783548   -0.953557
      9          6           0        2.038066    0.640944   -1.627847
     10          6           0        3.476968    1.094139   -1.404604
     11          6           0        1.491689    0.744192   -3.055256
     12          6           0        0.908760   -0.898445    0.254793
     13          6           0        0.057400   -2.162432    0.169355
     14          6           0       -1.427874   -2.038188    0.443495
     15          8           0       -1.897389   -1.313984    1.316682
     16          8           0       -2.173390   -2.789302   -0.405751
     17          7           0        6.093694    2.478583   -0.555009
     18          6           0        5.075899    3.077611   -1.198856
     19          6           0        5.342468    4.460884   -1.380050
     20          6           0        6.664587    4.664824   -0.964115
     21          6           0        7.154522    3.335616   -0.474203
     22          6           0        4.345972    5.422696   -2.096962
     23          6           0        7.362259    6.059444   -0.873090
     24          8           0        8.534205    6.139821   -0.480075
     25          6           0        6.621958    7.392248   -1.143161
     26          7           0        8.274714    0.796391    0.773241
     27          6           0        9.064777    1.848050    0.483602
     28          6           0       10.458390    1.680348    1.089374
     29          6           0       10.358856    0.322203    1.826287
     30          6           0        9.015933   -0.149525    1.390378
     31          6           0       11.625388    1.778660    0.074231
     32          6           0       10.445037    0.392519    3.326091
     33          6           0        9.241722    0.806314    4.194239
     34          7           0        6.312757   -1.356451    0.691859
     35          6           0        7.335650   -2.055339    1.224818
     36          6           0        6.919206   -3.409493    1.369535
     37          6           0        5.597858   -3.559787    0.955456
     38          6           0        5.291751   -2.217495    0.485769
     39          6           0        7.760814   -4.572074    1.874611
     40          6           0        4.426662   -4.400438    0.776140
     41          8           0        4.228797   -5.579308    1.048153
     42          6           0        3.267824   -3.412232    0.210703
     43          6           0        2.686069   -4.084276   -1.048562
     44          8           0        3.181180   -4.017443   -2.184809
     45          8           0        1.448137   -4.676170   -0.793348
     46          6           0        0.757236   -5.247964   -2.022964
     47          6           0       -3.571799   -2.981625   -0.000215
     48          6           0       -4.579256   -2.382831   -0.919088
     49          6           0       -5.870342   -2.773946   -0.912907
     50          6           0       -6.462183   -3.963525   -0.138739
     51          6           0       -6.833628   -2.158791   -1.957219
     52          6           0       -7.124342   -0.678629   -1.618720
     53          6           0       -8.256685   -0.135309   -2.597853
     54          6           0       -9.712989   -0.081431   -2.089534
     55          6           0      -10.699932   -0.812651   -2.950760
     56          6           0      -10.061853    1.422521   -1.810555
     57          6           0      -11.070706    1.563811   -0.639482
     58          6           0      -12.452068    2.174741   -0.826660
     59          6           0      -13.615280    1.115597   -0.714317
     60          6           0      -14.400892    0.831654   -2.082602
     61          6           0      -14.625242    1.609595    0.385225
     62          6           0      -14.321294    1.159004    1.787595
     63          6           0      -14.283233    2.257508    2.824093
     64          6           0      -14.983610    1.919964    4.178514
     65          6           0      -16.424911    2.388463    4.200471
     66          6           0      -13.989876    2.415175    5.324707
     67          1           0        3.074899    2.922544   -2.040489
     68          1           0        9.291241    3.792239   -0.140710
     69          1           0        9.386786   -2.038790    1.854885
     70          1           0        1.712544   -1.538790   -1.708037
     71          1           0        1.468694    1.304276   -0.976376
     72          1           0        0.776653    1.565601   -3.098417
     73          1           0        0.791813   -0.073329   -3.225895
     74          1           0        2.231882    0.728872   -3.855043
     75          1           0        0.294168   -0.016026    0.429146
     76          1           0        1.432981   -1.097225    1.189728
     77          1           0        0.532896   -2.926662    0.784238
     78          1           0        0.188517   -2.642150   -0.800421
     79          1           0        4.118386    6.278380   -1.461829
     80          1           0        3.420305    4.928285   -2.392528
     81          1           0        4.827539    5.786364   -3.005167
     82          1           0        7.270772    8.259547   -1.023773
     83          1           0        5.831312    7.355225   -0.393580
     84          1           0        6.258004    7.271460   -2.164165
     85          1           0       10.629683    2.460331    1.832211
     86          1           0       11.091016   -0.445981    1.579256
     87          1           0       12.281970    2.622568    0.285147
     88          1           0       11.164008    2.009823   -0.885851
     89          1           0       12.163491    0.833882    0.155977
     90          1           0       11.289837    1.005632    3.638008
     91          1           0       10.709559   -0.616838    3.641254
     92          1           0        8.521150    0.061790    4.532196
     93          1           0        8.528145    1.405078    3.626814
     94          1           0        9.539782    1.221094    5.156536
     95          1           0        7.268781   -4.989787    2.753395
     96          1           0        8.778866   -4.277440    2.130412
     97          1           0        7.962883   -5.321939    1.110048
     98          1           0        2.531106   -3.241580    0.995560
     99          1           0       -0.093231   -4.612452   -2.267607
    100          1           0        0.302450   -6.213771   -1.801194
    101          1           0        1.459262   -5.358365   -2.849056
    102          1           0       -3.869911   -2.670397    1.001638
    103          1           0       -3.622604   -4.064477    0.116455
    104          1           0       -4.311084   -1.569673   -1.594650
    105          1           0       -7.220715   -3.568706    0.537255
    106          1           0       -5.753773   -4.532009    0.463477
    107          1           0       -7.041217   -4.602271   -0.805505
    108          1           0       -7.812956   -2.637121   -1.930210
    109          1           0       -6.348475   -2.346258   -2.914550
    110          1           0       -6.251759   -0.028209   -1.673650
    111          1           0       -7.432445   -0.626176   -0.574786
    112          1           0       -8.295557   -0.748577   -3.498399
    113          1           0       -7.831631    0.837812   -2.847362
    114          1           0       -9.583048   -0.546125   -1.112530
    115          1           0      -10.270488   -1.693822   -3.426523
    116          1           0      -10.994619   -0.227056   -3.821648
    117          1           0      -11.605631   -1.008988   -2.375604
    118          1           0      -10.482047    1.915294   -2.687762
    119          1           0       -9.171097    2.023998   -1.628074
    120          1           0      -10.618438    2.177465    0.139202
    121          1           0      -11.137135    0.520720   -0.329393
    122          1           0      -12.494614    2.688596   -1.786248
    123          1           0      -12.631080    2.922834   -0.054401
    124          1           0      -13.208755    0.168418   -0.357708
    125          1           0      -14.690153   -0.218270   -2.109708
    126          1           0      -13.780230    1.102820   -2.936235
    127          1           0      -15.305940    1.431646   -2.179837
    128          1           0      -15.640424    1.273982    0.172068
    129          1           0      -14.705495    2.696264    0.362954
    130          1           0      -13.279509    0.840053    1.797412
    131          1           0      -14.857409    0.227724    1.968617
    132          1           0      -14.753759    3.176383    2.473789
    133          1           0      -13.215005    2.443854    2.939090
    134          1           0      -15.034621    0.831270    4.186616
    135          1           0      -17.149112    1.606034    3.972798
    136          1           0      -16.596825    3.174086    3.465695
    137          1           0      -16.658251    2.781336    5.190007
    138          1           0      -13.904750    1.483725    5.883267
    139          1           0      -14.434732    3.194226    5.945004
    140          1           0      -13.040313    2.740296    4.900626
 ---------------------------------------------------------------------

 SCF Done:  E(RPBE1PBE) =  -3005.35268403     A.U. after   15 cycles

 Excitation energies and oscillator strengths:

 Excited State   1:      Singlet-A      1.8854 eV  657.61 nm  f=0.3645  <S**2>=0.000
     245 -> 248       -0.15852
     246 -> 247        0.69358
     246 <- 247       -0.10631
 This state for optimization and/or second-order correction.
 Total Energy, E(TD-HF/TD-DFT) =  -3005.28339803
 Copying the excited state density for this state as the 1-particle RhoCI density.

 Excited State   2:      Singlet-A      2.2329 eV  555.27 nm  f=0.1678  <S**2>=0.000
     245 -> 247        0.66693
     246 -> 248        0.21885

 Excited State   3:      Singlet-A      2.9588 eV  419.04 nm  f=0.0002  <S**2>=0.000
     243 -> 247        0.67976
     243 -> 248       -0.11882
     243 -> 250        0.12767

 Excited State   4:      Singlet-A      3.1504 eV  393.55 nm  f=0.0013  <S**2>=0.000
     240 -> 247       -0.14143
     241 -> 247        0.52286
     241 -> 249       -0.17059
     242 -> 247       -0.40097

 Excited State   5:      Singlet-A      3.2047 eV  386.89 nm  f=0.0031  <S**2>=0.000
     240 -> 247       -0.10818
     241 -> 247        0.37958
     242 -> 247        0.57313

 The electronic state is 1-A.
 Alpha  occ. eigenvalues --  -46.91490 -19.26275 -19.26034 -19.20410 -19.19789
 Alpha  occ. eigenvalues --  -19.19582 -19.18846 -14.41354 -14.40588 -14.39521
 Alpha  occ. eigenvalues --  -14.39202 -10.37204 -10.36254 -10.33161 -10.32667
 Alpha  occ. eigenvalues --  -10.29302 -10.29069 -10.28985 -10.28389 -10.28002
 Alpha  occ. eigenvalues --  -10.27716 -10.27631 -10.27551 -10.27389 -10.27119
 Alpha  occ. eigenvalues --  -10.26699 -10.26181 -10.25732 -10.25662 -10.25638
 Alpha  occ. eigenvalues --  -10.25572 -10.25461 -10.25328 -10.24910 -10.24830
 Alpha  occ. eigenvalues --  -10.24651 -10.24628 -10.24573 -10.24252 -10.24165
 Alpha  occ. eigenvalues --  -10.24018 -10.23950 -10.23849 -10.23804 -10.23623
 Alpha  occ. eigenvalues --  -10.23556 -10.23519 -10.23508 -10.23367 -10.23350
 Alpha  occ. eigenvalues --  -10.23316 -10.23260 -10.23054 -10.23052 -10.22770
 Alpha  occ. eigenvalues --  -10.22303 -10.22250 -10.22239 -10.22155 -10.22003
 Alpha  occ. eigenvalues --  -10.21893 -10.21778 -10.21647 -10.21634 -10.21501
 Alpha  occ. eigenvalues --  -10.21289  -3.13829  -1.86661  -1.86184  -1.86097
 Alpha  occ. eigenvalues --   -1.11485  -1.09512  -1.04626  -1.03594  -1.02326
 Alpha  occ. eigenvalues --   -1.01364  -0.99998  -0.99074  -0.98407  -0.96047
 Alpha  occ. eigenvalues --   -0.87072  -0.84591  -0.84482  -0.83757  -0.83345
 Alpha  occ. eigenvalues --   -0.82934  -0.82662  -0.82302  -0.81143  -0.81049
 Alpha  occ. eigenvalues --   -0.80513  -0.79737  -0.78428  -0.78238  -0.77387
 Alpha  occ. eigenvalues --   -0.76901  -0.75841  -0.75099  -0.74806  -0.74552
 Alpha  occ. eigenvalues --   -0.74126  -0.72424  -0.72167  -0.72008  -0.70622
 Alpha  occ. eigenvalues --   -0.70253  -0.69949  -0.69830  -0.69201  -0.68203
 Alpha  occ. eigenvalues --   -0.67956  -0.67494  -0.65992  -0.65047  -0.64666
 Alpha  occ. eigenvalues --   -0.63646  -0.62437  -0.61661  -0.60782  -0.59970
 Alpha  occ. eigenvalues --   -0.59783  -0.59635  -0.58926  -0.58857  -0.58229
 Alpha  occ. eigenvalues --   -0.58027  -0.57502  -0.56912  -0.56285  -0.54748
 Alpha  occ. eigenvalues --   -0.54467  -0.54019  -0.53605  -0.53085  -0.52909
 Alpha  occ. eigenvalues --   -0.52392  -0.51913  -0.50694  -0.50287  -0.50051
 Alpha  occ. eigenvalues --   -0.49724  -0.49376  -0.48990  -0.48612  -0.48448
 Alpha  occ. eigenvalues --   -0.48335  -0.47919  -0.47711  -0.47242  -0.47011
 Alpha  occ. eigenvalues --   -0.46917  -0.46477  -0.46401  -0.46269  -0.46016
 Alpha  occ. eigenvalues --   -0.45983  -0.45849  -0.45780  -0.45265  -0.44977
 Alpha  occ. eigenvalues --   -0.44589  -0.44516  -0.44324  -0.44243  -0.44229
 Alpha  occ. eigenvalues --   -0.44013  -0.43946  -0.43800  -0.43597  -0.43409
 Alpha  occ. eigenvalues --   -0.43196  -0.43045  -0.42830  -0.42527  -0.42352
 Alpha  occ. eigenvalues --   -0.42247  -0.41902  -0.41846  -0.41512  -0.41100
 Alpha  occ. eigenvalues --   -0.40899  -0.40842  -0.40709  -0.40602  -0.40431
 Alpha  occ. eigenvalues --   -0.40273  -0.40094  -0.39900  -0.39797  -0.39643
 Alpha  occ. eigenvalues --   -0.39510  -0.39481  -0.39303  -0.38979  -0.38789
 Alpha  occ. eigenvalues --   -0.38742  -0.38560  -0.38258  -0.38005  -0.37967
 Alpha  occ. eigenvalues --   -0.37651  -0.37615  -0.37468  -0.37362  -0.37300
 Alpha  occ. eigenvalues --   -0.36721  -0.36615  -0.36510  -0.36381  -0.36034
 Alpha  occ. eigenvalues --   -0.35904  -0.35838  -0.35527  -0.35323  -0.35280
 Alpha  occ. eigenvalues --   -0.34723  -0.34193  -0.34113  -0.33567  -0.33454
 Alpha  occ. eigenvalues --   -0.33058  -0.33045  -0.32868  -0.32821  -0.32340
 Alpha  occ. eigenvalues --   -0.32147  -0.31962  -0.31923  -0.31511  -0.31485
 Alpha  occ. eigenvalues --   -0.30736  -0.30084  -0.29957  -0.29416  -0.29364
 Alpha  occ. eigenvalues --   -0.28695  -0.28598  -0.28409  -0.27323  -0.26345
 Alpha  occ. eigenvalues --   -0.26176  -0.25955  -0.25219  -0.24554  -0.20728
 Alpha  occ. eigenvalues --   -0.19007
 Alpha virt. eigenvalues --   -0.11238  -0.04757  -0.03808  -0.01960  -0.00460
 Alpha virt. eigenvalues --    0.00388   0.00605   0.01299   0.01589   0.03214
 Alpha virt. eigenvalues --    0.03906   0.04467   0.05409   0.05605   0.05861

 Mulliken charges:
               1
     1  Mg   1.008399
     2  C   -0.006191
     3  C   -0.064119
     4  C   -0.036253
     5  C   -0.086205
     6  N   -0.392353
     7  C   -0.010102
     8  C   -0.049831
     9  C   -0.130843
    10  C    0.070690
    11  C    0.032277
    12  C    0.040862
    13  C   -0.085037
    14  C    0.237181
    15  O   -0.274348
    16  O   -0.347007
    17  N   -0.460311
    18  C    0.164109
    19  C   -0.171513
    20  C   -0.098855
    21  C    0.149873
    22  C    0.053886
    23  C    0.039365
    24  O   -0.255355
    25  C   -0.006384
    26  N   -0.403714
    27  C    0.055742
    28  C   -0.100455
    29  C   -0.055475
    30  C   -0.002553
    31  C    0.025132
    32  C   -0.030241
    33  C   -0.062392
    34  N   -0.528861
    35  C    0.236637
    36  C   -0.224144
    37  C    0.005772
    38  C    0.153382
    39  C    0.075150
    40  C    0.157566
    41  O   -0.209723
    42  C   -0.171681
    43  C    0.315099
    44  O   -0.266947
    45  O   -0.389610
    46  C    0.103188
    47  C    0.217711
    48  C   -0.092726
    49  C   -0.231125
    50  C    0.019919
    51  C   -0.005961
    52  C   -0.067634
    53  C   -0.004923
    54  C   -0.218547
    55  C    0.019584
    56  C    0.005010
    57  C   -0.066994
    58  C    0.034788
    59  C   -0.237318
    60  C   -0.017058
    61  C   -0.021783
    62  C   -0.037507
    63  C   -0.028951
    64  C   -0.262015
    65  C    0.007355
    66  C   -0.016289
    67  H   -0.013553
    68  H    0.025063
    69  H   -0.011127
    70  H    0.056762
    71  H    0.049302
    72  H    0.034549
    73  H    0.032674
    74  H    0.062371
    75  H    0.060942
    76  H    0.046105
    77  H    0.082800
    78  H    0.053215
    79  H    0.052107
    80  H    0.044595
    81  H    0.063954
    82  H    0.063540
    83  H    0.070238
    84  H    0.057097
    85  H    0.057210
    86  H    0.039208
    87  H    0.046560
    88  H    0.051806
    89  H    0.046021
    90  H    0.040864
    91  H    0.032237
    92  H    0.032237
    93  H    0.042897
    94  H    0.045393
    95  H    0.065529
    96  H    0.016918
    97  H    0.060141
    98  H    0.088263
    99  H    0.062025
   100  H    0.062365
   101  H    0.086314
   102  H    0.070384
   103  H    0.050786
   104  H    0.027801
   105  H    0.044569
   106  H    0.035342
   107  H    0.051080
   108  H    0.025963
   109  H    0.055651
   110  H    0.033770
   111  H    0.033167
   112  H    0.013837
   113  H    0.025281
   114  H    0.032072
   115  H    0.034534
   116  H    0.029510
   117  H    0.043422
   118  H    0.015088
   119  H    0.024171
   120  H    0.026121
   121  H    0.031371
   122  H    0.021693
   123  H    0.027543
   124  H    0.036584
   125  H    0.039171
   126  H    0.030699
   127  H    0.035415
   128  H    0.017172
   129  H    0.022169
   130  H    0.020881
   131  H    0.029598
   132  H    0.029452
   133  H    0.026583
   134  H    0.037934
   135  H    0.036394
   136  H    0.028473
   137  H    0.030326
   138  H    0.041886
   139  H    0.036780
   140  H    0.041366
 Sum of Mulliken charges =  -0.00000

 Dipole moment (field-independent basis, Debye):
    X=             -2.3208    Y=              1.8460    Z=             -0.4059  Tot=              2.9931
 Quadrupole moment (field-independent basis, Debye-Ang):
   XX=           -370.3792   YY=           -416.1439   ZZ=           -401.2812
   XY=             10.5296   XZ=             24.2258   YZ=             -3.3924

 Normal termination of Gaussian 16 at Wed May  4 12:59:33 2022.
