 Gaussian 16, Revision A.03,
 Gaussian 16:  ES64L-G16RevA.03 25-Dec-2016

 --------------------------------
 #p wB97XD/Def2SVP td=(nstates=5)
 --------------------------------

 -----------------------------------------------------
 step_1751_chromophore_10 TDDFT with wB97XD functional
 -----------------------------------------------------
 Symbolic Z-matrix:
 Charge =  0 Multiplicity = 1

                         Standard orientation:
 ---------------------------------------------------------------------
 Center     Atomic      Atomic             Coordinates (Angstroms)
 Number     Number       Type             X           Y           Z
 ---------------------------------------------------------------------
      1         12           0        6.270860    0.517298    0.187441
      2          6           0        3.962881   -2.112276   -0.057962
      3          6           0        3.896948    2.357508   -1.595360
      4          6           0        8.528127    3.013890   -0.086519
      5          6           0        8.544235   -1.448755    1.487709
      6          7           0        4.232056    0.055417   -0.854272
      7          6           0        3.403827   -1.046896   -0.615921
      8          6           0        1.935299   -0.783548   -0.953557
      9          6           0        2.038066    0.640944   -1.627847
     10          6           0        3.476968    1.094139   -1.404604
     11          6           0        1.491689    0.744192   -3.055256
     12          6           0        0.908760   -0.898445    0.254793
     13          6           0        0.057400   -2.162432    0.169355
     14          6           0       -1.427874   -2.038188    0.443495
     15          8           0       -1.897389   -1.313984    1.316682
     16          8           0       -2.173390   -2.789302   -0.405751
     17          7           0        6.093694    2.478583   -0.555009
     18          6           0        5.075899    3.077611   -1.198856
     19          6           0        5.342468    4.460884   -1.380050
     20          6           0        6.664587    4.664824   -0.964115
     21          6           0        7.154522    3.335616   -0.474203
     22          6           0        4.345972    5.422696   -2.096962
     23          6           0        7.362259    6.059444   -0.873090
     24          8           0        8.534205    6.139821   -0.480075
     25          6           0        6.621958    7.392248   -1.143161
     26          7           0        8.274714    0.796391    0.773241
     27          6           0        9.064777    1.848050    0.483602
     28          6           0       10.458390    1.680348    1.089374
     29          6           0       10.358856    0.322203    1.826287
     30          6           0        9.015933   -0.149525    1.390378
     31          6           0       11.625388    1.778660    0.074231
     32          6           0       10.445037    0.392519    3.326091
     33          6           0        9.241722    0.806314    4.194239
     34          7           0        6.312757   -1.356451    0.691859
     35          6           0        7.335650   -2.055339    1.224818
     36          6           0        6.919206   -3.409493    1.369535
     37          6           0        5.597858   -3.559787    0.955456
     38          6           0        5.291751   -2.217495    0.485769
     39          6           0        7.760814   -4.572074    1.874611
     40          6           0        4.426662   -4.400438    0.776140
     41          8           0        4.228797   -5.579308    1.048153
     42          6           0        3.267824   -3.412232    0.210703
     43          6           0        2.686069   -4.084276   -1.048562
     44          8           0        3.181180   -4.017443   -2.184809
     45          8           0        1.448137   -4.676170   -0.793348
     46          6           0        0.757236   -5.247964   -2.022964
     47          6           0       -3.571799   -2.981625   -0.000215
     48          6           0       -4.579256   -2.382831   -0.919088
     49          6           0       -5.870342   -2.773946   -0.912907
     50          6           0       -6.462183   -3.963525   -0.138739
     51          6           0       -6.833628   -2.158791   -1.957219
     52          6           0       -7.124342   -0.678629   -1.618720
     53          6           0       -8.256685   -0.135309   -2.597853
     54          6           0       -9.712989   -0.081431   -2.089534
     55          6           0      -10.699932   -0.812651   -2.950760
     56          6           0      -10.061853    1.422521   -1.810555
     57          6           0      -11.070706    1.563811   -0.639482
     58          6           0      -12.452068    2.174741   -0.826660
     59          6           0      -13.615280    1.115597   -0.714317
     60          6           0      -14.400892    0.831654   -2.082602
     61          6           0      -14.625242    1.609595    0.385225
     62          6           0      -14.321294    1.159004    1.787595
     63          6           0      -14.283233    2.257508    2.824093
     64          6           0      -14.983610    1.919964    4.178514
     65          6           0      -16.424911    2.388463    4.200471
     66          6           0      -13.989876    2.415175    5.324707
     67          1           0        3.074899    2.922544   -2.040489
     68          1           0        9.291241    3.792239   -0.140710
     69          1           0        9.386786   -2.038790    1.854885
     70          1           0        1.712544   -1.538790   -1.708037
     71          1           0        1.468694    1.304276   -0.976376
     72          1           0        0.776653    1.565601   -3.098417
     73          1           0        0.791813   -0.073329   -3.225895
     74          1           0        2.231882    0.728872   -3.855043
     75          1           0        0.294168   -0.016026    0.429146
     76          1           0        1.432981   -1.097225    1.189728
     77          1           0        0.532896   -2.926662    0.784238
     78          1           0        0.188517   -2.642150   -0.800421
     79          1           0        4.118386    6.278380   -1.461829
     80          1           0        3.420305    4.928285   -2.392528
     81          1           0        4.827539    5.786364   -3.005167
     82          1           0        7.270772    8.259547   -1.023773
     83          1           0        5.831312    7.355225   -0.393580
     84          1           0        6.258004    7.271460   -2.164165
     85          1           0       10.629683    2.460331    1.832211
     86          1           0       11.091016   -0.445981    1.579256
     87          1           0       12.281970    2.622568    0.285147
     88          1           0       11.164008    2.009823   -0.885851
     89          1           0       12.163491    0.833882    0.155977
     90          1           0       11.289837    1.005632    3.638008
     91          1           0       10.709559   -0.616838    3.641254
     92          1           0        8.521150    0.061790    4.532196
     93          1           0        8.528145    1.405078    3.626814
     94          1           0        9.539782    1.221094    5.156536
     95          1           0        7.268781   -4.989787    2.753395
     96          1           0        8.778866   -4.277440    2.130412
     97          1           0        7.962883   -5.321939    1.110048
     98          1           0        2.531106   -3.241580    0.995560
     99          1           0       -0.093231   -4.612452   -2.267607
    100          1           0        0.302450   -6.213771   -1.801194
    101          1           0        1.459262   -5.358365   -2.849056
    102          1           0       -3.869911   -2.670397    1.001638
    103          1           0       -3.622604   -4.064477    0.116455
    104          1           0       -4.311084   -1.569673   -1.594650
    105          1           0       -7.220715   -3.568706    0.537255
    106          1           0       -5.753773   -4.532009    0.463477
    107          1           0       -7.041217   -4.602271   -0.805505
    108          1           0       -7.812956   -2.637121   -1.930210
    109          1           0       -6.348475   -2.346258   -2.914550
    110          1           0       -6.251759   -0.028209   -1.673650
    111          1           0       -7.432445   -0.626176   -0.574786
    112          1           0       -8.295557   -0.748577   -3.498399
    113          1           0       -7.831631    0.837812   -2.847362
    114          1           0       -9.583048   -0.546125   -1.112530
    115          1           0      -10.270488   -1.693822   -3.426523
    116          1           0      -10.994619   -0.227056   -3.821648
    117          1           0      -11.605631   -1.008988   -2.375604
    118          1           0      -10.482047    1.915294   -2.687762
    119          1           0       -9.171097    2.023998   -1.628074
    120          1           0      -10.618438    2.177465    0.139202
    121          1           0      -11.137135    0.520720   -0.329393
    122          1           0      -12.494614    2.688596   -1.786248
    123          1           0      -12.631080    2.922834   -0.054401
    124          1           0      -13.208755    0.168418   -0.357708
    125          1           0      -14.690153   -0.218270   -2.109708
    126          1           0      -13.780230    1.102820   -2.936235
    127          1           0      -15.305940    1.431646   -2.179837
    128          1           0      -15.640424    1.273982    0.172068
    129          1           0      -14.705495    2.696264    0.362954
    130          1           0      -13.279509    0.840053    1.797412
    131          1           0      -14.857409    0.227724    1.968617
    132          1           0      -14.753759    3.176383    2.473789
    133          1           0      -13.215005    2.443854    2.939090
    134          1           0      -15.034621    0.831270    4.186616
    135          1           0      -17.149112    1.606034    3.972798
    136          1           0      -16.596825    3.174086    3.465695
    137          1           0      -16.658251    2.781336    5.190007
    138          1           0      -13.904750    1.483725    5.883267
    139          1           0      -14.434732    3.194226    5.945004
    140          1           0      -13.040313    2.740296    4.900626
 ---------------------------------------------------------------------

 SCF Done:  E(RwB97XD) =  -3007.86366522     A.U. after   20 cycles

 Excitation energies and oscillator strengths:

 Excited State   1:      Singlet-A      1.6736 eV  740.80 nm  f=0.3802  <S**2>=0.000
     245 -> 248       -0.17553
     246 -> 247        0.68488
     245 <- 248       -0.11220
 This state for optimization and/or second-order correction.
 Total Energy, E(TD-HF/TD-DFT) =  -3007.80215998
 Copying the excited state density for this state as the 1-particle RhoCI density.

 Excited State   2:      Singlet-A      2.1654 eV  572.56 nm  f=0.1737  <S**2>=0.000
     245 -> 247        0.65796
     246 -> 248        0.24367

 Excited State   3:      Singlet-A      3.5311 eV  351.12 nm  f=0.0047  <S**2>=0.000
     241 -> 247        0.19560
     242 -> 247        0.63369
     243 -> 247        0.13293
     246 -> 248       -0.14228

 Excited State   4:      Singlet-A      3.5549 eV  348.77 nm  f=0.0031  <S**2>=0.000
     242 -> 247       -0.12239
     243 -> 247        0.52700
     243 -> 248       -0.21374
     243 -> 249        0.17676
     243 -> 250        0.31676

 Excited State   5:      Singlet-A      3.6683 eV  337.99 nm  f=0.0613  <S**2>=0.000
     240 -> 247        0.41752
     240 -> 249       -0.33555
     240 -> 250        0.10383
     241 -> 247        0.28488
     242 -> 247       -0.12848
     246 -> 248       -0.24685

 The electronic state is 1-A.
 Alpha  occ. eigenvalues --  -46.94420 -19.30820 -19.30555 -19.25076 -19.24524
 Alpha  occ. eigenvalues --  -19.24238 -19.23761 -14.46532 -14.45552 -14.44538
 Alpha  occ. eigenvalues --  -14.44089 -10.43998 -10.43027 -10.39953 -10.39567
 Alpha  occ. eigenvalues --  -10.35781 -10.35561 -10.35438 -10.34767 -10.34158
 Alpha  occ. eigenvalues --  -10.34108 -10.34067 -10.33843 -10.33598 -10.33263
 Alpha  occ. eigenvalues --  -10.33052 -10.32404 -10.32303 -10.31998 -10.31907
 Alpha  occ. eigenvalues --  -10.31853 -10.31817 -10.31656 -10.31427 -10.31241
 Alpha  occ. eigenvalues --  -10.31159 -10.30978 -10.30729 -10.30622 -10.30565
 Alpha  occ. eigenvalues --  -10.30524 -10.30469 -10.30241 -10.30194 -10.29951
 Alpha  occ. eigenvalues --  -10.29899 -10.29892 -10.29891 -10.29706 -10.29628
 Alpha  occ. eigenvalues --  -10.29619 -10.29534 -10.29448 -10.29317 -10.29168
 Alpha  occ. eigenvalues --  -10.28697 -10.28667 -10.28589 -10.28524 -10.28437
 Alpha  occ. eigenvalues --  -10.28298 -10.28150 -10.28061 -10.27992 -10.27860
 Alpha  occ. eigenvalues --  -10.27662  -3.20601  -1.94185  -1.93713  -1.93617
 Alpha  occ. eigenvalues --   -1.18846  -1.16895  -1.12038  -1.11179  -1.09655
 Alpha  occ. eigenvalues --   -1.08710  -1.07351  -1.06373  -1.05853  -1.03424
 Alpha  occ. eigenvalues --   -0.94616  -0.92264  -0.92029  -0.91420  -0.90970
 Alpha  occ. eigenvalues --   -0.90583  -0.90271  -0.89862  -0.88887  -0.88712
 Alpha  occ. eigenvalues --   -0.88099  -0.87367  -0.86088  -0.85823  -0.85024
 Alpha  occ. eigenvalues --   -0.84542  -0.83534  -0.82863  -0.82456  -0.82190
 Alpha  occ. eigenvalues --   -0.81800  -0.80078  -0.79778  -0.79678  -0.78226
 Alpha  occ. eigenvalues --   -0.77926  -0.77541  -0.77522  -0.76868  -0.75829
 Alpha  occ. eigenvalues --   -0.75529  -0.75063  -0.73551  -0.72580  -0.72265
 Alpha  occ. eigenvalues --   -0.71142  -0.70065  -0.69281  -0.68416  -0.67428
 Alpha  occ. eigenvalues --   -0.67253  -0.67108  -0.66497  -0.66343  -0.65920
 Alpha  occ. eigenvalues --   -0.65467  -0.65167  -0.64539  -0.63670  -0.62218
 Alpha  occ. eigenvalues --   -0.61987  -0.61420  -0.60977  -0.60548  -0.60328
 Alpha  occ. eigenvalues --   -0.59813  -0.59265  -0.58087  -0.57714  -0.57388
 Alpha  occ. eigenvalues --   -0.57133  -0.56827  -0.56352  -0.56023  -0.55840
 Alpha  occ. eigenvalues --   -0.55779  -0.55226  -0.55055  -0.54653  -0.54579
 Alpha  occ. eigenvalues --   -0.54271  -0.53864  -0.53721  -0.53632  -0.53379
 Alpha  occ. eigenvalues --   -0.53312  -0.53236  -0.53162  -0.52633  -0.52323
 Alpha  occ. eigenvalues --   -0.52078  -0.51834  -0.51722  -0.51639  -0.51532
 Alpha  occ. eigenvalues --   -0.51318  -0.51243  -0.51109  -0.50877  -0.50681
 Alpha  occ. eigenvalues --   -0.50456  -0.50415  -0.50146  -0.49811  -0.49653
 Alpha  occ. eigenvalues --   -0.49603  -0.49152  -0.49118  -0.48711  -0.48355
 Alpha  occ. eigenvalues --   -0.48155  -0.48062  -0.47894  -0.47813  -0.47659
 Alpha  occ. eigenvalues --   -0.47507  -0.47253  -0.47073  -0.46987  -0.46807
 Alpha  occ. eigenvalues --   -0.46688  -0.46654  -0.46406  -0.46074  -0.45978
 Alpha  occ. eigenvalues --   -0.45864  -0.45714  -0.45474  -0.45184  -0.45089
 Alpha  occ. eigenvalues --   -0.44791  -0.44721  -0.44503  -0.44463  -0.44427
 Alpha  occ. eigenvalues --   -0.43965  -0.43632  -0.43500  -0.43451  -0.43127
 Alpha  occ. eigenvalues --   -0.42949  -0.42890  -0.42530  -0.42409  -0.42307
 Alpha  occ. eigenvalues --   -0.41660  -0.41226  -0.41107  -0.40586  -0.40425
 Alpha  occ. eigenvalues --   -0.40118  -0.40059  -0.39902  -0.39766  -0.39327
 Alpha  occ. eigenvalues --   -0.39224  -0.39010  -0.38900  -0.38562  -0.38491
 Alpha  occ. eigenvalues --   -0.37746  -0.37004  -0.36760  -0.36468  -0.36370
 Alpha  occ. eigenvalues --   -0.35712  -0.35529  -0.35025  -0.33926  -0.33197
 Alpha  occ. eigenvalues --   -0.32831  -0.32617  -0.32481  -0.31303  -0.25673
 Alpha  occ. eigenvalues --   -0.23252
 Alpha virt. eigenvalues --   -0.07135   0.00800   0.02538   0.04478   0.06013
 Alpha virt. eigenvalues --    0.06605   0.07444   0.08023   0.08254   0.09495
 Alpha virt. eigenvalues --    0.10535   0.11311   0.12149   0.12298   0.12613

 Mulliken charges:
               1
     1  Mg   0.995569
     2  C   -0.005751
     3  C   -0.081240
     4  C   -0.053411
     5  C   -0.098525
     6  N   -0.362728
     7  C   -0.044707
     8  C   -0.022579
     9  C   -0.101409
    10  C    0.057225
    11  C    0.041630
    12  C    0.048545
    13  C   -0.053727
    14  C    0.226534
    15  O   -0.272031
    16  O   -0.345368
    17  N   -0.426849
    18  C    0.159776
    19  C   -0.166281
    20  C   -0.090329
    21  C    0.142763
    22  C    0.068066
    23  C    0.033763
    24  O   -0.250562
    25  C    0.010440
    26  N   -0.366916
    27  C    0.042078
    28  C   -0.079492
    29  C   -0.025859
    30  C   -0.021649
    31  C    0.036314
    32  C   -0.020507
    33  C   -0.043132
    34  N   -0.489412
    35  C    0.228819
    36  C   -0.218346
    37  C    0.006522
    38  C    0.137018
    39  C    0.085371
    40  C    0.139117
    41  O   -0.201494
    42  C   -0.128583
    43  C    0.293200
    44  O   -0.261857
    45  O   -0.389003
    46  C    0.119304
    47  C    0.229897
    48  C   -0.104871
    49  C   -0.217342
    50  C    0.035883
    51  C    0.013823
    52  C   -0.050211
    53  C    0.009006
    54  C   -0.181322
    55  C    0.032678
    56  C    0.013321
    57  C   -0.044010
    58  C    0.047174
    59  C   -0.207548
    60  C   -0.003062
    61  C   -0.004213
    62  C   -0.023304
    63  C   -0.009217
    64  C   -0.235406
    65  C    0.018188
    66  C   -0.001532
    67  H   -0.024490
    68  H    0.021720
    69  H   -0.019288
    70  H    0.040477
    71  H    0.037534
    72  H    0.029258
    73  H    0.026565
    74  H    0.058348
    75  H    0.055385
    76  H    0.037672
    77  H    0.073280
    78  H    0.032905
    79  H    0.046231
    80  H    0.041710
    81  H    0.058515
    82  H    0.063385
    83  H    0.063777
    84  H    0.049983
    85  H    0.047771
    86  H    0.030209
    87  H    0.041760
    88  H    0.045096
    89  H    0.040377
    90  H    0.033366
    91  H    0.024249
    92  H    0.025621
    93  H    0.031024
    94  H    0.041194
    95  H    0.060928
    96  H    0.010409
    97  H    0.055456
    98  H    0.077339
    99  H    0.059320
   100  H    0.058571
   101  H    0.082627
   102  H    0.065516
   103  H    0.045317
   104  H    0.026230
   105  H    0.037853
   106  H    0.030299
   107  H    0.045675
   108  H    0.014919
   109  H    0.048566
   110  H    0.026177
   111  H    0.023126
   112  H    0.003330
   113  H    0.017031
   114  H    0.015748
   115  H    0.028602
   116  H    0.022915
   117  H    0.035305
   118  H    0.004919
   119  H    0.016569
   120  H    0.019971
   121  H    0.015321
   122  H    0.012963
   123  H    0.017690
   124  H    0.021946
   125  H    0.033985
   126  H    0.023262
   127  H    0.029487
   128  H    0.008976
   129  H    0.010752
   130  H    0.008517
   131  H    0.023139
   132  H    0.017193
   133  H    0.017141
   134  H    0.025417
   135  H    0.031410
   136  H    0.021736
   137  H    0.024169
   138  H    0.036047
   139  H    0.030994
   140  H    0.035263
 Sum of Mulliken charges =  -0.00000

 Dipole moment (field-independent basis, Debye):
    X=             -2.3495    Y=              2.1598    Z=             -0.5074  Tot=              3.2315
 Quadrupole moment (field-independent basis, Debye-Ang):
   XX=           -370.5973   YY=           -413.8652   ZZ=           -400.9246
   XY=             12.5810   XZ=             23.4857   YZ=             -3.6463

 Normal termination of Gaussian 16 at Wed May  4 13:39:29 2022.
