 Gaussian 16, Revision A.03,
 Gaussian 16:  ES64L-G16RevA.03 25-Dec-2016

 --------------------
 #p ZINDO=(nstates=5)
 --------------------

 ------------------------------
 step_1751_chromophore_10 ZINDO
 ------------------------------
 Symbolic Z-matrix:
 Charge =  0 Multiplicity = 1

                         Standard orientation:
 ---------------------------------------------------------------------
 Center     Atomic      Atomic             Coordinates (Angstroms)
 Number     Number       Type             X           Y           Z
 ---------------------------------------------------------------------
      1         12           0        6.270860    0.517298    0.187441
      2          6           0        3.962881   -2.112276   -0.057962
      3          6           0        3.896948    2.357508   -1.595360
      4          6           0        8.528127    3.013890   -0.086519
      5          6           0        8.544235   -1.448755    1.487709
      6          7           0        4.232056    0.055417   -0.854272
      7          6           0        3.403827   -1.046896   -0.615921
      8          6           0        1.935299   -0.783548   -0.953557
      9          6           0        2.038066    0.640944   -1.627847
     10          6           0        3.476968    1.094139   -1.404604
     11          6           0        1.491689    0.744192   -3.055256
     12          6           0        0.908760   -0.898445    0.254793
     13          6           0        0.057400   -2.162432    0.169355
     14          6           0       -1.427874   -2.038188    0.443495
     15          8           0       -1.897389   -1.313984    1.316682
     16          8           0       -2.173390   -2.789302   -0.405751
     17          7           0        6.093694    2.478583   -0.555009
     18          6           0        5.075899    3.077611   -1.198856
     19          6           0        5.342468    4.460884   -1.380050
     20          6           0        6.664587    4.664824   -0.964115
     21          6           0        7.154522    3.335616   -0.474203
     22          6           0        4.345972    5.422696   -2.096962
     23          6           0        7.362259    6.059444   -0.873090
     24          8           0        8.534205    6.139821   -0.480075
     25          6           0        6.621958    7.392248   -1.143161
     26          7           0        8.274714    0.796391    0.773241
     27          6           0        9.064777    1.848050    0.483602
     28          6           0       10.458390    1.680348    1.089374
     29          6           0       10.358856    0.322203    1.826287
     30          6           0        9.015933   -0.149525    1.390378
     31          6           0       11.625388    1.778660    0.074231
     32          6           0       10.445037    0.392519    3.326091
     33          6           0        9.241722    0.806314    4.194239
     34          7           0        6.312757   -1.356451    0.691859
     35          6           0        7.335650   -2.055339    1.224818
     36          6           0        6.919206   -3.409493    1.369535
     37          6           0        5.597858   -3.559787    0.955456
     38          6           0        5.291751   -2.217495    0.485769
     39          6           0        7.760814   -4.572074    1.874611
     40          6           0        4.426662   -4.400438    0.776140
     41          8           0        4.228797   -5.579308    1.048153
     42          6           0        3.267824   -3.412232    0.210703
     43          6           0        2.686069   -4.084276   -1.048562
     44          8           0        3.181180   -4.017443   -2.184809
     45          8           0        1.448137   -4.676170   -0.793348
     46          6           0        0.757236   -5.247964   -2.022964
     47          6           0       -3.571799   -2.981625   -0.000215
     48          6           0       -4.579256   -2.382831   -0.919088
     49          6           0       -5.870342   -2.773946   -0.912907
     50          6           0       -6.462183   -3.963525   -0.138739
     51          6           0       -6.833628   -2.158791   -1.957219
     52          6           0       -7.124342   -0.678629   -1.618720
     53          6           0       -8.256685   -0.135309   -2.597853
     54          6           0       -9.712989   -0.081431   -2.089534
     55          6           0      -10.699932   -0.812651   -2.950760
     56          6           0      -10.061853    1.422521   -1.810555
     57          6           0      -11.070706    1.563811   -0.639482
     58          6           0      -12.452068    2.174741   -0.826660
     59          6           0      -13.615280    1.115597   -0.714317
     60          6           0      -14.400892    0.831654   -2.082602
     61          6           0      -14.625242    1.609595    0.385225
     62          6           0      -14.321294    1.159004    1.787595
     63          6           0      -14.283233    2.257508    2.824093
     64          6           0      -14.983610    1.919964    4.178514
     65          6           0      -16.424911    2.388463    4.200471
     66          6           0      -13.989876    2.415175    5.324707
     67          1           0        3.074899    2.922544   -2.040489
     68          1           0        9.291241    3.792239   -0.140710
     69          1           0        9.386786   -2.038790    1.854885
     70          1           0        1.712544   -1.538790   -1.708037
     71          1           0        1.468694    1.304276   -0.976376
     72          1           0        0.776653    1.565601   -3.098417
     73          1           0        0.791813   -0.073329   -3.225895
     74          1           0        2.231882    0.728872   -3.855043
     75          1           0        0.294168   -0.016026    0.429146
     76          1           0        1.432981   -1.097225    1.189728
     77          1           0        0.532896   -2.926662    0.784238
     78          1           0        0.188517   -2.642150   -0.800421
     79          1           0        4.118386    6.278380   -1.461829
     80          1           0        3.420305    4.928285   -2.392528
     81          1           0        4.827539    5.786364   -3.005167
     82          1           0        7.270772    8.259547   -1.023773
     83          1           0        5.831312    7.355225   -0.393580
     84          1           0        6.258004    7.271460   -2.164165
     85          1           0       10.629683    2.460331    1.832211
     86          1           0       11.091016   -0.445981    1.579256
     87          1           0       12.281970    2.622568    0.285147
     88          1           0       11.164008    2.009823   -0.885851
     89          1           0       12.163491    0.833882    0.155977
     90          1           0       11.289837    1.005632    3.638008
     91          1           0       10.709559   -0.616838    3.641254
     92          1           0        8.521150    0.061790    4.532196
     93          1           0        8.528145    1.405078    3.626814
     94          1           0        9.539782    1.221094    5.156536
     95          1           0        7.268781   -4.989787    2.753395
     96          1           0        8.778866   -4.277440    2.130412
     97          1           0        7.962883   -5.321939    1.110048
     98          1           0        2.531106   -3.241580    0.995560
     99          1           0       -0.093231   -4.612452   -2.267607
    100          1           0        0.302450   -6.213771   -1.801194
    101          1           0        1.459262   -5.358365   -2.849056
    102          1           0       -3.869911   -2.670397    1.001638
    103          1           0       -3.622604   -4.064477    0.116455
    104          1           0       -4.311084   -1.569673   -1.594650
    105          1           0       -7.220715   -3.568706    0.537255
    106          1           0       -5.753773   -4.532009    0.463477
    107          1           0       -7.041217   -4.602271   -0.805505
    108          1           0       -7.812956   -2.637121   -1.930210
    109          1           0       -6.348475   -2.346258   -2.914550
    110          1           0       -6.251759   -0.028209   -1.673650
    111          1           0       -7.432445   -0.626176   -0.574786
    112          1           0       -8.295557   -0.748577   -3.498399
    113          1           0       -7.831631    0.837812   -2.847362
    114          1           0       -9.583048   -0.546125   -1.112530
    115          1           0      -10.270488   -1.693822   -3.426523
    116          1           0      -10.994619   -0.227056   -3.821648
    117          1           0      -11.605631   -1.008988   -2.375604
    118          1           0      -10.482047    1.915294   -2.687762
    119          1           0       -9.171097    2.023998   -1.628074
    120          1           0      -10.618438    2.177465    0.139202
    121          1           0      -11.137135    0.520720   -0.329393
    122          1           0      -12.494614    2.688596   -1.786248
    123          1           0      -12.631080    2.922834   -0.054401
    124          1           0      -13.208755    0.168418   -0.357708
    125          1           0      -14.690153   -0.218270   -2.109708
    126          1           0      -13.780230    1.102820   -2.936235
    127          1           0      -15.305940    1.431646   -2.179837
    128          1           0      -15.640424    1.273982    0.172068
    129          1           0      -14.705495    2.696264    0.362954
    130          1           0      -13.279509    0.840053    1.797412
    131          1           0      -14.857409    0.227724    1.968617
    132          1           0      -14.753759    3.176383    2.473789
    133          1           0      -13.215005    2.443854    2.939090
    134          1           0      -15.034621    0.831270    4.186616
    135          1           0      -17.149112    1.606034    3.972798
    136          1           0      -16.596825    3.174086    3.465695
    137          1           0      -16.658251    2.781336    5.190007
    138          1           0      -13.904750    1.483725    5.883267
    139          1           0      -14.434732    3.194226    5.945004
    140          1           0      -13.040313    2.740296    4.900626
 ---------------------------------------------------------------------

 SCF Done:  E(RZINDO/S) =  -474.291740889     A.U. after   20 cycles

 Excitation energies and oscillator strengths:

 Excited State   1:      Singlet-A      1.2324 eV 1006.04 nm  f=0.6185  <S**2>=0.000
     175 ->178        -0.18144
     176 ->177         0.66531
 This state for optimization and/or second-order correction.
 Total Energy, E(CIS/TDA) =  -474.246451274
 Copying the excited state density for this state as the 1-particle RhoCI density.

 Excited State   2:      Singlet-A      1.9474 eV  636.65 nm  f=0.0931  <S**2>=0.000
     175 ->177         0.57840
     176 ->178         0.37830

 Excited State   3:      Singlet-A      2.9753 eV  416.71 nm  f=0.0249  <S**2>=0.000
     168 ->177         0.10850
     168 ->180         0.15544
     169 ->177         0.25756
     169 ->178         0.18840
     169 ->179         0.22425
     169 ->180         0.36791
     169 ->181        -0.12170
     169 ->186         0.20813
     176 ->179         0.10231

 Excited State   4:      Singlet-A      3.0645 eV  404.59 nm  f=0.8224  <S**2>=0.000
     171 ->177         0.12139
     175 ->177        -0.31611
     176 ->178         0.50230
     176 ->179        -0.26753

 Excited State   5:      Singlet-A      3.0727 eV  403.51 nm  f=0.0958  <S**2>=0.000
     168 ->177         0.14377
     168 ->179        -0.26622
     168 ->186        -0.10235
     169 ->177        -0.11322
     169 ->180        -0.10381
     176 ->178         0.13401
     176 ->179         0.51996

 The electronic state is 1-A.
 Alpha  occ. eigenvalues --   -1.86500  -1.82912  -1.80130  -1.73708  -1.71167
 Alpha  occ. eigenvalues --   -1.68936  -1.65158  -1.61124  -1.57594  -1.56909
 Alpha  occ. eigenvalues --   -1.54570  -1.51238  -1.48807  -1.48416  -1.47400
 Alpha  occ. eigenvalues --   -1.43440  -1.42994  -1.40741  -1.38371  -1.38299
 Alpha  occ. eigenvalues --   -1.36312  -1.33309  -1.32465  -1.31602  -1.29886
 Alpha  occ. eigenvalues --   -1.28059  -1.24874  -1.21452  -1.20636  -1.17996
 Alpha  occ. eigenvalues --   -1.17073  -1.16650  -1.15714  -1.14751  -1.14180
 Alpha  occ. eigenvalues --   -1.12788  -1.10349  -1.09799  -1.05732  -1.04339
 Alpha  occ. eigenvalues --   -1.02667  -1.01281  -0.99081  -0.98499  -0.98115
 Alpha  occ. eigenvalues --   -0.95451  -0.94843  -0.93916  -0.93488  -0.92451
 Alpha  occ. eigenvalues --   -0.91169  -0.90270  -0.89053  -0.88035  -0.87689
 Alpha  occ. eigenvalues --   -0.85438  -0.83954  -0.83345  -0.81032  -0.80510
 Alpha  occ. eigenvalues --   -0.79698  -0.78249  -0.77930  -0.76938  -0.76904
 Alpha  occ. eigenvalues --   -0.75867  -0.75544  -0.75152  -0.74051  -0.73097
 Alpha  occ. eigenvalues --   -0.72814  -0.72400  -0.71937  -0.71059  -0.70672
 Alpha  occ. eigenvalues --   -0.69967  -0.69605  -0.68524  -0.67811  -0.67523
 Alpha  occ. eigenvalues --   -0.66967  -0.66827  -0.66707  -0.65975  -0.65032
 Alpha  occ. eigenvalues --   -0.64815  -0.64186  -0.63979  -0.63607  -0.63138
 Alpha  occ. eigenvalues --   -0.62972  -0.62653  -0.62492  -0.62135  -0.61951
 Alpha  occ. eigenvalues --   -0.61569  -0.61077  -0.60833  -0.60559  -0.60206
 Alpha  occ. eigenvalues --   -0.59901  -0.59351  -0.58885  -0.58381  -0.58156
 Alpha  occ. eigenvalues --   -0.58106  -0.57548  -0.56829  -0.56770  -0.56055
 Alpha  occ. eigenvalues --   -0.55602  -0.55345  -0.55050  -0.54733  -0.54501
 Alpha  occ. eigenvalues --   -0.54219  -0.53659  -0.53356  -0.53050  -0.52988
 Alpha  occ. eigenvalues --   -0.52480  -0.52414  -0.52271  -0.52014  -0.51777
 Alpha  occ. eigenvalues --   -0.51058  -0.50783  -0.50589  -0.50511  -0.50341
 Alpha  occ. eigenvalues --   -0.50125  -0.49817  -0.49740  -0.49577  -0.49044
 Alpha  occ. eigenvalues --   -0.48981  -0.48825  -0.48421  -0.47939  -0.47562
 Alpha  occ. eigenvalues --   -0.47527  -0.47156  -0.46707  -0.46566  -0.46307
 Alpha  occ. eigenvalues --   -0.46250  -0.45865  -0.45813  -0.45451  -0.45168
 Alpha  occ. eigenvalues --   -0.44849  -0.44701  -0.44510  -0.44388  -0.43974
 Alpha  occ. eigenvalues --   -0.43203  -0.42942  -0.42725  -0.41991  -0.41877
 Alpha  occ. eigenvalues --   -0.41612  -0.41484  -0.41156  -0.38982  -0.38748
 Alpha  occ. eigenvalues --   -0.38665  -0.37564  -0.35580  -0.35474  -0.34383
 Alpha  occ. eigenvalues --   -0.33638  -0.33135  -0.32825  -0.31605  -0.26609
 Alpha  occ. eigenvalues --   -0.21924
 Alpha virt. eigenvalues --   -0.08727  -0.01580  -0.00462   0.01281   0.01958
 Alpha virt. eigenvalues --    0.02056   0.03023   0.03068   0.04854   0.04917
 Alpha virt. eigenvalues --    0.06332   0.06718   0.06873   0.07448   0.08016

 Mulliken charges:
               1
     1  Mg   0.428930
     2  C   -0.041087
     3  C   -0.087286
     4  C   -0.055291
     5  C   -0.053539
     6  N   -0.341628
     7  C    0.133468
     8  C   -0.000043
     9  C    0.008804
    10  C    0.145055
    11  C   -0.048814
    12  C   -0.021263
    13  C   -0.003582
    14  C    0.473383
    15  O   -0.528993
    16  O   -0.263601
    17  N   -0.302722
    18  C    0.132780
    19  C   -0.006521
    20  C   -0.035673
    21  C    0.126208
    22  C   -0.046081
    23  C    0.314134
    24  O   -0.528257
    25  C   -0.026345
    26  N   -0.260071
    27  C    0.127281
    28  C    0.010161
    29  C    0.017052
    30  C    0.119949
    31  C   -0.055492
    32  C   -0.016633
    33  C   -0.061346
    34  N   -0.301544
    35  C    0.097853
    36  C    0.042582
    37  C   -0.067057
    38  C    0.115672
    39  C   -0.046788
    40  C    0.336807
    41  O   -0.513635
    42  C    0.048566
    43  C    0.480775
    44  O   -0.523178
    45  O   -0.275795
    46  C    0.070762
    47  C    0.107935
    48  C   -0.078026
    49  C   -0.024897
    50  C   -0.044695
    51  C   -0.023747
    52  C   -0.033972
    53  C   -0.048539
    54  C   -0.003808
    55  C   -0.047032
    56  C   -0.036024
    57  C   -0.044565
    58  C   -0.029620
    59  C   -0.019811
    60  C   -0.062508
    61  C   -0.035204
    62  C   -0.036957
    63  C   -0.033580
    64  C   -0.018743
    65  C   -0.050632
    66  C   -0.063832
    67  H    0.012788
    68  H    0.044319
    69  H    0.011816
    70  H    0.039349
    71  H    0.025582
    72  H    0.019271
    73  H    0.013395
    74  H    0.036613
    75  H    0.042149
    76  H    0.022746
    77  H    0.049425
    78  H    0.031885
    79  H    0.029138
    80  H    0.027557
    81  H    0.028047
    82  H    0.046982
    83  H    0.042193
    84  H    0.039418
    85  H    0.033629
    86  H    0.030543
    87  H    0.023258
    88  H    0.029260
    89  H    0.028082
    90  H    0.016330
    91  H    0.010055
    92  H    0.016900
    93  H    0.023244
    94  H    0.020864
    95  H    0.036856
    96  H    0.011537
    97  H    0.036110
    98  H    0.059735
    99  H    0.036050
   100  H    0.036950
   101  H    0.061417
   102  H    0.058739
   103  H    0.033472
   104  H    0.042306
   105  H    0.024154
   106  H    0.025601
   107  H    0.027313
   108  H    0.019005
   109  H    0.030877
   110  H    0.022351
   111  H    0.021926
   112  H    0.014668
   113  H    0.015070
   114  H    0.021165
   115  H    0.019757
   116  H    0.015245
   117  H    0.020783
   118  H    0.014979
   119  H    0.018495
   120  H    0.014109
   121  H    0.021908
   122  H    0.020420
   123  H    0.020119
   124  H    0.024883
   125  H    0.020018
   126  H    0.017940
   127  H    0.019952
   128  H    0.007565
   129  H    0.016804
   130  H    0.005118
   131  H    0.024200
   132  H    0.017709
   133  H    0.017763
   134  H    0.017046
   135  H    0.018609
   136  H    0.018550
   137  H    0.015094
   138  H    0.019681
   139  H    0.023623
   140  H    0.029791
 Sum of Mulliken charges =  -0.00000

 Dipole moment (field-independent basis, Debye):
    X=             -2.8551    Y=              3.2634    Z=             -0.3523  Tot=              4.3503
 N-N= 4.203322016478D+03 E-N= 0.000000000000D+00  KE=-9.081063515253D+03
 Leave Link  601 at Wed May  4 14:00:38 2022, MaxMem=  6710886400 cpu:               0.7 elap:               0.0
 (Enter /sw/apps/gaussian-16.0/g16/l9999.exe)
 1\1\GINC-BP1-COMPUTE135\SP\RZINDO CIS\STO-3G\C55H74Mg1N4O6\OF15641\04-
 May-2022\0\\#p ZINDO=(nstates=5)\\step_1751_chromophore_10 ZINDO\\0,1\
 Mg,0,41.571,8.087,29.361\C,0,43.212,9.374,32.181\C,0,39.454,6.551,31.6
 76\C,0,40.147,6.389,26.813\C,0,43.873,9.257,27.347\N,0,41.506,7.874,31
 .686\C,0,42.168,8.682,32.617\C,0,41.488,8.707,33.987\C,0,40.374,7.606,
 33.784\C,0,40.416,7.253,32.301\C,0,40.401,6.439,34.776\C,0,40.969,10.1
 25,34.484\C,0,41.841,10.7,35.597\C,0,41.148,11.327,36.79\O,0,40.133,12

 Normal termination of Gaussian 16 at Wed May  4 14:00:38 2022.
