 Gaussian 16, Revision A.03,
 Gaussian 16:  ES64L-G16RevA.03 25-Dec-2016

 ------------------------------
 #p blyp/Def2SVP td=(nstates=5)
 ------------------------------

 -------------------------------------------------
 step_551_chromophore_4 TDDFT with blyp functional
 -------------------------------------------------
 Symbolic Z-matrix:
 Charge =  0 Multiplicity = 1

                         Standard orientation:
 ---------------------------------------------------------------------
 Center     Atomic      Atomic             Coordinates (Angstroms)
 Number     Number       Type             X           Y           Z
 ---------------------------------------------------------------------
      1         12           0        6.090814    0.637239    0.138537
      2          6           0        3.793594   -2.083573    0.048557
      3          6           0        3.566996    2.652682   -0.986770
      4          6           0        8.389007    3.039176   -0.226606
      5          6           0        8.662029   -1.818428    0.306008
      6          7           0        3.928272    0.249781   -0.353540
      7          6           0        3.137027   -0.841382   -0.166212
      8          6           0        1.716689   -0.512471   -0.419512
      9          6           0        1.697339    0.944996   -0.904162
     10          6           0        3.127390    1.335024   -0.715157
     11          6           0        1.069996    1.123217   -2.282240
     12          6           0        0.777592   -0.794243    0.746497
     13          6           0       -0.705390   -0.721475    0.372482
     14          6           0       -1.561165   -2.045156    0.449260
     15          8           0       -1.225134   -3.163949    0.600639
     16          8           0       -2.906472   -1.789224    0.142610
     17          7           0        5.924397    2.565589   -0.361476
     18          6           0        4.803381    3.253067   -0.751445
     19          6           0        5.160402    4.655443   -0.884560
     20          6           0        6.509148    4.820787   -0.476380
     21          6           0        7.030940    3.400473   -0.417976
     22          6           0        4.166268    5.755869   -1.184436
     23          6           0        7.358292    6.133763   -0.265534
     24          8           0        8.549361    6.079247   -0.091761
     25          6           0        6.773799    7.528510   -0.230307
     26          7           0        8.231560    0.568058    0.100881
     27          6           0        8.903472    1.753894    0.059574
     28          6           0       10.411873    1.442653    0.255195
     29          6           0       10.477400   -0.081678    0.811552
     30          6           0        9.063384   -0.479503    0.422079
     31          6           0       11.340300    1.824699   -0.909247
     32          6           0       10.779250   -0.225421    2.297568
     33          6           0       12.266762   -0.563800    2.543241
     34          7           0        6.286288   -1.557701    0.153989
     35          6           0        7.381687   -2.344698    0.229783
     36          6           0        6.952943   -3.726597    0.494033
     37          6           0        5.594291   -3.689039    0.280344
     38          6           0        5.254040   -2.345874    0.078917
     39          6           0        7.737121   -4.953612    0.777022
     40          6           0        4.383061   -4.510696    0.301025
     41          8           0        4.220833   -5.691725    0.534437
     42          6           0        3.192236   -3.501271    0.222875
     43          6           0        2.396016   -3.934779   -0.972475
     44          8           0        2.663039   -3.710507   -2.124924
     45          8           0        1.385254   -4.827193   -0.616194
     46          6           0        0.368791   -5.168160   -1.564102
     47          6           0       -3.925421   -2.909787    0.018811
     48          6           0       -5.345322   -2.413526    0.232087
     49          6           0       -6.483442   -3.105537    0.286525
     50          6           0       -6.724407   -4.644111    0.322800
     51          6           0       -7.823253   -2.346875    0.504720
     52          6           0       -8.390610   -1.688722   -0.809709
     53          6           0       -8.235792   -0.134764   -0.919189
     54          6           0       -9.453525    0.747303   -0.457682
     55          6           0      -10.521273    0.879443   -1.570276
     56          6           0       -9.102103    2.189696    0.070863
     57          6           0       -9.577573    2.479368    1.499160
     58          6           0      -10.777985    3.360020    1.609436
     59          6           0      -12.110549    2.613353    2.010517
     60          6           0      -12.795370    3.377634    3.162961
     61          6           0      -13.067323    2.524579    0.773907
     62          6           0      -13.681547    1.143272    0.739936
     63          6           0      -14.297005    0.741158   -0.578250
     64          6           0      -15.825467    0.235861   -0.474016
     65          6           0      -16.164901   -0.756455   -1.598529
     66          6           0      -16.774646    1.425203   -0.552596
     67          1           0        2.795691    3.331580   -1.355996
     68          1           0        9.087293    3.861093   -0.398346
     69          1           0        9.472699   -2.546622    0.375931
     70          1           0        1.248274   -1.160566   -1.160572
     71          1           0        1.092035    1.550525   -0.229134
     72          1           0        1.832554    1.520777   -2.950968
     73          1           0        0.264841    1.858846   -2.300237
     74          1           0        0.601726    0.224558   -2.683489
     75          1           0        0.897370    0.020195    1.461098
     76          1           0        0.979470   -1.601921    1.449407
     77          1           0       -0.823918   -0.444118   -0.674976
     78          1           0       -1.246738   -0.051875    1.039055
     79          1           0        3.154674    5.418874   -1.413193
     80          1           0        4.370202    6.423050   -2.021626
     81          1           0        4.093424    6.343417   -0.270143
     82          1           0        6.146138    7.496329    0.660248
     83          1           0        6.259234    7.619573   -1.187189
     84          1           0        7.456716    8.357921   -0.047465
     85          1           0       10.676954    2.054417    1.117322
     86          1           0       11.147570   -0.707069    0.221894
     87          1           0       11.945165    2.683380   -0.617079
     88          1           0       10.886951    1.903609   -1.898238
     89          1           0       11.915727    0.957701   -1.232858
     90          1           0       10.185760   -1.064684    2.661717
     91          1           0       10.586186    0.695041    2.849306
     92          1           0       12.649105   -0.103725    3.453476
     93          1           0       12.789339   -0.173851    1.669455
     94          1           0       12.448268   -1.638004    2.494291
     95          1           0        8.576395   -4.869474    0.086090
     96          1           0        7.127006   -5.849525    0.658673
     97          1           0        8.223463   -4.761870    1.732674
     98          1           0        2.607429   -3.549824    1.141437
     99          1           0        0.588444   -6.172888   -1.924185
    100          1           0        0.405902   -4.620413   -2.505806
    101          1           0       -0.619586   -5.225559   -1.108726
    102          1           0       -3.793132   -3.664154    0.794450
    103          1           0       -3.861126   -3.355647   -0.973848
    104          1           0       -5.387347   -1.328249    0.321737
    105          1           0       -5.830933   -5.227066    0.546510
    106          1           0       -7.125370   -4.969935   -0.637494
    107          1           0       -7.440492   -4.942850    1.087761
    108          1           0       -7.680746   -1.594376    1.280834
    109          1           0       -8.558115   -3.021113    0.944280
    110          1           0       -9.470590   -1.833328   -0.790848
    111          1           0       -8.009227   -2.106430   -1.740339
    112          1           0       -8.071755    0.173859   -1.951624
    113          1           0       -7.439637    0.226884   -0.268950
    114          1           0       -9.948402    0.260289    0.383286
    115          1           0      -10.977396   -0.099398   -1.420238
    116          1           0      -10.015371    1.020425   -2.525198
    117          1           0      -11.240863    1.665306   -1.340755
    118          1           0       -9.495254    2.865572   -0.687958
    119          1           0       -8.023136    2.319191   -0.007122
    120          1           0       -8.801655    3.131986    1.898973
    121          1           0       -9.600696    1.627543    2.179272
    122          1           0      -10.915909    3.897587    0.671777
    123          1           0      -10.698128    4.071293    2.431174
    124          1           0      -11.841141    1.701996    2.543501
    125          1           0      -12.361419    3.126283    4.131712
    126          1           0      -13.850305    3.113059    3.092441
    127          1           0      -12.586126    4.440185    3.043066
    128          1           0      -12.560039    2.762186   -0.161353
    129          1           0      -13.856892    3.261526    0.917490
    130          1           0      -14.458672    1.038875    1.498845
    131          1           0      -12.851913    0.448714    0.870875
    132          1           0      -13.694306   -0.133325   -0.823610
    133          1           0      -14.080986    1.552242   -1.274730
    134          1           0      -16.011621   -0.131365    0.534975
    135          1           0      -16.767984   -0.268049   -2.363483
    136          1           0      -16.778380   -1.585764   -1.247356
    137          1           0      -15.242350   -1.168436   -2.007980
    138          1           0      -16.908751    1.672425    0.500280
    139          1           0      -17.758597    1.238177   -0.982340
    140          1           0      -16.396116    2.197766   -1.221940
 ---------------------------------------------------------------------

 SCF Done:  E(RB-LYP) =  -3007.35026759     A.U. after   22 cycles

 Excitation energies and oscillator strengths:

 Excited State   1:      Singlet-A      1.8054 eV  686.75 nm  f=0.2803  <S**2>=0.000
     245 -> 248        0.20308
     246 -> 247        0.68514
     246 <- 247       -0.14251
 This state for optimization and/or second-order correction.
 Total Energy, E(TD-HF/TD-DFT) =  -3007.28392148
 Copying the excited state density for this state as the 1-particle RhoCI density.

 Excited State   2:      Singlet-A      2.0286 eV  611.17 nm  f=0.0599  <S**2>=0.000
     243 -> 247        0.18738
     244 -> 247        0.10724
     245 -> 247        0.61020
     246 -> 248       -0.25365

 Excited State   3:      Singlet-A      2.0908 eV  593.01 nm  f=0.0009  <S**2>=0.000
     243 -> 247       -0.38869
     244 -> 247        0.58932

 Excited State   4:      Singlet-A      2.1039 eV  589.32 nm  f=0.0036  <S**2>=0.000
     243 -> 247        0.55790
     244 -> 247        0.37193
     245 -> 247       -0.17983
     246 -> 248        0.12154

 Excited State   5:      Singlet-A      2.6250 eV  472.32 nm  f=0.0000  <S**2>=0.000
     240 -> 247        0.70427

 The electronic state is 1-A.
 Alpha  occ. eigenvalues --  -46.27492 -18.80854 -18.79561 -18.77377 -18.75785
 Alpha  occ. eigenvalues --  -18.75643 -18.75617 -14.03227 -14.02899 -14.01213
 Alpha  occ. eigenvalues --  -14.00140 -10.04347 -10.02629 -10.00450  -9.99375
 Alpha  occ. eigenvalues --   -9.98566  -9.96423  -9.96415  -9.96340  -9.96312
 Alpha  occ. eigenvalues --   -9.96008  -9.95602  -9.95569  -9.94845  -9.94709
 Alpha  occ. eigenvalues --   -9.93986  -9.93964  -9.93875  -9.93836  -9.93774
 Alpha  occ. eigenvalues --   -9.93773  -9.93759  -9.93404  -9.93353  -9.93321
 Alpha  occ. eigenvalues --   -9.93308  -9.93095  -9.92846  -9.92821  -9.92819
 Alpha  occ. eigenvalues --   -9.92707  -9.92506  -9.92466  -9.92399  -9.92269
 Alpha  occ. eigenvalues --   -9.92249  -9.92245  -9.92156  -9.92079  -9.92055
 Alpha  occ. eigenvalues --   -9.92046  -9.91871  -9.91573  -9.91532  -9.91284
 Alpha  occ. eigenvalues --   -9.90984  -9.90954  -9.90865  -9.90797  -9.90699
 Alpha  occ. eigenvalues --   -9.90600  -9.90569  -9.90534  -9.90497  -9.90469
 Alpha  occ. eigenvalues --   -9.90037  -2.92066  -1.72476  -1.71945  -1.71791
 Alpha  occ. eigenvalues --   -0.97936  -0.96172  -0.92848  -0.91495  -0.89312
 Alpha  occ. eigenvalues --   -0.88737  -0.87289  -0.85850  -0.85278  -0.84538
 Alpha  occ. eigenvalues --   -0.74206  -0.73975  -0.73411  -0.72873  -0.72305
 Alpha  occ. eigenvalues --   -0.71899  -0.71441  -0.70788  -0.70718  -0.70324
 Alpha  occ. eigenvalues --   -0.69838  -0.69117  -0.68331  -0.67329  -0.67233
 Alpha  occ. eigenvalues --   -0.66525  -0.65689  -0.65472  -0.64852  -0.64255
 Alpha  occ. eigenvalues --   -0.63929  -0.62830  -0.62257  -0.61711  -0.60431
 Alpha  occ. eigenvalues --   -0.60270  -0.59871  -0.59564  -0.59276  -0.59159
 Alpha  occ. eigenvalues --   -0.58494  -0.57233  -0.56842  -0.55948  -0.54328
 Alpha  occ. eigenvalues --   -0.53802  -0.53538  -0.52572  -0.51986  -0.51363
 Alpha  occ. eigenvalues --   -0.51150  -0.50497  -0.50446  -0.50156  -0.49776
 Alpha  occ. eigenvalues --   -0.49038  -0.48844  -0.48296  -0.47546  -0.47121
 Alpha  occ. eigenvalues --   -0.46170  -0.45996  -0.45434  -0.45026  -0.44055
 Alpha  occ. eigenvalues --   -0.43751  -0.43418  -0.42975  -0.42480  -0.41965
 Alpha  occ. eigenvalues --   -0.41846  -0.41717  -0.41430  -0.40874  -0.40834
 Alpha  occ. eigenvalues --   -0.40535  -0.40480  -0.40392  -0.40367  -0.40290
 Alpha  occ. eigenvalues --   -0.40003  -0.39813  -0.39613  -0.39340  -0.39289
 Alpha  occ. eigenvalues --   -0.38938  -0.38580  -0.38433  -0.38304  -0.38289
 Alpha  occ. eigenvalues --   -0.38005  -0.37802  -0.37688  -0.37575  -0.37314
 Alpha  occ. eigenvalues --   -0.37210  -0.37165  -0.36863  -0.36839  -0.36614
 Alpha  occ. eigenvalues --   -0.36305  -0.36096  -0.35983  -0.35881  -0.35650
 Alpha  occ. eigenvalues --   -0.35314  -0.35212  -0.35064  -0.34836  -0.34596
 Alpha  occ. eigenvalues --   -0.34455  -0.34382  -0.34236  -0.34083  -0.33957
 Alpha  occ. eigenvalues --   -0.33954  -0.33782  -0.33726  -0.33505  -0.33427
 Alpha  occ. eigenvalues --   -0.33205  -0.32979  -0.32799  -0.32683  -0.32383
 Alpha  occ. eigenvalues --   -0.32109  -0.32064  -0.31941  -0.31647  -0.31445
 Alpha  occ. eigenvalues --   -0.31172  -0.31069  -0.31002  -0.30848  -0.30684
 Alpha  occ. eigenvalues --   -0.30405  -0.30222  -0.30002  -0.29884  -0.29530
 Alpha  occ. eigenvalues --   -0.29493  -0.29352  -0.29153  -0.29119  -0.28607
 Alpha  occ. eigenvalues --   -0.28530  -0.28124  -0.27850  -0.27776  -0.27666
 Alpha  occ. eigenvalues --   -0.27423  -0.27041  -0.26808  -0.26472  -0.26440
 Alpha  occ. eigenvalues --   -0.25859  -0.25773  -0.25536  -0.25529  -0.25167
 Alpha  occ. eigenvalues --   -0.25083  -0.24473  -0.23707  -0.23017  -0.22725
 Alpha  occ. eigenvalues --   -0.22685  -0.21999  -0.21600  -0.20884  -0.20648
 Alpha  occ. eigenvalues --   -0.20577  -0.20263  -0.18595  -0.18574  -0.16901
 Alpha  occ. eigenvalues --   -0.15351
 Alpha virt. eigenvalues --   -0.11001  -0.06874  -0.05652  -0.04521  -0.03049
 Alpha virt. eigenvalues --   -0.02057  -0.01843  -0.01615  -0.01085   0.00317
 Alpha virt. eigenvalues --    0.01197   0.01812   0.02031   0.02480   0.02859

 Mulliken charges:
               1
     1  Mg   0.699892
     2  C   -0.031840
     3  C   -0.067304
     4  C   -0.044575
     5  C   -0.084249
     6  N   -0.213828
     7  C    0.006177
     8  C    0.008463
     9  C    0.041872
    10  C    0.023486
    11  C    0.132492
    12  C    0.135941
    13  C    0.071428
    14  C    0.067061
    15  O   -0.128258
    16  O   -0.329963
    17  N   -0.343162
    18  C    0.158142
    19  C   -0.116891
    20  C   -0.013221
    21  C    0.093833
    22  C    0.139736
    23  C   -0.061066
    24  O   -0.150340
    25  C    0.142827
    26  N   -0.234095
    27  C    0.067264
    28  C    0.000082
    29  C    0.008286
    30  C    0.003635
    31  C    0.151760
    32  C    0.122298
    33  C    0.055922
    34  N   -0.166450
    35  C    0.120389
    36  C   -0.236275
    37  C    0.093759
    38  C    0.037435
    39  C    0.217712
    40  C   -0.046158
    41  O   -0.116697
    42  C    0.054312
    43  C    0.100615
    44  O   -0.167367
    45  O   -0.266967
    46  C    0.223106
    47  C    0.316286
    48  C   -0.124337
    49  C   -0.117985
    50  C    0.124370
    51  C    0.116718
    52  C    0.108864
    53  C    0.094366
    54  C   -0.135879
    55  C    0.105837
    56  C    0.114915
    57  C    0.118161
    58  C    0.124560
    59  C   -0.106107
    60  C    0.100343
    61  C    0.115469
    62  C    0.046598
    63  C    0.113855
    64  C   -0.103087
    65  C    0.126846
    66  C    0.098004
    67  H   -0.074996
    68  H   -0.036207
    69  H   -0.072476
    70  H   -0.012464
    71  H   -0.027617
    72  H   -0.004749
    73  H   -0.020530
    74  H    0.002864
    75  H   -0.053291
    76  H   -0.013707
    77  H    0.012715
    78  H    0.007699
    79  H   -0.025234
    80  H    0.004355
    81  H    0.005569
    82  H    0.008102
    83  H    0.012474
    84  H   -0.006677
    85  H   -0.029465
    86  H   -0.027121
    87  H    0.014020
    88  H   -0.015464
    89  H   -0.028868
    90  H   -0.021936
    91  H   -0.017134
    92  H   -0.001644
    93  H   -0.013031
    94  H   -0.006032
    95  H   -0.010276
    96  H    0.025890
    97  H   -0.012325
    98  H    0.010712
    99  H   -0.012284
   100  H   -0.002791
   101  H    0.019255
   102  H    0.016409
   103  H    0.012432
   104  H   -0.023309
   105  H   -0.014541
   106  H    0.002599
   107  H   -0.000679
   108  H   -0.020679
   109  H   -0.040727
   110  H   -0.035816
   111  H   -0.022245
   112  H   -0.035897
   113  H   -0.027325
   114  H   -0.040744
   115  H   -0.009864
   116  H   -0.010689
   117  H   -0.013606
   118  H   -0.047520
   119  H   -0.050960
   120  H   -0.046328
   121  H   -0.030909
   122  H   -0.039298
   123  H   -0.055874
   124  H   -0.039465
   125  H   -0.021535
   126  H   -0.014610
   127  H   -0.018653
   128  H   -0.027788
   129  H   -0.040175
   130  H   -0.030299
   131  H   -0.032386
   132  H   -0.036335
   133  H   -0.029367
   134  H   -0.033018
   135  H   -0.019241
   136  H   -0.020397
   137  H   -0.020893
   138  H   -0.016164
   139  H   -0.023407
   140  H   -0.015052
 Sum of Mulliken charges =  -0.00000

 Dipole moment (field-independent basis, Debye):
    X=             -2.6187    Y=              4.1929    Z=              1.6503  Tot=              5.2117
 Quadrupole moment (field-independent basis, Debye-Ang):
   XX=           -379.5817   YY=           -427.8036   ZZ=           -405.0230
   XY=             11.0639   XZ=             11.9175   YZ=             -1.9084

 Normal termination of Gaussian 16 at Sat Apr 30 04:24:38 2022.
