 Gaussian 16, Revision A.03,
 Gaussian 16:  ES64L-G16RevA.03 25-Dec-2016

 -----------------------------------
 #p cam-b3lyp/Def2SVP td=(nstates=5)
 -----------------------------------

 ------------------------------------------------------
 step_551_chromophore_4 TDDFT with cam-b3lyp functional
 ------------------------------------------------------
 Symbolic Z-matrix:
 Charge =  0 Multiplicity = 1

                         Standard orientation:
 ---------------------------------------------------------------------
 Center     Atomic      Atomic             Coordinates (Angstroms)
 Number     Number       Type             X           Y           Z
 ---------------------------------------------------------------------
      1         12           0        6.090814    0.637239    0.138537
      2          6           0        3.793594   -2.083573    0.048557
      3          6           0        3.566996    2.652682   -0.986770
      4          6           0        8.389007    3.039176   -0.226606
      5          6           0        8.662029   -1.818428    0.306008
      6          7           0        3.928272    0.249781   -0.353540
      7          6           0        3.137027   -0.841382   -0.166212
      8          6           0        1.716689   -0.512471   -0.419512
      9          6           0        1.697339    0.944996   -0.904162
     10          6           0        3.127390    1.335024   -0.715157
     11          6           0        1.069996    1.123217   -2.282240
     12          6           0        0.777592   -0.794243    0.746497
     13          6           0       -0.705390   -0.721475    0.372482
     14          6           0       -1.561165   -2.045156    0.449260
     15          8           0       -1.225134   -3.163949    0.600639
     16          8           0       -2.906472   -1.789224    0.142610
     17          7           0        5.924397    2.565589   -0.361476
     18          6           0        4.803381    3.253067   -0.751445
     19          6           0        5.160402    4.655443   -0.884560
     20          6           0        6.509148    4.820787   -0.476380
     21          6           0        7.030940    3.400473   -0.417976
     22          6           0        4.166268    5.755869   -1.184436
     23          6           0        7.358292    6.133763   -0.265534
     24          8           0        8.549361    6.079247   -0.091761
     25          6           0        6.773799    7.528510   -0.230307
     26          7           0        8.231560    0.568058    0.100881
     27          6           0        8.903472    1.753894    0.059574
     28          6           0       10.411873    1.442653    0.255195
     29          6           0       10.477400   -0.081678    0.811552
     30          6           0        9.063384   -0.479503    0.422079
     31          6           0       11.340300    1.824699   -0.909247
     32          6           0       10.779250   -0.225421    2.297568
     33          6           0       12.266762   -0.563800    2.543241
     34          7           0        6.286288   -1.557701    0.153989
     35          6           0        7.381687   -2.344698    0.229783
     36          6           0        6.952943   -3.726597    0.494033
     37          6           0        5.594291   -3.689039    0.280344
     38          6           0        5.254040   -2.345874    0.078917
     39          6           0        7.737121   -4.953612    0.777022
     40          6           0        4.383061   -4.510696    0.301025
     41          8           0        4.220833   -5.691725    0.534437
     42          6           0        3.192236   -3.501271    0.222875
     43          6           0        2.396016   -3.934779   -0.972475
     44          8           0        2.663039   -3.710507   -2.124924
     45          8           0        1.385254   -4.827193   -0.616194
     46          6           0        0.368791   -5.168160   -1.564102
     47          6           0       -3.925421   -2.909787    0.018811
     48          6           0       -5.345322   -2.413526    0.232087
     49          6           0       -6.483442   -3.105537    0.286525
     50          6           0       -6.724407   -4.644111    0.322800
     51          6           0       -7.823253   -2.346875    0.504720
     52          6           0       -8.390610   -1.688722   -0.809709
     53          6           0       -8.235792   -0.134764   -0.919189
     54          6           0       -9.453525    0.747303   -0.457682
     55          6           0      -10.521273    0.879443   -1.570276
     56          6           0       -9.102103    2.189696    0.070863
     57          6           0       -9.577573    2.479368    1.499160
     58          6           0      -10.777985    3.360020    1.609436
     59          6           0      -12.110549    2.613353    2.010517
     60          6           0      -12.795370    3.377634    3.162961
     61          6           0      -13.067323    2.524579    0.773907
     62          6           0      -13.681547    1.143272    0.739936
     63          6           0      -14.297005    0.741158   -0.578250
     64          6           0      -15.825467    0.235861   -0.474016
     65          6           0      -16.164901   -0.756455   -1.598529
     66          6           0      -16.774646    1.425203   -0.552596
     67          1           0        2.795691    3.331580   -1.355996
     68          1           0        9.087293    3.861093   -0.398346
     69          1           0        9.472699   -2.546622    0.375931
     70          1           0        1.248274   -1.160566   -1.160572
     71          1           0        1.092035    1.550525   -0.229134
     72          1           0        1.832554    1.520777   -2.950968
     73          1           0        0.264841    1.858846   -2.300237
     74          1           0        0.601726    0.224558   -2.683489
     75          1           0        0.897370    0.020195    1.461098
     76          1           0        0.979470   -1.601921    1.449407
     77          1           0       -0.823918   -0.444118   -0.674976
     78          1           0       -1.246738   -0.051875    1.039055
     79          1           0        3.154674    5.418874   -1.413193
     80          1           0        4.370202    6.423050   -2.021626
     81          1           0        4.093424    6.343417   -0.270143
     82          1           0        6.146138    7.496329    0.660248
     83          1           0        6.259234    7.619573   -1.187189
     84          1           0        7.456716    8.357921   -0.047465
     85          1           0       10.676954    2.054417    1.117322
     86          1           0       11.147570   -0.707069    0.221894
     87          1           0       11.945165    2.683380   -0.617079
     88          1           0       10.886951    1.903609   -1.898238
     89          1           0       11.915727    0.957701   -1.232858
     90          1           0       10.185760   -1.064684    2.661717
     91          1           0       10.586186    0.695041    2.849306
     92          1           0       12.649105   -0.103725    3.453476
     93          1           0       12.789339   -0.173851    1.669455
     94          1           0       12.448268   -1.638004    2.494291
     95          1           0        8.576395   -4.869474    0.086090
     96          1           0        7.127006   -5.849525    0.658673
     97          1           0        8.223463   -4.761870    1.732674
     98          1           0        2.607429   -3.549824    1.141437
     99          1           0        0.588444   -6.172888   -1.924185
    100          1           0        0.405902   -4.620413   -2.505806
    101          1           0       -0.619586   -5.225559   -1.108726
    102          1           0       -3.793132   -3.664154    0.794450
    103          1           0       -3.861126   -3.355647   -0.973848
    104          1           0       -5.387347   -1.328249    0.321737
    105          1           0       -5.830933   -5.227066    0.546510
    106          1           0       -7.125370   -4.969935   -0.637494
    107          1           0       -7.440492   -4.942850    1.087761
    108          1           0       -7.680746   -1.594376    1.280834
    109          1           0       -8.558115   -3.021113    0.944280
    110          1           0       -9.470590   -1.833328   -0.790848
    111          1           0       -8.009227   -2.106430   -1.740339
    112          1           0       -8.071755    0.173859   -1.951624
    113          1           0       -7.439637    0.226884   -0.268950
    114          1           0       -9.948402    0.260289    0.383286
    115          1           0      -10.977396   -0.099398   -1.420238
    116          1           0      -10.015371    1.020425   -2.525198
    117          1           0      -11.240863    1.665306   -1.340755
    118          1           0       -9.495254    2.865572   -0.687958
    119          1           0       -8.023136    2.319191   -0.007122
    120          1           0       -8.801655    3.131986    1.898973
    121          1           0       -9.600696    1.627543    2.179272
    122          1           0      -10.915909    3.897587    0.671777
    123          1           0      -10.698128    4.071293    2.431174
    124          1           0      -11.841141    1.701996    2.543501
    125          1           0      -12.361419    3.126283    4.131712
    126          1           0      -13.850305    3.113059    3.092441
    127          1           0      -12.586126    4.440185    3.043066
    128          1           0      -12.560039    2.762186   -0.161353
    129          1           0      -13.856892    3.261526    0.917490
    130          1           0      -14.458672    1.038875    1.498845
    131          1           0      -12.851913    0.448714    0.870875
    132          1           0      -13.694306   -0.133325   -0.823610
    133          1           0      -14.080986    1.552242   -1.274730
    134          1           0      -16.011621   -0.131365    0.534975
    135          1           0      -16.767984   -0.268049   -2.363483
    136          1           0      -16.778380   -1.585764   -1.247356
    137          1           0      -15.242350   -1.168436   -2.007980
    138          1           0      -16.908751    1.672425    0.500280
    139          1           0      -17.758597    1.238177   -0.982340
    140          1           0      -16.396116    2.197766   -1.221940
 ---------------------------------------------------------------------

 SCF Done:  E(RCAM-B3LYP) =  -3007.14604910     A.U. after   17 cycles

 Excitation energies and oscillator strengths:

 Excited State   1:      Singlet-A      1.7036 eV  727.77 nm  f=0.3513  <S**2>=0.000
     245 -> 248        0.19010
     246 -> 247        0.68271
     245 <- 248        0.11009
 This state for optimization and/or second-order correction.
 Total Energy, E(TD-HF/TD-DFT) =  -3007.08344218
 Copying the excited state density for this state as the 1-particle RhoCI density.

 Excited State   2:      Singlet-A      2.2353 eV  554.67 nm  f=0.0742  <S**2>=0.000
     245 -> 247        0.61671
     246 -> 248       -0.33673

 Excited State   3:      Singlet-A      3.4337 eV  361.08 nm  f=0.7280  <S**2>=0.000
     243 -> 247        0.12800
     244 -> 247        0.10358
     245 -> 247        0.31464
     246 -> 248        0.60181
     245 <- 247       -0.11040

 Excited State   4:      Singlet-A      3.5570 eV  348.56 nm  f=0.0045  <S**2>=0.000
     243 -> 247       -0.30084
     244 -> 247        0.61698

 Excited State   5:      Singlet-A      3.6489 eV  339.78 nm  f=0.0266  <S**2>=0.000
     240 -> 247        0.29826
     240 -> 251        0.13546
     241 -> 247        0.34654
     241 -> 249       -0.25849
     241 -> 251        0.14454
     243 -> 247       -0.34109
     244 -> 247       -0.11008

 The electronic state is 1-A.
 Alpha  occ. eigenvalues --  -46.89081 -19.23629 -19.22372 -19.20368 -19.19137
 Alpha  occ. eigenvalues --  -19.18757 -19.18743 -14.42140 -14.41762 -14.39768
 Alpha  occ. eigenvalues --  -14.38442 -10.39596 -10.38091 -10.35766 -10.34599
 Alpha  occ. eigenvalues --  -10.32646 -10.31035 -10.30943 -10.30874 -10.30787
 Alpha  occ. eigenvalues --  -10.30225 -10.30107 -10.29403 -10.28910 -10.28760
 Alpha  occ. eigenvalues --  -10.28666 -10.28123 -10.28055 -10.28010 -10.27824
 Alpha  occ. eigenvalues --  -10.27766 -10.27694 -10.27638 -10.27628 -10.27541
 Alpha  occ. eigenvalues --  -10.27233 -10.27151 -10.27103 -10.26986 -10.26545
 Alpha  occ. eigenvalues --  -10.26503 -10.26390 -10.26305 -10.26269 -10.26249
 Alpha  occ. eigenvalues --  -10.26222 -10.26139 -10.25953 -10.25796 -10.25687
 Alpha  occ. eigenvalues --  -10.25606 -10.25434 -10.25360 -10.25260 -10.25045
 Alpha  occ. eigenvalues --  -10.24639 -10.24582 -10.24570 -10.24440 -10.24397
 Alpha  occ. eigenvalues --  -10.24237 -10.24213 -10.24127 -10.24123 -10.24052
 Alpha  occ. eigenvalues --  -10.23923  -3.17554  -1.92441  -1.91998  -1.91869
 Alpha  occ. eigenvalues --   -1.16434  -1.14729  -1.11443  -1.09817  -1.07037
 Alpha  occ. eigenvalues --   -1.06614  -1.04862  -1.03549  -1.02927  -1.02117
 Alpha  occ. eigenvalues --   -0.91242  -0.90808  -0.90277  -0.89680  -0.88946
 Alpha  occ. eigenvalues --   -0.88601  -0.88107  -0.87383  -0.87314  -0.86880
 Alpha  occ. eigenvalues --   -0.86485  -0.85505  -0.84614  -0.83423  -0.83358
 Alpha  occ. eigenvalues --   -0.82632  -0.81942  -0.81460  -0.80783  -0.80014
 Alpha  occ. eigenvalues --   -0.79646  -0.78443  -0.77974  -0.77235  -0.75765
 Alpha  occ. eigenvalues --   -0.75578  -0.75224  -0.74803  -0.74578  -0.74449
 Alpha  occ. eigenvalues --   -0.73550  -0.72184  -0.71751  -0.70753  -0.68855
 Alpha  occ. eigenvalues --   -0.68420  -0.68098  -0.66994  -0.66346  -0.65465
 Alpha  occ. eigenvalues --   -0.65308  -0.64651  -0.64546  -0.64017  -0.63835
 Alpha  occ. eigenvalues --   -0.62946  -0.62497  -0.62140  -0.61178  -0.60703
 Alpha  occ. eigenvalues --   -0.59816  -0.59366  -0.58870  -0.58406  -0.57603
 Alpha  occ. eigenvalues --   -0.57232  -0.56784  -0.56086  -0.55732  -0.55021
 Alpha  occ. eigenvalues --   -0.54874  -0.54615  -0.54309  -0.53751  -0.53476
 Alpha  occ. eigenvalues --   -0.53445  -0.53352  -0.53136  -0.53047  -0.52977
 Alpha  occ. eigenvalues --   -0.52777  -0.52604  -0.52436  -0.52255  -0.51883
 Alpha  occ. eigenvalues --   -0.51705  -0.51178  -0.50957  -0.50731  -0.50686
 Alpha  occ. eigenvalues --   -0.50587  -0.50566  -0.50194  -0.49988  -0.49829
 Alpha  occ. eigenvalues --   -0.49567  -0.49319  -0.49121  -0.48952  -0.48862
 Alpha  occ. eigenvalues --   -0.48752  -0.48517  -0.48218  -0.47919  -0.47726
 Alpha  occ. eigenvalues --   -0.47599  -0.47552  -0.47036  -0.46911  -0.46662
 Alpha  occ. eigenvalues --   -0.46396  -0.46160  -0.46070  -0.45947  -0.45768
 Alpha  occ. eigenvalues --   -0.45688  -0.45438  -0.45415  -0.45276  -0.45099
 Alpha  occ. eigenvalues --   -0.44908  -0.44662  -0.44575  -0.44260  -0.44030
 Alpha  occ. eigenvalues --   -0.43717  -0.43640  -0.43590  -0.43478  -0.42937
 Alpha  occ. eigenvalues --   -0.42819  -0.42775  -0.42479  -0.42267  -0.42104
 Alpha  occ. eigenvalues --   -0.41827  -0.41660  -0.41276  -0.41003  -0.40643
 Alpha  occ. eigenvalues --   -0.40612  -0.40602  -0.40520  -0.40205  -0.39981
 Alpha  occ. eigenvalues --   -0.39624  -0.39518  -0.39246  -0.38837  -0.38631
 Alpha  occ. eigenvalues --   -0.38301  -0.37945  -0.37659  -0.37630  -0.37180
 Alpha  occ. eigenvalues --   -0.36867  -0.36803  -0.36358  -0.36261  -0.36165
 Alpha  occ. eigenvalues --   -0.35675  -0.35009  -0.34392  -0.34200  -0.33828
 Alpha  occ. eigenvalues --   -0.33256  -0.32996  -0.32744  -0.31296  -0.30481
 Alpha  occ. eigenvalues --   -0.30429  -0.30380  -0.30009  -0.29489  -0.23630
 Alpha  occ. eigenvalues --   -0.20575
 Alpha virt. eigenvalues --   -0.07970  -0.01778   0.00855   0.01892   0.02576
 Alpha virt. eigenvalues --    0.05254   0.05648   0.06262   0.06729   0.07224
 Alpha virt. eigenvalues --    0.07995   0.08090   0.08628   0.08942   0.09439

 Mulliken charges:
               1
     1  Mg   0.830660
     2  C   -0.049124
     3  C   -0.081080
     4  C   -0.062972
     5  C   -0.087180
     6  N   -0.281730
     7  C    0.036954
     8  C   -0.036107
     9  C   -0.019040
    10  C    0.044543
    11  C    0.069065
    12  C    0.078697
    13  C    0.004449
    14  C    0.150276
    15  O   -0.168465
    16  O   -0.398103
    17  N   -0.432829
    18  C    0.168611
    19  C   -0.126315
    20  C   -0.070126
    21  C    0.118571
    22  C    0.081969
    23  C    0.010817
    24  O   -0.189758
    25  C    0.066159
    26  N   -0.304388
    27  C    0.083979
    28  C   -0.053555
    29  C   -0.045079
    30  C    0.020556
    31  C    0.086189
    32  C    0.064982
    33  C   -0.003054
    34  N   -0.252305
    35  C    0.117199
    36  C   -0.219325
    37  C    0.005390
    38  C    0.077040
    39  C    0.156457
    40  C    0.053717
    41  O   -0.154116
    42  C   -0.018099
    43  C    0.186743
    44  O   -0.202769
    45  O   -0.329848
    46  C    0.184488
    47  C    0.293785
    48  C   -0.145873
    49  C   -0.147280
    50  C    0.067259
    51  C    0.058905
    52  C    0.052925
    53  C    0.044687
    54  C   -0.182063
    55  C    0.058076
    56  C    0.058614
    57  C    0.053002
    58  C    0.070957
    59  C   -0.163419
    60  C    0.046171
    61  C    0.061773
    62  C    0.000416
    63  C    0.058262
    64  C   -0.159465
    65  C    0.064200
    66  C    0.039014
    67  H   -0.040139
    68  H    0.005427
    69  H   -0.036633
    70  H    0.018961
    71  H    0.008464
    72  H    0.022670
    73  H    0.005457
    74  H    0.027647
    75  H   -0.019340
    76  H    0.019904
    77  H    0.041314
    78  H    0.040717
    79  H    0.004374
    80  H    0.031114
    81  H    0.031353
    82  H    0.033959
    83  H    0.036246
    84  H    0.029067
    85  H    0.005712
    86  H    0.007910
    87  H    0.037366
    88  H    0.012108
    89  H   -0.003307
    90  H    0.008558
    91  H    0.010522
    92  H    0.022572
    93  H    0.008195
    94  H    0.016796
    95  H    0.013536
    96  H    0.053512
    97  H    0.014117
    98  H    0.052644
    99  H    0.010775
   100  H    0.022642
   101  H    0.040209
   102  H    0.042286
   103  H    0.037218
   104  H    0.010515
   105  H    0.009687
   106  H    0.026428
   107  H    0.023306
   108  H    0.008612
   109  H   -0.009065
   110  H   -0.008036
   111  H    0.007108
   112  H   -0.007458
   113  H   -0.002541
   114  H   -0.013746
   115  H    0.009386
   116  H    0.012610
   117  H    0.002713
   118  H   -0.016809
   119  H   -0.019217
   120  H   -0.013770
   121  H   -0.002398
   122  H   -0.010495
   123  H   -0.023121
   124  H   -0.007858
   125  H    0.003665
   126  H    0.008135
   127  H    0.004334
   128  H   -0.004301
   129  H   -0.010194
   130  H   -0.005344
   131  H   -0.006083
   132  H   -0.007976
   133  H   -0.002289
   134  H   -0.001573
   135  H    0.004805
   136  H    0.004839
   137  H    0.003532
   138  H    0.006173
   139  H    0.002331
   140  H    0.008077
 Sum of Mulliken charges =  -0.00000

 Dipole moment (field-independent basis, Debye):
    X=             -2.8673    Y=              5.0829    Z=              1.6293  Tot=              6.0591
 Quadrupole moment (field-independent basis, Debye-Ang):
   XX=           -379.0610   YY=           -423.4356   ZZ=           -404.9511
   XY=             15.0710   XZ=             12.1534   YZ=             -2.2635

 Normal termination of Gaussian 16 at Sat Apr 30 03:23:14 2022.
