 Gaussian 16, Revision A.03,
 Gaussian 16:  ES64L-G16RevA.03 25-Dec-2016

 ---------------------------------
 #p PBE1PBE/Def2SVP td=(nstates=5)
 ---------------------------------

 ----------------------------------------------------
 step_551_chromophore_4 TDDFT with PBE1PBE functional
 ----------------------------------------------------
 Symbolic Z-matrix:
 Charge =  0 Multiplicity = 1

                         Standard orientation:
 ---------------------------------------------------------------------
 Center     Atomic      Atomic             Coordinates (Angstroms)
 Number     Number       Type             X           Y           Z
 ---------------------------------------------------------------------
      1         12           0        6.090814    0.637239    0.138537
      2          6           0        3.793594   -2.083573    0.048557
      3          6           0        3.566996    2.652682   -0.986770
      4          6           0        8.389007    3.039176   -0.226606
      5          6           0        8.662029   -1.818428    0.306008
      6          7           0        3.928272    0.249781   -0.353540
      7          6           0        3.137027   -0.841382   -0.166212
      8          6           0        1.716689   -0.512471   -0.419512
      9          6           0        1.697339    0.944996   -0.904162
     10          6           0        3.127390    1.335024   -0.715157
     11          6           0        1.069996    1.123217   -2.282240
     12          6           0        0.777592   -0.794243    0.746497
     13          6           0       -0.705390   -0.721475    0.372482
     14          6           0       -1.561165   -2.045156    0.449260
     15          8           0       -1.225134   -3.163949    0.600639
     16          8           0       -2.906472   -1.789224    0.142610
     17          7           0        5.924397    2.565589   -0.361476
     18          6           0        4.803381    3.253067   -0.751445
     19          6           0        5.160402    4.655443   -0.884560
     20          6           0        6.509148    4.820787   -0.476380
     21          6           0        7.030940    3.400473   -0.417976
     22          6           0        4.166268    5.755869   -1.184436
     23          6           0        7.358292    6.133763   -0.265534
     24          8           0        8.549361    6.079247   -0.091761
     25          6           0        6.773799    7.528510   -0.230307
     26          7           0        8.231560    0.568058    0.100881
     27          6           0        8.903472    1.753894    0.059574
     28          6           0       10.411873    1.442653    0.255195
     29          6           0       10.477400   -0.081678    0.811552
     30          6           0        9.063384   -0.479503    0.422079
     31          6           0       11.340300    1.824699   -0.909247
     32          6           0       10.779250   -0.225421    2.297568
     33          6           0       12.266762   -0.563800    2.543241
     34          7           0        6.286288   -1.557701    0.153989
     35          6           0        7.381687   -2.344698    0.229783
     36          6           0        6.952943   -3.726597    0.494033
     37          6           0        5.594291   -3.689039    0.280344
     38          6           0        5.254040   -2.345874    0.078917
     39          6           0        7.737121   -4.953612    0.777022
     40          6           0        4.383061   -4.510696    0.301025
     41          8           0        4.220833   -5.691725    0.534437
     42          6           0        3.192236   -3.501271    0.222875
     43          6           0        2.396016   -3.934779   -0.972475
     44          8           0        2.663039   -3.710507   -2.124924
     45          8           0        1.385254   -4.827193   -0.616194
     46          6           0        0.368791   -5.168160   -1.564102
     47          6           0       -3.925421   -2.909787    0.018811
     48          6           0       -5.345322   -2.413526    0.232087
     49          6           0       -6.483442   -3.105537    0.286525
     50          6           0       -6.724407   -4.644111    0.322800
     51          6           0       -7.823253   -2.346875    0.504720
     52          6           0       -8.390610   -1.688722   -0.809709
     53          6           0       -8.235792   -0.134764   -0.919189
     54          6           0       -9.453525    0.747303   -0.457682
     55          6           0      -10.521273    0.879443   -1.570276
     56          6           0       -9.102103    2.189696    0.070863
     57          6           0       -9.577573    2.479368    1.499160
     58          6           0      -10.777985    3.360020    1.609436
     59          6           0      -12.110549    2.613353    2.010517
     60          6           0      -12.795370    3.377634    3.162961
     61          6           0      -13.067323    2.524579    0.773907
     62          6           0      -13.681547    1.143272    0.739936
     63          6           0      -14.297005    0.741158   -0.578250
     64          6           0      -15.825467    0.235861   -0.474016
     65          6           0      -16.164901   -0.756455   -1.598529
     66          6           0      -16.774646    1.425203   -0.552596
     67          1           0        2.795691    3.331580   -1.355996
     68          1           0        9.087293    3.861093   -0.398346
     69          1           0        9.472699   -2.546622    0.375931
     70          1           0        1.248274   -1.160566   -1.160572
     71          1           0        1.092035    1.550525   -0.229134
     72          1           0        1.832554    1.520777   -2.950968
     73          1           0        0.264841    1.858846   -2.300237
     74          1           0        0.601726    0.224558   -2.683489
     75          1           0        0.897370    0.020195    1.461098
     76          1           0        0.979470   -1.601921    1.449407
     77          1           0       -0.823918   -0.444118   -0.674976
     78          1           0       -1.246738   -0.051875    1.039055
     79          1           0        3.154674    5.418874   -1.413193
     80          1           0        4.370202    6.423050   -2.021626
     81          1           0        4.093424    6.343417   -0.270143
     82          1           0        6.146138    7.496329    0.660248
     83          1           0        6.259234    7.619573   -1.187189
     84          1           0        7.456716    8.357921   -0.047465
     85          1           0       10.676954    2.054417    1.117322
     86          1           0       11.147570   -0.707069    0.221894
     87          1           0       11.945165    2.683380   -0.617079
     88          1           0       10.886951    1.903609   -1.898238
     89          1           0       11.915727    0.957701   -1.232858
     90          1           0       10.185760   -1.064684    2.661717
     91          1           0       10.586186    0.695041    2.849306
     92          1           0       12.649105   -0.103725    3.453476
     93          1           0       12.789339   -0.173851    1.669455
     94          1           0       12.448268   -1.638004    2.494291
     95          1           0        8.576395   -4.869474    0.086090
     96          1           0        7.127006   -5.849525    0.658673
     97          1           0        8.223463   -4.761870    1.732674
     98          1           0        2.607429   -3.549824    1.141437
     99          1           0        0.588444   -6.172888   -1.924185
    100          1           0        0.405902   -4.620413   -2.505806
    101          1           0       -0.619586   -5.225559   -1.108726
    102          1           0       -3.793132   -3.664154    0.794450
    103          1           0       -3.861126   -3.355647   -0.973848
    104          1           0       -5.387347   -1.328249    0.321737
    105          1           0       -5.830933   -5.227066    0.546510
    106          1           0       -7.125370   -4.969935   -0.637494
    107          1           0       -7.440492   -4.942850    1.087761
    108          1           0       -7.680746   -1.594376    1.280834
    109          1           0       -8.558115   -3.021113    0.944280
    110          1           0       -9.470590   -1.833328   -0.790848
    111          1           0       -8.009227   -2.106430   -1.740339
    112          1           0       -8.071755    0.173859   -1.951624
    113          1           0       -7.439637    0.226884   -0.268950
    114          1           0       -9.948402    0.260289    0.383286
    115          1           0      -10.977396   -0.099398   -1.420238
    116          1           0      -10.015371    1.020425   -2.525198
    117          1           0      -11.240863    1.665306   -1.340755
    118          1           0       -9.495254    2.865572   -0.687958
    119          1           0       -8.023136    2.319191   -0.007122
    120          1           0       -8.801655    3.131986    1.898973
    121          1           0       -9.600696    1.627543    2.179272
    122          1           0      -10.915909    3.897587    0.671777
    123          1           0      -10.698128    4.071293    2.431174
    124          1           0      -11.841141    1.701996    2.543501
    125          1           0      -12.361419    3.126283    4.131712
    126          1           0      -13.850305    3.113059    3.092441
    127          1           0      -12.586126    4.440185    3.043066
    128          1           0      -12.560039    2.762186   -0.161353
    129          1           0      -13.856892    3.261526    0.917490
    130          1           0      -14.458672    1.038875    1.498845
    131          1           0      -12.851913    0.448714    0.870875
    132          1           0      -13.694306   -0.133325   -0.823610
    133          1           0      -14.080986    1.552242   -1.274730
    134          1           0      -16.011621   -0.131365    0.534975
    135          1           0      -16.767984   -0.268049   -2.363483
    136          1           0      -16.778380   -1.585764   -1.247356
    137          1           0      -15.242350   -1.168436   -2.007980
    138          1           0      -16.908751    1.672425    0.500280
    139          1           0      -17.758597    1.238177   -0.982340
    140          1           0      -16.396116    2.197766   -1.221940
 ---------------------------------------------------------------------

 SCF Done:  E(RPBE1PBE) =  -3005.33362204     A.U. after   15 cycles

 Excitation energies and oscillator strengths:

 Excited State   1:      Singlet-A      1.8589 eV  666.98 nm  f=0.3424  <S**2>=0.000
     245 -> 248        0.18330
     246 -> 247        0.68917
     246 <- 247       -0.10070
 This state for optimization and/or second-order correction.
 Total Energy, E(TD-HF/TD-DFT) =  -3005.26530896
 Copying the excited state density for this state as the 1-particle RhoCI density.

 Excited State   2:      Singlet-A      2.2511 eV  550.76 nm  f=0.0802  <S**2>=0.000
     245 -> 247        0.63150
     246 -> 248       -0.30690

 Excited State   3:      Singlet-A      3.1375 eV  395.17 nm  f=0.0016  <S**2>=0.000
     242 -> 247       -0.46505
     242 -> 249        0.13739
     243 -> 247       -0.13433
     244 -> 247        0.47082

 Excited State   4:      Singlet-A      3.1750 eV  390.50 nm  f=0.0086  <S**2>=0.000
     243 -> 247        0.59694
     244 -> 247        0.28772

 Excited State   5:      Singlet-A      3.2144 eV  385.71 nm  f=0.0755  <S**2>=0.000
     242 -> 247        0.41194
     243 -> 247       -0.24454
     244 -> 247        0.36527
     245 -> 247        0.11243
     246 -> 248        0.31438

 The electronic state is 1-A.
 Alpha  occ. eigenvalues --  -46.92478 -19.24358 -19.23042 -19.20563 -19.19244
 Alpha  occ. eigenvalues --  -19.19028 -19.18945 -14.41668 -14.41267 -14.39376
 Alpha  occ. eigenvalues --  -14.38096 -10.36631 -10.35093 -10.32829 -10.31822
 Alpha  occ. eigenvalues --  -10.30067 -10.28671 -10.28570 -10.28568 -10.28551
 Alpha  occ. eigenvalues --  -10.28097 -10.27646 -10.26640 -10.26528 -10.26418
 Alpha  occ. eigenvalues --  -10.26288 -10.25965 -10.25907 -10.25629 -10.25581
 Alpha  occ. eigenvalues --  -10.25565 -10.25535 -10.25529 -10.25292 -10.25237
 Alpha  occ. eigenvalues --  -10.24893 -10.24864 -10.24589 -10.24472 -10.24012
 Alpha  occ. eigenvalues --  -10.23968 -10.23903 -10.23900 -10.23808 -10.23748
 Alpha  occ. eigenvalues --  -10.23702 -10.23671 -10.23522 -10.23474 -10.23166
 Alpha  occ. eigenvalues --  -10.23117 -10.23069 -10.22895 -10.22836 -10.22779
 Alpha  occ. eigenvalues --  -10.22204 -10.22150 -10.22123 -10.21971 -10.21843
 Alpha  occ. eigenvalues --  -10.21804 -10.21748 -10.21631 -10.21623 -10.21499
 Alpha  occ. eigenvalues --  -10.21427  -3.14531  -1.87358  -1.86893  -1.86768
 Alpha  occ. eigenvalues --   -1.11231  -1.09479  -1.06102  -1.04633  -1.01926
 Alpha  occ. eigenvalues --   -1.01452  -0.99665  -0.98148  -0.97517  -0.96724
 Alpha  occ. eigenvalues --   -0.85619  -0.85056  -0.84359  -0.83810  -0.83249
 Alpha  occ. eigenvalues --   -0.82717  -0.82418  -0.81643  -0.81454  -0.81207
 Alpha  occ. eigenvalues --   -0.80749  -0.79763  -0.78766  -0.77738  -0.77589
 Alpha  occ. eigenvalues --   -0.76888  -0.76034  -0.75638  -0.75066  -0.74257
 Alpha  occ. eigenvalues --   -0.73965  -0.72735  -0.72252  -0.71546  -0.70119
 Alpha  occ. eigenvalues --   -0.69771  -0.69307  -0.69167  -0.68719  -0.68611
 Alpha  occ. eigenvalues --   -0.67866  -0.66670  -0.66147  -0.65101  -0.63213
 Alpha  occ. eigenvalues --   -0.62848  -0.62354  -0.61431  -0.60564  -0.59918
 Alpha  occ. eigenvalues --   -0.59730  -0.59118  -0.58865  -0.58623  -0.57933
 Alpha  occ. eigenvalues --   -0.57131  -0.56973  -0.56380  -0.55744  -0.55239
 Alpha  occ. eigenvalues --   -0.54337  -0.53846  -0.53482  -0.53067  -0.52105
 Alpha  occ. eigenvalues --   -0.51738  -0.51227  -0.50657  -0.50236  -0.49591
 Alpha  occ. eigenvalues --   -0.49427  -0.49062  -0.48724  -0.48312  -0.47987
 Alpha  occ. eigenvalues --   -0.47909  -0.47707  -0.47613  -0.47556  -0.47438
 Alpha  occ. eigenvalues --   -0.47235  -0.47207  -0.46952  -0.46853  -0.46394
 Alpha  occ. eigenvalues --   -0.46246  -0.45806  -0.45490  -0.45318  -0.45250
 Alpha  occ. eigenvalues --   -0.45139  -0.45009  -0.44722  -0.44556  -0.44463
 Alpha  occ. eigenvalues --   -0.44270  -0.43832  -0.43754  -0.43542  -0.43494
 Alpha  occ. eigenvalues --   -0.43370  -0.43094  -0.42857  -0.42544  -0.42382
 Alpha  occ. eigenvalues --   -0.42225  -0.42161  -0.41669  -0.41520  -0.41371
 Alpha  occ. eigenvalues --   -0.41116  -0.40811  -0.40751  -0.40618  -0.40545
 Alpha  occ. eigenvalues --   -0.40263  -0.40228  -0.40099  -0.40046  -0.39821
 Alpha  occ. eigenvalues --   -0.39637  -0.39427  -0.39392  -0.38980  -0.38781
 Alpha  occ. eigenvalues --   -0.38521  -0.38415  -0.38260  -0.38180  -0.37683
 Alpha  occ. eigenvalues --   -0.37568  -0.37529  -0.37322  -0.37041  -0.36969
 Alpha  occ. eigenvalues --   -0.36689  -0.36566  -0.36154  -0.35896  -0.35540
 Alpha  occ. eigenvalues --   -0.35409  -0.35378  -0.35361  -0.34961  -0.34788
 Alpha  occ. eigenvalues --   -0.34563  -0.34336  -0.34111  -0.33637  -0.33393
 Alpha  occ. eigenvalues --   -0.33062  -0.32930  -0.32665  -0.32395  -0.32022
 Alpha  occ. eigenvalues --   -0.31878  -0.31769  -0.31345  -0.31277  -0.31037
 Alpha  occ. eigenvalues --   -0.30600  -0.29916  -0.29467  -0.29234  -0.28719
 Alpha  occ. eigenvalues --   -0.28374  -0.27968  -0.27967  -0.26580  -0.25785
 Alpha  occ. eigenvalues --   -0.25623  -0.25434  -0.25263  -0.25145  -0.20562
 Alpha  occ. eigenvalues --   -0.18236
 Alpha virt. eigenvalues --   -0.10502  -0.05238  -0.03351  -0.01916  -0.00783
 Alpha virt. eigenvalues --    0.00918   0.01171   0.01639   0.02065   0.03349
 Alpha virt. eigenvalues --    0.04326   0.04650   0.04723   0.05324   0.05942

 Mulliken charges:
               1
     1  Mg   0.974407
     2  C   -0.056268
     3  C   -0.072604
     4  C   -0.051043
     5  C   -0.078932
     6  N   -0.383663
     7  C    0.097875
     8  C   -0.109118
     9  C   -0.096317
    10  C    0.080641
    11  C    0.011230
    12  C    0.034415
    13  C   -0.076125
    14  C    0.221819
    15  O   -0.203708
    16  O   -0.429550
    17  N   -0.549406
    18  C    0.190651
    19  C   -0.160154
    20  C   -0.107626
    21  C    0.142687
    22  C    0.026768
    23  C    0.055972
    24  O   -0.225518
    25  C   -0.008553
    26  N   -0.406270
    27  C    0.115392
    28  C   -0.129181
    29  C   -0.121513
    30  C    0.062513
    31  C    0.029358
    32  C    0.006993
    33  C   -0.076121
    34  N   -0.376857
    35  C    0.130823
    36  C   -0.228398
    37  C   -0.048670
    38  C    0.141168
    39  C    0.094821
    40  C    0.149130
    41  O   -0.199239
    42  C   -0.118174
    43  C    0.277086
    44  O   -0.237890
    45  O   -0.363767
    46  C    0.131337
    47  C    0.258917
    48  C   -0.158452
    49  C   -0.194013
    50  C    0.004985
    51  C   -0.002411
    52  C   -0.011568
    53  C   -0.010410
    54  C   -0.262167
    55  C   -0.011068
    56  C    0.007018
    57  C   -0.017397
    58  C    0.019034
    59  C   -0.244232
    60  C   -0.016449
    61  C    0.004312
    62  C   -0.061526
    63  C    0.001751
    64  C   -0.253381
    65  C    0.001967
    66  C   -0.017403
    67  H   -0.006766
    68  H    0.036716
    69  H   -0.005027
    70  H    0.059762
    71  H    0.045758
    72  H    0.050660
    73  H    0.032792
    74  H    0.052830
    75  H    0.015792
    76  H    0.050775
    77  H    0.074576
    78  H    0.071649
    79  H    0.031078
    80  H    0.056871
    81  H    0.058801
    82  H    0.060609
    83  H    0.062797
    84  H    0.056074
    85  H    0.044346
    86  H    0.043983
    87  H    0.063285
    88  H    0.039434
    89  H    0.024008
    90  H    0.042984
    91  H    0.042560
    92  H    0.050397
    93  H    0.037503
    94  H    0.044691
    95  H    0.043111
    96  H    0.080147
    97  H    0.044022
    98  H    0.088252
    99  H    0.033972
   100  H    0.043674
   101  H    0.062470
   102  H    0.067467
   103  H    0.063400
   104  H    0.041133
   105  H    0.036876
   106  H    0.054608
   107  H    0.049483
   108  H    0.040636
   109  H    0.022469
   110  H    0.026249
   111  H    0.038976
   112  H    0.025025
   113  H    0.030613
   114  H    0.026669
   115  H    0.038085
   116  H    0.039940
   117  H    0.037467
   118  H    0.015236
   119  H    0.012807
   120  H    0.021488
   121  H    0.027892
   122  H    0.021187
   123  H    0.010624
   124  H    0.027964
   125  H    0.032376
   126  H    0.036616
   127  H    0.032201
   128  H    0.025588
   129  H    0.024113
   130  H    0.026937
   131  H    0.029109
   132  H    0.026596
   133  H    0.028614
   134  H    0.035057
   135  H    0.032144
   136  H    0.032997
   137  H    0.030449
   138  H    0.033305
   139  H    0.030184
   140  H    0.034909
 Sum of Mulliken charges =  -0.00000

 Dipole moment (field-independent basis, Debye):
    X=             -2.7954    Y=              4.8173    Z=              1.7091  Tot=              5.8259
 Quadrupole moment (field-independent basis, Debye-Ang):
   XX=           -372.4557   YY=           -420.9056   ZZ=           -402.5821
   XY=             12.9106   XZ=             12.9987   YZ=             -2.2836

 Normal termination of Gaussian 16 at Sat Apr 30 03:43:07 2022.
