 Gaussian 16, Revision A.03,
 Gaussian 16:  ES64L-G16RevA.03 25-Dec-2016

 --------------------------------
 #p wB97XD/Def2SVP td=(nstates=5)
 --------------------------------

 ---------------------------------------------------
 step_551_chromophore_4 TDDFT with wB97XD functional
 ---------------------------------------------------
 Symbolic Z-matrix:
 Charge =  0 Multiplicity = 1

                         Standard orientation:
 ---------------------------------------------------------------------
 Center     Atomic      Atomic             Coordinates (Angstroms)
 Number     Number       Type             X           Y           Z
 ---------------------------------------------------------------------
      1         12           0        6.090814    0.637239    0.138537
      2          6           0        3.793594   -2.083573    0.048557
      3          6           0        3.566996    2.652682   -0.986770
      4          6           0        8.389007    3.039176   -0.226606
      5          6           0        8.662029   -1.818428    0.306008
      6          7           0        3.928272    0.249781   -0.353540
      7          6           0        3.137027   -0.841382   -0.166212
      8          6           0        1.716689   -0.512471   -0.419512
      9          6           0        1.697339    0.944996   -0.904162
     10          6           0        3.127390    1.335024   -0.715157
     11          6           0        1.069996    1.123217   -2.282240
     12          6           0        0.777592   -0.794243    0.746497
     13          6           0       -0.705390   -0.721475    0.372482
     14          6           0       -1.561165   -2.045156    0.449260
     15          8           0       -1.225134   -3.163949    0.600639
     16          8           0       -2.906472   -1.789224    0.142610
     17          7           0        5.924397    2.565589   -0.361476
     18          6           0        4.803381    3.253067   -0.751445
     19          6           0        5.160402    4.655443   -0.884560
     20          6           0        6.509148    4.820787   -0.476380
     21          6           0        7.030940    3.400473   -0.417976
     22          6           0        4.166268    5.755869   -1.184436
     23          6           0        7.358292    6.133763   -0.265534
     24          8           0        8.549361    6.079247   -0.091761
     25          6           0        6.773799    7.528510   -0.230307
     26          7           0        8.231560    0.568058    0.100881
     27          6           0        8.903472    1.753894    0.059574
     28          6           0       10.411873    1.442653    0.255195
     29          6           0       10.477400   -0.081678    0.811552
     30          6           0        9.063384   -0.479503    0.422079
     31          6           0       11.340300    1.824699   -0.909247
     32          6           0       10.779250   -0.225421    2.297568
     33          6           0       12.266762   -0.563800    2.543241
     34          7           0        6.286288   -1.557701    0.153989
     35          6           0        7.381687   -2.344698    0.229783
     36          6           0        6.952943   -3.726597    0.494033
     37          6           0        5.594291   -3.689039    0.280344
     38          6           0        5.254040   -2.345874    0.078917
     39          6           0        7.737121   -4.953612    0.777022
     40          6           0        4.383061   -4.510696    0.301025
     41          8           0        4.220833   -5.691725    0.534437
     42          6           0        3.192236   -3.501271    0.222875
     43          6           0        2.396016   -3.934779   -0.972475
     44          8           0        2.663039   -3.710507   -2.124924
     45          8           0        1.385254   -4.827193   -0.616194
     46          6           0        0.368791   -5.168160   -1.564102
     47          6           0       -3.925421   -2.909787    0.018811
     48          6           0       -5.345322   -2.413526    0.232087
     49          6           0       -6.483442   -3.105537    0.286525
     50          6           0       -6.724407   -4.644111    0.322800
     51          6           0       -7.823253   -2.346875    0.504720
     52          6           0       -8.390610   -1.688722   -0.809709
     53          6           0       -8.235792   -0.134764   -0.919189
     54          6           0       -9.453525    0.747303   -0.457682
     55          6           0      -10.521273    0.879443   -1.570276
     56          6           0       -9.102103    2.189696    0.070863
     57          6           0       -9.577573    2.479368    1.499160
     58          6           0      -10.777985    3.360020    1.609436
     59          6           0      -12.110549    2.613353    2.010517
     60          6           0      -12.795370    3.377634    3.162961
     61          6           0      -13.067323    2.524579    0.773907
     62          6           0      -13.681547    1.143272    0.739936
     63          6           0      -14.297005    0.741158   -0.578250
     64          6           0      -15.825467    0.235861   -0.474016
     65          6           0      -16.164901   -0.756455   -1.598529
     66          6           0      -16.774646    1.425203   -0.552596
     67          1           0        2.795691    3.331580   -1.355996
     68          1           0        9.087293    3.861093   -0.398346
     69          1           0        9.472699   -2.546622    0.375931
     70          1           0        1.248274   -1.160566   -1.160572
     71          1           0        1.092035    1.550525   -0.229134
     72          1           0        1.832554    1.520777   -2.950968
     73          1           0        0.264841    1.858846   -2.300237
     74          1           0        0.601726    0.224558   -2.683489
     75          1           0        0.897370    0.020195    1.461098
     76          1           0        0.979470   -1.601921    1.449407
     77          1           0       -0.823918   -0.444118   -0.674976
     78          1           0       -1.246738   -0.051875    1.039055
     79          1           0        3.154674    5.418874   -1.413193
     80          1           0        4.370202    6.423050   -2.021626
     81          1           0        4.093424    6.343417   -0.270143
     82          1           0        6.146138    7.496329    0.660248
     83          1           0        6.259234    7.619573   -1.187189
     84          1           0        7.456716    8.357921   -0.047465
     85          1           0       10.676954    2.054417    1.117322
     86          1           0       11.147570   -0.707069    0.221894
     87          1           0       11.945165    2.683380   -0.617079
     88          1           0       10.886951    1.903609   -1.898238
     89          1           0       11.915727    0.957701   -1.232858
     90          1           0       10.185760   -1.064684    2.661717
     91          1           0       10.586186    0.695041    2.849306
     92          1           0       12.649105   -0.103725    3.453476
     93          1           0       12.789339   -0.173851    1.669455
     94          1           0       12.448268   -1.638004    2.494291
     95          1           0        8.576395   -4.869474    0.086090
     96          1           0        7.127006   -5.849525    0.658673
     97          1           0        8.223463   -4.761870    1.732674
     98          1           0        2.607429   -3.549824    1.141437
     99          1           0        0.588444   -6.172888   -1.924185
    100          1           0        0.405902   -4.620413   -2.505806
    101          1           0       -0.619586   -5.225559   -1.108726
    102          1           0       -3.793132   -3.664154    0.794450
    103          1           0       -3.861126   -3.355647   -0.973848
    104          1           0       -5.387347   -1.328249    0.321737
    105          1           0       -5.830933   -5.227066    0.546510
    106          1           0       -7.125370   -4.969935   -0.637494
    107          1           0       -7.440492   -4.942850    1.087761
    108          1           0       -7.680746   -1.594376    1.280834
    109          1           0       -8.558115   -3.021113    0.944280
    110          1           0       -9.470590   -1.833328   -0.790848
    111          1           0       -8.009227   -2.106430   -1.740339
    112          1           0       -8.071755    0.173859   -1.951624
    113          1           0       -7.439637    0.226884   -0.268950
    114          1           0       -9.948402    0.260289    0.383286
    115          1           0      -10.977396   -0.099398   -1.420238
    116          1           0      -10.015371    1.020425   -2.525198
    117          1           0      -11.240863    1.665306   -1.340755
    118          1           0       -9.495254    2.865572   -0.687958
    119          1           0       -8.023136    2.319191   -0.007122
    120          1           0       -8.801655    3.131986    1.898973
    121          1           0       -9.600696    1.627543    2.179272
    122          1           0      -10.915909    3.897587    0.671777
    123          1           0      -10.698128    4.071293    2.431174
    124          1           0      -11.841141    1.701996    2.543501
    125          1           0      -12.361419    3.126283    4.131712
    126          1           0      -13.850305    3.113059    3.092441
    127          1           0      -12.586126    4.440185    3.043066
    128          1           0      -12.560039    2.762186   -0.161353
    129          1           0      -13.856892    3.261526    0.917490
    130          1           0      -14.458672    1.038875    1.498845
    131          1           0      -12.851913    0.448714    0.870875
    132          1           0      -13.694306   -0.133325   -0.823610
    133          1           0      -14.080986    1.552242   -1.274730
    134          1           0      -16.011621   -0.131365    0.534975
    135          1           0      -16.767984   -0.268049   -2.363483
    136          1           0      -16.778380   -1.585764   -1.247356
    137          1           0      -15.242350   -1.168436   -2.007980
    138          1           0      -16.908751    1.672425    0.500280
    139          1           0      -17.758597    1.238177   -0.982340
    140          1           0      -16.396116    2.197766   -1.221940
 ---------------------------------------------------------------------

 SCF Done:  E(RwB97XD) =  -3007.84338307     A.U. after   17 cycles

 Excitation energies and oscillator strengths:

 Excited State   1:      Singlet-A      1.6469 eV  752.82 nm  f=0.3491  <S**2>=0.000
     245 -> 248        0.19603
     246 -> 247        0.68062
     245 <- 248        0.11997
 This state for optimization and/or second-order correction.
 Total Energy, E(TD-HF/TD-DFT) =  -3007.78285948
 Copying the excited state density for this state as the 1-particle RhoCI density.

 Excited State   2:      Singlet-A      2.1792 eV  568.93 nm  f=0.0730  <S**2>=0.000
     245 -> 247        0.61583
     246 -> 248       -0.33774

 Excited State   3:      Singlet-A      3.4523 eV  359.14 nm  f=0.7541  <S**2>=0.000
     243 -> 247        0.15621
     244 -> 247        0.10137
     245 -> 247        0.31317
     246 -> 248        0.60111
     245 <- 247       -0.11662

 Excited State   4:      Singlet-A      3.5819 eV  346.14 nm  f=0.0003  <S**2>=0.000
     243 -> 247       -0.35783
     244 -> 247        0.57757

 Excited State   5:      Singlet-A      3.6805 eV  336.87 nm  f=0.0479  <S**2>=0.000
     240 -> 247        0.12491
     242 -> 247        0.38305
     242 -> 249       -0.28302
     242 -> 250        0.20024
     243 -> 247       -0.33828
     244 -> 247       -0.19413

 The electronic state is 1-A.
 Alpha  occ. eigenvalues --  -46.95419 -19.28887 -19.27590 -19.25222 -19.24169
 Alpha  occ. eigenvalues --  -19.23769 -19.23663 -14.46744 -14.46346 -14.44393
 Alpha  occ. eigenvalues --  -14.43000 -10.43371 -10.41922 -10.39753 -10.38605
 Alpha  occ. eigenvalues --  -10.36557 -10.35093 -10.35040 -10.34911 -10.34807
 Alpha  occ. eigenvalues --  -10.34204 -10.34175 -10.33127 -10.32934 -10.32834
 Alpha  occ. eigenvalues --  -10.32644 -10.32215 -10.32166 -10.32099 -10.31862
 Alpha  occ. eigenvalues --  -10.31808 -10.31735 -10.31680 -10.31665 -10.31569
 Alpha  occ. eigenvalues --  -10.31207 -10.31189 -10.31107 -10.31043 -10.30469
 Alpha  occ. eigenvalues --  -10.30424 -10.30347 -10.30266 -10.30216 -10.30180
 Alpha  occ. eigenvalues --  -10.30124 -10.30076 -10.29899 -10.29750 -10.29528
 Alpha  occ. eigenvalues --  -10.29460 -10.29343 -10.29242 -10.29206 -10.29040
 Alpha  occ. eigenvalues --  -10.28583 -10.28504 -10.28487 -10.28329 -10.28302
 Alpha  occ. eigenvalues --  -10.28158 -10.28052 -10.28021 -10.27940 -10.27931
 Alpha  occ. eigenvalues --  -10.27860  -3.21347  -1.94921  -1.94457  -1.94324
 Alpha  occ. eigenvalues --   -1.18560  -1.16869  -1.13676  -1.12040  -1.09246
 Alpha  occ. eigenvalues --   -1.08803  -1.06881  -1.05560  -1.04937  -1.04159
 Alpha  occ. eigenvalues --   -0.93197  -0.92662  -0.92033  -0.91488  -0.90812
 Alpha  occ. eigenvalues --   -0.90382  -0.90034  -0.89272  -0.89118  -0.88813
 Alpha  occ. eigenvalues --   -0.88429  -0.87408  -0.86429  -0.85301  -0.85241
 Alpha  occ. eigenvalues --   -0.84530  -0.83865  -0.83318  -0.82693  -0.81894
 Alpha  occ. eigenvalues --   -0.81588  -0.80346  -0.79944  -0.79148  -0.77706
 Alpha  occ. eigenvalues --   -0.77443  -0.77009  -0.76732  -0.76404  -0.76279
 Alpha  occ. eigenvalues --   -0.75472  -0.74176  -0.73706  -0.72693  -0.70761
 Alpha  occ. eigenvalues --   -0.70390  -0.69986  -0.68993  -0.68210  -0.67446
 Alpha  occ. eigenvalues --   -0.67216  -0.66568  -0.66491  -0.66020  -0.65635
 Alpha  occ. eigenvalues --   -0.64766  -0.64453  -0.64003  -0.63150  -0.62659
 Alpha  occ. eigenvalues --   -0.61837  -0.61313  -0.60859  -0.60396  -0.59548
 Alpha  occ. eigenvalues --   -0.59206  -0.58695  -0.58075  -0.57669  -0.56961
 Alpha  occ. eigenvalues --   -0.56808  -0.56500  -0.56192  -0.55662  -0.55390
 Alpha  occ. eigenvalues --   -0.55320  -0.55265  -0.55036  -0.54955  -0.54850
 Alpha  occ. eigenvalues --   -0.54651  -0.54530  -0.54339  -0.54182  -0.53773
 Alpha  occ. eigenvalues --   -0.53586  -0.53089  -0.52887  -0.52630  -0.52582
 Alpha  occ. eigenvalues --   -0.52540  -0.52518  -0.52153  -0.51880  -0.51744
 Alpha  occ. eigenvalues --   -0.51477  -0.51174  -0.51050  -0.50831  -0.50767
 Alpha  occ. eigenvalues --   -0.50680  -0.50410  -0.50111  -0.49806  -0.49678
 Alpha  occ. eigenvalues --   -0.49498  -0.49466  -0.48997  -0.48794  -0.48589
 Alpha  occ. eigenvalues --   -0.48322  -0.48048  -0.47974  -0.47833  -0.47688
 Alpha  occ. eigenvalues --   -0.47529  -0.47352  -0.47275  -0.47201  -0.47021
 Alpha  occ. eigenvalues --   -0.46816  -0.46604  -0.46488  -0.46143  -0.45934
 Alpha  occ. eigenvalues --   -0.45646  -0.45560  -0.45456  -0.45404  -0.44958
 Alpha  occ. eigenvalues --   -0.44758  -0.44691  -0.44357  -0.44140  -0.44018
 Alpha  occ. eigenvalues --   -0.43751  -0.43582  -0.43178  -0.42914  -0.42513
 Alpha  occ. eigenvalues --   -0.42505  -0.42475  -0.42399  -0.42066  -0.41933
 Alpha  occ. eigenvalues --   -0.41497  -0.41377  -0.41155  -0.40695  -0.40474
 Alpha  occ. eigenvalues --   -0.40136  -0.39835  -0.39632  -0.39462  -0.39038
 Alpha  occ. eigenvalues --   -0.38848  -0.38778  -0.38360  -0.38228  -0.38008
 Alpha  occ. eigenvalues --   -0.37523  -0.36849  -0.36321  -0.36214  -0.35769
 Alpha  occ. eigenvalues --   -0.35202  -0.34951  -0.34840  -0.33388  -0.32610
 Alpha  occ. eigenvalues --   -0.32416  -0.32407  -0.32169  -0.31646  -0.25548
 Alpha  occ. eigenvalues --   -0.22385
 Alpha virt. eigenvalues --   -0.06308   0.00131   0.02917   0.04578   0.05138
 Alpha virt. eigenvalues --    0.07616   0.07934   0.08520   0.08905   0.09970
 Alpha virt. eigenvalues --    0.10885   0.11270   0.11366   0.12022   0.12549

 Mulliken charges:
               1
     1  Mg   0.965923
     2  C   -0.057598
     3  C   -0.090535
     4  C   -0.069317
     5  C   -0.093812
     6  N   -0.350580
     7  C    0.068650
     8  C   -0.074646
     9  C   -0.071848
    10  C    0.068156
    11  C    0.019804
    12  C    0.039831
    13  C   -0.055841
    14  C    0.209295
    15  O   -0.200634
    16  O   -0.428612
    17  N   -0.518204
    18  C    0.186237
    19  C   -0.146881
    20  C   -0.105169
    21  C    0.138074
    22  C    0.036071
    23  C    0.054547
    24  O   -0.220679
    25  C    0.003933
    26  N   -0.374356
    27  C    0.100629
    28  C   -0.101485
    29  C   -0.092191
    30  C    0.045950
    31  C    0.036990
    32  C    0.016569
    33  C   -0.057614
    34  N   -0.337676
    35  C    0.122843
    36  C   -0.224931
    37  C   -0.043318
    38  C    0.117508
    39  C    0.106825
    40  C    0.128497
    41  O   -0.189799
    42  C   -0.083448
    43  C    0.253871
    44  O   -0.232267
    45  O   -0.361538
    46  C    0.146058
    47  C    0.270861
    48  C   -0.167562
    49  C   -0.181144
    50  C    0.019827
    51  C    0.015641
    52  C    0.004030
    53  C    0.007040
    54  C   -0.230805
    55  C    0.014987
    56  C    0.019938
    57  C    0.000570
    58  C    0.034302
    59  C   -0.218519
    60  C   -0.001350
    61  C    0.022817
    62  C   -0.039649
    63  C    0.017358
    64  C   -0.221055
    65  C    0.014480
    66  C   -0.008614
    67  H   -0.015247
    68  H    0.033160
    69  H   -0.009775
    70  H    0.042166
    71  H    0.034714
    72  H    0.044731
    73  H    0.028087
    74  H    0.048299
    75  H    0.006632
    76  H    0.044483
    77  H    0.064841
    78  H    0.067185
    79  H    0.028044
    80  H    0.053536
    81  H    0.052932
    82  H    0.055301
    83  H    0.056379
    84  H    0.055986
    85  H    0.032200
    86  H    0.032248
    87  H    0.059325
    88  H    0.033880
    89  H    0.017803
    90  H    0.033947
    91  H    0.034897
    92  H    0.045704
    93  H    0.027612
    94  H    0.038780
    95  H    0.035608
    96  H    0.077794
    97  H    0.037753
    98  H    0.082997
    99  H    0.029448
   100  H    0.039610
   101  H    0.059208
   102  H    0.061978
   103  H    0.058931
   104  H    0.037583
   105  H    0.031694
   106  H    0.048581
   107  H    0.044010
   108  H    0.032323
   109  H    0.015842
   110  H    0.016085
   111  H    0.032355
   112  H    0.016503
   113  H    0.016963
   114  H    0.007495
   115  H    0.028286
   116  H    0.034315
   117  H    0.019215
   118  H    0.005689
   119  H    0.005582
   120  H    0.013941
   121  H    0.020396
   122  H    0.011286
   123  H    0.001657
   124  H    0.014884
   125  H    0.027066
   126  H    0.029169
   127  H    0.024591
   128  H    0.012649
   129  H    0.014595
   130  H    0.015682
   131  H    0.016752
   132  H    0.015206
   133  H    0.019350
   134  H    0.024550
   135  H    0.025792
   136  H    0.027738
   137  H    0.024372
   138  H    0.027392
   139  H    0.024407
   140  H    0.028392
 Sum of Mulliken charges =  -0.00000

 Dipole moment (field-independent basis, Debye):
    X=             -2.9338    Y=              5.2086    Z=              1.6722  Tot=              6.2075
 Quadrupole moment (field-independent basis, Debye-Ang):
   XX=           -373.8871   YY=           -418.6687   ZZ=           -402.1918
   XY=             15.5389   XZ=             12.8571   YZ=             -2.3347

 Normal termination of Gaussian 16 at Sat Apr 30 04:13:13 2022.
