 Gaussian 16, Revision A.03,
 Gaussian 16:  ES64L-G16RevA.03 25-Dec-2016

 --------------------
 #p ZINDO=(nstates=5)
 --------------------

 ----------------------------
 step_551_chromophore_4 ZINDO
 ----------------------------
 Symbolic Z-matrix:
 Charge =  0 Multiplicity = 1

                         Standard orientation:
 ---------------------------------------------------------------------
 Center     Atomic      Atomic             Coordinates (Angstroms)
 Number     Number       Type             X           Y           Z
 ---------------------------------------------------------------------
      1         12           0        6.090814    0.637239    0.138537
      2          6           0        3.793594   -2.083573    0.048557
      3          6           0        3.566996    2.652682   -0.986770
      4          6           0        8.389007    3.039176   -0.226606
      5          6           0        8.662029   -1.818428    0.306008
      6          7           0        3.928272    0.249781   -0.353540
      7          6           0        3.137027   -0.841382   -0.166212
      8          6           0        1.716689   -0.512471   -0.419512
      9          6           0        1.697339    0.944996   -0.904162
     10          6           0        3.127390    1.335024   -0.715157
     11          6           0        1.069996    1.123217   -2.282240
     12          6           0        0.777592   -0.794243    0.746497
     13          6           0       -0.705390   -0.721475    0.372482
     14          6           0       -1.561165   -2.045156    0.449260
     15          8           0       -1.225134   -3.163949    0.600639
     16          8           0       -2.906472   -1.789224    0.142610
     17          7           0        5.924397    2.565589   -0.361476
     18          6           0        4.803381    3.253067   -0.751445
     19          6           0        5.160402    4.655443   -0.884560
     20          6           0        6.509148    4.820787   -0.476380
     21          6           0        7.030940    3.400473   -0.417976
     22          6           0        4.166268    5.755869   -1.184436
     23          6           0        7.358292    6.133763   -0.265534
     24          8           0        8.549361    6.079247   -0.091761
     25          6           0        6.773799    7.528510   -0.230307
     26          7           0        8.231560    0.568058    0.100881
     27          6           0        8.903472    1.753894    0.059574
     28          6           0       10.411873    1.442653    0.255195
     29          6           0       10.477400   -0.081678    0.811552
     30          6           0        9.063384   -0.479503    0.422079
     31          6           0       11.340300    1.824699   -0.909247
     32          6           0       10.779250   -0.225421    2.297568
     33          6           0       12.266762   -0.563800    2.543241
     34          7           0        6.286288   -1.557701    0.153989
     35          6           0        7.381687   -2.344698    0.229783
     36          6           0        6.952943   -3.726597    0.494033
     37          6           0        5.594291   -3.689039    0.280344
     38          6           0        5.254040   -2.345874    0.078917
     39          6           0        7.737121   -4.953612    0.777022
     40          6           0        4.383061   -4.510696    0.301025
     41          8           0        4.220833   -5.691725    0.534437
     42          6           0        3.192236   -3.501271    0.222875
     43          6           0        2.396016   -3.934779   -0.972475
     44          8           0        2.663039   -3.710507   -2.124924
     45          8           0        1.385254   -4.827193   -0.616194
     46          6           0        0.368791   -5.168160   -1.564102
     47          6           0       -3.925421   -2.909787    0.018811
     48          6           0       -5.345322   -2.413526    0.232087
     49          6           0       -6.483442   -3.105537    0.286525
     50          6           0       -6.724407   -4.644111    0.322800
     51          6           0       -7.823253   -2.346875    0.504720
     52          6           0       -8.390610   -1.688722   -0.809709
     53          6           0       -8.235792   -0.134764   -0.919189
     54          6           0       -9.453525    0.747303   -0.457682
     55          6           0      -10.521273    0.879443   -1.570276
     56          6           0       -9.102103    2.189696    0.070863
     57          6           0       -9.577573    2.479368    1.499160
     58          6           0      -10.777985    3.360020    1.609436
     59          6           0      -12.110549    2.613353    2.010517
     60          6           0      -12.795370    3.377634    3.162961
     61          6           0      -13.067323    2.524579    0.773907
     62          6           0      -13.681547    1.143272    0.739936
     63          6           0      -14.297005    0.741158   -0.578250
     64          6           0      -15.825467    0.235861   -0.474016
     65          6           0      -16.164901   -0.756455   -1.598529
     66          6           0      -16.774646    1.425203   -0.552596
     67          1           0        2.795691    3.331580   -1.355996
     68          1           0        9.087293    3.861093   -0.398346
     69          1           0        9.472699   -2.546622    0.375931
     70          1           0        1.248274   -1.160566   -1.160572
     71          1           0        1.092035    1.550525   -0.229134
     72          1           0        1.832554    1.520777   -2.950968
     73          1           0        0.264841    1.858846   -2.300237
     74          1           0        0.601726    0.224558   -2.683489
     75          1           0        0.897370    0.020195    1.461098
     76          1           0        0.979470   -1.601921    1.449407
     77          1           0       -0.823918   -0.444118   -0.674976
     78          1           0       -1.246738   -0.051875    1.039055
     79          1           0        3.154674    5.418874   -1.413193
     80          1           0        4.370202    6.423050   -2.021626
     81          1           0        4.093424    6.343417   -0.270143
     82          1           0        6.146138    7.496329    0.660248
     83          1           0        6.259234    7.619573   -1.187189
     84          1           0        7.456716    8.357921   -0.047465
     85          1           0       10.676954    2.054417    1.117322
     86          1           0       11.147570   -0.707069    0.221894
     87          1           0       11.945165    2.683380   -0.617079
     88          1           0       10.886951    1.903609   -1.898238
     89          1           0       11.915727    0.957701   -1.232858
     90          1           0       10.185760   -1.064684    2.661717
     91          1           0       10.586186    0.695041    2.849306
     92          1           0       12.649105   -0.103725    3.453476
     93          1           0       12.789339   -0.173851    1.669455
     94          1           0       12.448268   -1.638004    2.494291
     95          1           0        8.576395   -4.869474    0.086090
     96          1           0        7.127006   -5.849525    0.658673
     97          1           0        8.223463   -4.761870    1.732674
     98          1           0        2.607429   -3.549824    1.141437
     99          1           0        0.588444   -6.172888   -1.924185
    100          1           0        0.405902   -4.620413   -2.505806
    101          1           0       -0.619586   -5.225559   -1.108726
    102          1           0       -3.793132   -3.664154    0.794450
    103          1           0       -3.861126   -3.355647   -0.973848
    104          1           0       -5.387347   -1.328249    0.321737
    105          1           0       -5.830933   -5.227066    0.546510
    106          1           0       -7.125370   -4.969935   -0.637494
    107          1           0       -7.440492   -4.942850    1.087761
    108          1           0       -7.680746   -1.594376    1.280834
    109          1           0       -8.558115   -3.021113    0.944280
    110          1           0       -9.470590   -1.833328   -0.790848
    111          1           0       -8.009227   -2.106430   -1.740339
    112          1           0       -8.071755    0.173859   -1.951624
    113          1           0       -7.439637    0.226884   -0.268950
    114          1           0       -9.948402    0.260289    0.383286
    115          1           0      -10.977396   -0.099398   -1.420238
    116          1           0      -10.015371    1.020425   -2.525198
    117          1           0      -11.240863    1.665306   -1.340755
    118          1           0       -9.495254    2.865572   -0.687958
    119          1           0       -8.023136    2.319191   -0.007122
    120          1           0       -8.801655    3.131986    1.898973
    121          1           0       -9.600696    1.627543    2.179272
    122          1           0      -10.915909    3.897587    0.671777
    123          1           0      -10.698128    4.071293    2.431174
    124          1           0      -11.841141    1.701996    2.543501
    125          1           0      -12.361419    3.126283    4.131712
    126          1           0      -13.850305    3.113059    3.092441
    127          1           0      -12.586126    4.440185    3.043066
    128          1           0      -12.560039    2.762186   -0.161353
    129          1           0      -13.856892    3.261526    0.917490
    130          1           0      -14.458672    1.038875    1.498845
    131          1           0      -12.851913    0.448714    0.870875
    132          1           0      -13.694306   -0.133325   -0.823610
    133          1           0      -14.080986    1.552242   -1.274730
    134          1           0      -16.011621   -0.131365    0.534975
    135          1           0      -16.767984   -0.268049   -2.363483
    136          1           0      -16.778380   -1.585764   -1.247356
    137          1           0      -15.242350   -1.168436   -2.007980
    138          1           0      -16.908751    1.672425    0.500280
    139          1           0      -17.758597    1.238177   -0.982340
    140          1           0      -16.396116    2.197766   -1.221940
 ---------------------------------------------------------------------

 SCF Done:  E(RZINDO/S) =  -474.324361764     A.U. after   20 cycles

 Excitation energies and oscillator strengths:

 Excited State   1:      Singlet-A      1.2299 eV 1008.12 nm  f=0.5708  <S**2>=0.000
     175 ->178        -0.19784
     176 ->177         0.66125
 This state for optimization and/or second-order correction.
 Total Energy, E(CIS/TDA) =  -474.279165336
 Copying the excited state density for this state as the 1-particle RhoCI density.

 Excited State   2:      Singlet-A      1.8868 eV  657.11 nm  f=0.0099  <S**2>=0.000
     175 ->177         0.51429
     176 ->178         0.46520

 Excited State   3:      Singlet-A      2.9339 eV  422.59 nm  f=0.5073  <S**2>=0.000
     175 ->177        -0.28293
     176 ->178         0.33372
     176 ->179         0.38479
     176 ->180         0.12929
     176 ->181         0.21416

 Excited State   4:      Singlet-A      2.9755 eV  416.68 nm  f=0.1527  <S**2>=0.000
     168 ->177         0.24351
     168 ->178        -0.11600
     168 ->179        -0.30468
     168 ->180        -0.32926
     168 ->184        -0.11961
     168 ->186        -0.23096
     168 ->187        -0.14013
     171 ->177         0.10084
     175 ->177         0.13598
     176 ->178        -0.15676

 Excited State   5:      Singlet-A      2.9937 eV  414.16 nm  f=0.2567  <S**2>=0.000
     169 ->177        -0.12758
     169 ->179        -0.19518
     169 ->180         0.15117
     170 ->177        -0.15392
     170 ->179        -0.20768
     170 ->180         0.16469
     173 ->177        -0.11972
     175 ->177         0.21774
     176 ->178        -0.24405
     176 ->179         0.29799
     176 ->180        -0.13984

 The electronic state is 1-A.
 Alpha  occ. eigenvalues --   -1.85114  -1.80801  -1.79229  -1.72057  -1.71295
 Alpha  occ. eigenvalues --   -1.69530  -1.66587  -1.60217  -1.59693  -1.57902
 Alpha  occ. eigenvalues --   -1.55077  -1.51093  -1.49059  -1.48044  -1.47190
 Alpha  occ. eigenvalues --   -1.44515  -1.42180  -1.40407  -1.39191  -1.38453
 Alpha  occ. eigenvalues --   -1.35531  -1.34862  -1.33751  -1.31713  -1.28400
 Alpha  occ. eigenvalues --   -1.27502  -1.24378  -1.22215  -1.21488  -1.17838
 Alpha  occ. eigenvalues --   -1.17218  -1.15106  -1.14582  -1.13020  -1.12882
 Alpha  occ. eigenvalues --   -1.12335  -1.11154  -1.09994  -1.04868  -1.03664
 Alpha  occ. eigenvalues --   -1.02783  -1.00869  -0.98892  -0.98000  -0.96430
 Alpha  occ. eigenvalues --   -0.95318  -0.94929  -0.93945  -0.93115  -0.90913
 Alpha  occ. eigenvalues --   -0.90287  -0.89747  -0.89239  -0.88477  -0.86165
 Alpha  occ. eigenvalues --   -0.86054  -0.83990  -0.83442  -0.82677  -0.80385
 Alpha  occ. eigenvalues --   -0.79416  -0.78759  -0.76739  -0.76505  -0.75696
 Alpha  occ. eigenvalues --   -0.75494  -0.74478  -0.74292  -0.73781  -0.73298
 Alpha  occ. eigenvalues --   -0.72961  -0.72117  -0.71540  -0.70983  -0.70234
 Alpha  occ. eigenvalues --   -0.69696  -0.69276  -0.68034  -0.68008  -0.67517
 Alpha  occ. eigenvalues --   -0.67333  -0.66993  -0.66749  -0.66219  -0.65636
 Alpha  occ. eigenvalues --   -0.65376  -0.65046  -0.64501  -0.64162  -0.63518
 Alpha  occ. eigenvalues --   -0.62511  -0.62487  -0.62258  -0.62027  -0.61526
 Alpha  occ. eigenvalues --   -0.61187  -0.61096  -0.60921  -0.60529  -0.60320
 Alpha  occ. eigenvalues --   -0.60168  -0.59326  -0.59165  -0.58706  -0.58257
 Alpha  occ. eigenvalues --   -0.58126  -0.57926  -0.57645  -0.57149  -0.56991
 Alpha  occ. eigenvalues --   -0.56489  -0.55687  -0.55268  -0.55040  -0.54760
 Alpha  occ. eigenvalues --   -0.54366  -0.54166  -0.53029  -0.53006  -0.52778
 Alpha  occ. eigenvalues --   -0.52499  -0.52127  -0.51964  -0.51606  -0.51438
 Alpha  occ. eigenvalues --   -0.51007  -0.50832  -0.50546  -0.50314  -0.49896
 Alpha  occ. eigenvalues --   -0.49481  -0.49240  -0.49151  -0.48827  -0.48626
 Alpha  occ. eigenvalues --   -0.48145  -0.47697  -0.47601  -0.47500  -0.47459
 Alpha  occ. eigenvalues --   -0.47296  -0.46960  -0.46922  -0.46277  -0.46101
 Alpha  occ. eigenvalues --   -0.46000  -0.45939  -0.45594  -0.45322  -0.44925
 Alpha  occ. eigenvalues --   -0.44795  -0.44532  -0.44421  -0.44308  -0.43871
 Alpha  occ. eigenvalues --   -0.43470  -0.42983  -0.42699  -0.42506  -0.42297
 Alpha  occ. eigenvalues --   -0.42038  -0.40466  -0.40098  -0.38745  -0.38336
 Alpha  occ. eigenvalues --   -0.37664  -0.36954  -0.35299  -0.34752  -0.34151
 Alpha  occ. eigenvalues --   -0.32981  -0.32641  -0.32187  -0.31891  -0.26282
 Alpha  occ. eigenvalues --   -0.21094
 Alpha virt. eigenvalues --   -0.07872  -0.01973  -0.00058   0.01427   0.01679
 Alpha virt. eigenvalues --    0.02878   0.02917   0.03940   0.04993   0.05152
 Alpha virt. eigenvalues --    0.06422   0.06584   0.07434   0.07978   0.08445

 Mulliken charges:
               1
     1  Mg   0.430751
     2  C   -0.069337
     3  C   -0.084001
     4  C   -0.065474
     5  C   -0.056051
     6  N   -0.294477
     7  C    0.125225
     8  C    0.023155
     9  C    0.013517
    10  C    0.131791
    11  C   -0.048387
    12  C   -0.024541
    13  C    0.008447
    14  C    0.455880
    15  O   -0.489321
    16  O   -0.310895
    17  N   -0.320073
    18  C    0.121008
    19  C    0.008439
    20  C   -0.050622
    21  C    0.125150
    22  C   -0.045869
    23  C    0.326931
    24  O   -0.513521
    25  C   -0.024492
    26  N   -0.266023
    27  C    0.132533
    28  C    0.001612
    29  C    0.002879
    30  C    0.107470
    31  C   -0.054881
    32  C   -0.021655
    33  C   -0.062559
    34  N   -0.304207
    35  C    0.086225
    36  C    0.033897
    37  C   -0.058495
    38  C    0.120540
    39  C   -0.039877
    40  C    0.339986
    41  O   -0.509781
    42  C    0.058307
    43  C    0.488260
    44  O   -0.521574
    45  O   -0.271740
    46  C    0.076369
    47  C    0.108506
    48  C   -0.070680
    49  C   -0.017674
    50  C   -0.042763
    51  C   -0.024077
    52  C   -0.030256
    53  C   -0.037303
    54  C   -0.027046
    55  C   -0.067399
    56  C   -0.035620
    57  C   -0.027401
    58  C   -0.037655
    59  C   -0.030657
    60  C   -0.063220
    61  C   -0.029452
    62  C   -0.037547
    63  C   -0.046590
    64  C   -0.014309
    65  C   -0.055948
    66  C   -0.060767
    67  H    0.020803
    68  H    0.053171
    69  H    0.018222
    70  H    0.036999
    71  H    0.024598
    72  H    0.024958
    73  H    0.012446
    74  H    0.027781
    75  H    0.004136
    76  H    0.039857
    77  H    0.047037
    78  H    0.041333
    79  H    0.018234
    80  H    0.030345
    81  H    0.025957
    82  H    0.036283
    83  H    0.038738
    84  H    0.043686
    85  H    0.023250
    86  H    0.033446
    87  H    0.033131
    88  H    0.027919
    89  H    0.016407
    90  H    0.022821
    91  H    0.028491
    92  H    0.024745
    93  H    0.014509
    94  H    0.021103
    95  H    0.026321
    96  H    0.052258
    97  H    0.033827
    98  H    0.059231
    99  H    0.026006
   100  H    0.044386
   101  H    0.044657
   102  H    0.055740
   103  H    0.051912
   104  H    0.032653
   105  H    0.019531
   106  H    0.029294
   107  H    0.026128
   108  H    0.022831
   109  H    0.017686
   110  H    0.015629
   111  H    0.026566
   112  H    0.020481
   113  H    0.018649
   114  H    0.013630
   115  H    0.017982
   116  H    0.027464
   117  H    0.024602
   118  H    0.020323
   119  H    0.010544
   120  H    0.001982
   121  H    0.029337
   122  H    0.022220
   123  H    0.015908
   124  H    0.028123
   125  H    0.014253
   126  H    0.019886
   127  H    0.018592
   128  H    0.025116
   129  H    0.017977
   130  H    0.023224
   131  H    0.016890
   132  H    0.011428
   133  H    0.029321
   134  H    0.027480
   135  H    0.021496
   136  H    0.015370
   137  H    0.018067
   138  H    0.017632
   139  H    0.013301
   140  H    0.020998
 Sum of Mulliken charges =  -0.00000

 Dipole moment (field-independent basis, Debye):
    X=             -4.2591    Y=              7.7838    Z=              2.0070  Tot=              9.0970
 N-N= 4.219903125382D+03 E-N= 0.000000000000D+00  KE=-9.114818720058D+03
 Leave Link  601 at Sat Apr 30 04:24:47 2022, MaxMem=  6710886400 cpu:               0.8 elap:               0.1
 (Enter /sw/apps/gaussian-16.0/g16/l9999.exe)
 1\1\GINC-BP1-COMPUTE156\SP\RZINDO CIS\STO-3G\C55H74Mg1N4O6\OF15641\30-
 Apr-2022\0\\#p ZINDO=(nstates=5)\\step_551_chromophore_4 ZINDO\\0,1\Mg
 ,0,8.811,2.84,27.254\C,0,10.133,1.201,30.127\C,0,7.014,4.841,29.367\C,
 0,7.237,4.012,24.546\C,0,9.967,0.038,25.388\N,0,8.678,2.965,29.498\C,0
 ,9.398,2.364,30.484\C,0,9.099,2.971,31.8\C,0,7.99,4.004,31.55\C,0,7.89
 5,3.976,30.059\C,0,6.726,3.754,32.365\C,0,10.311,3.524,32.539\C,0,10.0
 29,3.881,34.001\C,0,10.764,3.055,35.127\O,0,11.403,2.068,35.056\O,0,10

 Normal termination of Gaussian 16 at Sat Apr 30 04:24:47 2022.
