 Gaussian 16, Revision A.03,
 Gaussian 16:  ES64L-G16RevA.03 25-Dec-2016

 ------------------------------
 #p blyp/Def2SVP td=(nstates=5)
 ------------------------------

 -------------------------------------------------
 step_501_chromophore_9 TDDFT with blyp functional
 -------------------------------------------------
 Symbolic Z-matrix:
 Charge =  0 Multiplicity = 1

                         Standard orientation:
 ---------------------------------------------------------------------
 Center     Atomic      Atomic             Coordinates (Angstroms)
 Number     Number       Type             X           Y           Z
 ---------------------------------------------------------------------
      1         12           0       -4.811587    0.757920    0.014887
      2          6           0       -3.795660   -2.559812   -0.055247
      3          6           0       -1.594119    1.762096   -0.101975
      4          6           0       -5.906370    3.911152    0.266797
      5          6           0       -8.109573   -0.384956    0.296130
      6          7           0       -2.934363   -0.359392   -0.099688
      7          6           0       -2.742452   -1.652190   -0.209655
      8          6           0       -1.170425   -1.893873   -0.363897
      9          6           0       -0.692016   -0.669998    0.388242
     10          6           0       -1.798698    0.366957    0.015009
     11          6           0       -0.536732   -0.991360    1.890349
     12          6           0       -0.787341   -2.137615   -1.886755
     13          6           0        0.559096   -2.835635   -2.101802
     14          6           0        1.491088   -3.009885   -0.915121
     15          8           0        1.486137   -3.914868   -0.127679
     16          8           0        2.388880   -1.993038   -0.855359
     17          7           0       -3.907300    2.563902   -0.104472
     18          6           0       -2.534974    2.764707   -0.233052
     19          6           0       -2.317089    4.216628   -0.508023
     20          6           0       -3.599222    4.892575   -0.335540
     21          6           0       -4.489636    3.759234    0.030698
     22          6           0       -0.958391    4.794163   -0.826808
     23          6           0       -4.020697    6.422438   -0.525665
     24          8           0       -5.180631    6.833267   -0.413163
     25          6           0       -2.910177    7.388709   -0.881579
     26          7           0       -6.664502    1.614927    0.352670
     27          6           0       -6.872770    2.926385    0.432950
     28          6           0       -8.349718    3.283687    0.785470
     29          6           0       -9.020462    1.924976    0.537390
     30          6           0       -7.885515    0.973925    0.321325
     31          6           0       -8.556278    3.852319    2.217141
     32          6           0      -10.213789    1.849148   -0.515725
     33          6           0       -9.913016    1.262826   -1.855875
     34          7           0       -5.788923   -1.065466    0.313520
     35          6           0       -7.104183   -1.386561    0.343541
     36          6           0       -7.336559   -2.780643    0.475729
     37          6           0       -6.021046   -3.319066    0.315647
     38          6           0       -5.188260   -2.227506    0.221380
     39          6           0       -8.564356   -3.621702    0.711003
     40          6           0       -5.209678   -4.496303    0.225095
     41          8           0       -5.483026   -5.675963    0.279575
     42          6           0       -3.755312   -4.089779   -0.174187
     43          6           0       -2.799207   -4.734757    0.730792
     44          8           0       -2.790297   -4.522380    1.933786
     45          8           0       -2.021640   -5.749141    0.115817
     46          6           0       -1.130149   -6.508490    1.006574
     47          6           0        3.375823   -1.965652    0.277682
     48          6           0        4.781779   -1.686970   -0.296648
     49          6           0        5.698812   -2.512314   -0.725102
     50          6           0        5.408631   -3.961433   -0.906739
     51          6           0        7.040998   -1.934682   -1.266717
     52          6           0        6.840897   -1.047477   -2.444900
     53          6           0        7.926257   -1.140452   -3.558531
     54          6           0        8.432747    0.284630   -3.877840
     55          6           0        8.730135    0.552838   -5.357236
     56          6           0        9.759934    0.631572   -3.084156
     57          6           0        9.619139    1.892921   -2.250194
     58          6           0       10.745530    1.991935   -1.199523
     59          6           0       10.132141    2.376988    0.213746
     60          6           0        9.720780    3.916874    0.154340
     61          6           0       11.098621    1.962134    1.376222
     62          6           0       10.727197    0.740736    2.166057
     63          6           0        9.671485    0.941526    3.295749
     64          6           0       10.226049    0.500029    4.709590
     65          6           0        9.194243    0.572897    5.830189
     66          6           0       11.496378    1.242926    5.137665
     67          1           0       -0.540737    2.044607   -0.073708
     68          1           0       -6.225557    4.947538    0.389068
     69          1           0       -9.144851   -0.702543    0.434347
     70          1           0       -0.892354   -2.828009    0.122262
     71          1           0        0.232381   -0.239164    0.004384
     72          1           0        0.542762   -0.920577    2.027897
     73          1           0       -0.890820   -1.989513    2.151398
     74          1           0       -0.993138   -0.156673    2.421954
     75          1           0       -0.742465   -1.186665   -2.418337
     76          1           0       -1.549778   -2.821899   -2.259704
     77          1           0        1.075988   -2.277524   -2.881860
     78          1           0        0.339632   -3.816654   -2.522443
     79          1           0       -0.346435    4.086965   -1.387866
     80          1           0       -0.360845    5.150843    0.011504
     81          1           0       -1.095178    5.636735   -1.504479
     82          1           0       -2.155512    7.197636   -0.119008
     83          1           0       -3.178297    8.441189   -0.794068
     84          1           0       -2.584505    7.215344   -1.907374
     85          1           0       -8.747876    4.039623    0.108791
     86          1           0       -9.365066    1.592393    1.515859
     87          1           0       -9.452098    3.355748    2.590793
     88          1           0       -8.653978    4.932807    2.310418
     89          1           0       -7.663363    3.620415    2.797741
     90          1           0      -10.670524    2.836273   -0.587896
     91          1           0      -10.971742    1.162602   -0.139236
     92          1           0      -10.451334    0.317228   -1.924570
     93          1           0       -8.895558    0.899330   -2.005109
     94          1           0      -10.244171    1.867984   -2.699878
     95          1           0       -9.455033   -3.017415    0.886723
     96          1           0       -8.349764   -4.348718    1.494802
     97          1           0       -8.926274   -4.202214   -0.137870
     98          1           0       -3.517538   -4.387676   -1.195031
     99          1           0       -0.417531   -7.159116    0.500259
    100          1           0       -1.825939   -7.095711    1.606481
    101          1           0       -0.668097   -5.763541    1.653318
    102          1           0        3.412038   -2.801735    0.975971
    103          1           0        3.103035   -1.093398    0.871662
    104          1           0        4.962432   -0.612546   -0.275590
    105          1           0        5.595284   -4.308149   -1.923533
    106          1           0        4.457361   -4.334187   -0.527183
    107          1           0        6.212308   -4.409911   -0.324607
    108          1           0        7.752776   -2.743472   -1.433807
    109          1           0        7.605249   -1.396825   -0.504762
    110          1           0        6.892497   -0.031706   -2.054574
    111          1           0        5.844270   -1.259846   -2.833546
    112          1           0        7.375129   -1.421287   -4.455960
    113          1           0        8.746158   -1.837774   -3.383839
    114          1           0        7.665819    1.000032   -3.582192
    115          1           0        9.389071   -0.300504   -5.512806
    116          1           0        9.286722    1.477597   -5.513612
    117          1           0        7.808626    0.478253   -5.934674
    118          1           0       10.617410    0.723476   -3.750821
    119          1           0       10.078246   -0.246547   -2.522203
    120          1           0        8.624705    1.925429   -1.804484
    121          1           0        9.786352    2.733375   -2.923614
    122          1           0       11.441246    2.750876   -1.557830
    123          1           0       11.270087    1.036055   -1.176137
    124          1           0        9.192520    1.839711    0.346781
    125          1           0        8.703670    4.057421   -0.210653
    126          1           0       10.354322    4.554731   -0.461671
    127          1           0        9.789252    4.381076    1.137964
    128          1           0       11.201142    2.760609    2.110793
    129          1           0       12.123750    1.913823    1.011931
    130          1           0       11.617193    0.223577    2.524643
    131          1           0       10.099946    0.073137    1.574634
    132          1           0        8.774329    0.357775    3.094909
    133          1           0        9.249807    1.939417    3.411421
    134          1           0       10.413609   -0.571024    4.630975
    135          1           0        8.433422    1.309649    5.573522
    136          1           0        9.636988    0.774963    6.806373
    137          1           0        8.682510   -0.374566    5.996089
    138          1           0       12.273274    0.564649    5.492463
    139          1           0       11.243873    1.929028    5.945301
    140          1           0       11.915099    1.846375    4.332366
 ---------------------------------------------------------------------

 SCF Done:  E(RB-LYP) =  -3007.39016956     A.U. after   20 cycles

 Excitation energies and oscillator strengths:

 Excited State   1:      Singlet-A      1.8140 eV  683.50 nm  f=0.1601  <S**2>=0.000
     244 -> 247        0.50326
     245 -> 249        0.10706
     246 -> 247       -0.48569
     246 <- 247        0.10420
 This state for optimization and/or second-order correction.
 Total Energy, E(TD-HF/TD-DFT) =  -3007.32350804
 Copying the excited state density for this state as the 1-particle RhoCI density.

 Excited State   2:      Singlet-A      1.8244 eV  679.57 nm  f=0.1577  <S**2>=0.000
     244 -> 247        0.49192
     245 -> 249       -0.10620
     246 -> 247        0.49104
     246 <- 247       -0.10670

 Excited State   3:      Singlet-A      2.0053 eV  618.28 nm  f=0.1071  <S**2>=0.000
     245 -> 247        0.65784
     246 -> 248        0.13810
     246 -> 249        0.18120

 Excited State   4:      Singlet-A      2.2194 eV  558.64 nm  f=0.0002  <S**2>=0.000
     243 -> 247        0.70604

 Excited State   5:      Singlet-A      2.5270 eV  490.64 nm  f=0.0008  <S**2>=0.000
     240 -> 247       -0.35081
     241 -> 247        0.43036
     242 -> 247       -0.42021

 The electronic state is 1-A.
 Alpha  occ. eigenvalues --  -46.26251 -18.82168 -18.80385 -18.76861 -18.76838
 Alpha  occ. eigenvalues --  -18.75826 -18.74851 -14.02960 -14.02764 -14.01372
 Alpha  occ. eigenvalues --  -14.00415 -10.04051 -10.02837 -10.01512  -9.98908
 Alpha  occ. eigenvalues --   -9.98314  -9.96489  -9.96187  -9.96183  -9.96157
 Alpha  occ. eigenvalues --   -9.96094  -9.95914  -9.95751  -9.95034  -9.94966
 Alpha  occ. eigenvalues --   -9.94111  -9.93921  -9.93761  -9.93688  -9.93641
 Alpha  occ. eigenvalues --   -9.93441  -9.93375  -9.93348  -9.93311  -9.93295
 Alpha  occ. eigenvalues --   -9.93265  -9.93169  -9.93169  -9.92994  -9.92949
 Alpha  occ. eigenvalues --   -9.92781  -9.92704  -9.92314  -9.92301  -9.92259
 Alpha  occ. eigenvalues --   -9.92112  -9.92056  -9.91855  -9.91786  -9.91727
 Alpha  occ. eigenvalues --   -9.91705  -9.91686  -9.91520  -9.91416  -9.91399
 Alpha  occ. eigenvalues --   -9.91356  -9.91299  -9.91291  -9.91173  -9.91101
 Alpha  occ. eigenvalues --   -9.91083  -9.90983  -9.90925  -9.90717  -9.90579
 Alpha  occ. eigenvalues --   -9.90418  -2.91100  -1.71538  -1.70937  -1.70848
 Alpha  occ. eigenvalues --   -0.98316  -0.95369  -0.91710  -0.91231  -0.90271
 Alpha  occ. eigenvalues --   -0.88280  -0.87914  -0.87026  -0.86439  -0.85349
 Alpha  occ. eigenvalues --   -0.74994  -0.74398  -0.73086  -0.72630  -0.72512
 Alpha  occ. eigenvalues --   -0.72273  -0.71519  -0.70804  -0.70685  -0.70267
 Alpha  occ. eigenvalues --   -0.69795  -0.69388  -0.68564  -0.67594  -0.67213
 Alpha  occ. eigenvalues --   -0.66675  -0.66085  -0.65583  -0.64976  -0.64467
 Alpha  occ. eigenvalues --   -0.64073  -0.62580  -0.62107  -0.61650  -0.60880
 Alpha  occ. eigenvalues --   -0.60513  -0.60103  -0.59756  -0.59684  -0.58782
 Alpha  occ. eigenvalues --   -0.58577  -0.57779  -0.56266  -0.55563  -0.54701
 Alpha  occ. eigenvalues --   -0.53911  -0.53859  -0.52632  -0.52323  -0.51216
 Alpha  occ. eigenvalues --   -0.51049  -0.50877  -0.50393  -0.50218  -0.50096
 Alpha  occ. eigenvalues --   -0.49546  -0.49324  -0.48642  -0.47169  -0.46693
 Alpha  occ. eigenvalues --   -0.46275  -0.46069  -0.45703  -0.44936  -0.44382
 Alpha  occ. eigenvalues --   -0.43812  -0.43689  -0.42985  -0.42675  -0.42360
 Alpha  occ. eigenvalues --   -0.41973  -0.41696  -0.41525  -0.41378  -0.41163
 Alpha  occ. eigenvalues --   -0.40950  -0.40431  -0.40272  -0.40164  -0.40105
 Alpha  occ. eigenvalues --   -0.39887  -0.39741  -0.39642  -0.39525  -0.39256
 Alpha  occ. eigenvalues --   -0.39103  -0.38825  -0.38677  -0.38534  -0.38310
 Alpha  occ. eigenvalues --   -0.37845  -0.37803  -0.37627  -0.37521  -0.37260
 Alpha  occ. eigenvalues --   -0.37166  -0.37124  -0.36860  -0.36736  -0.36594
 Alpha  occ. eigenvalues --   -0.36415  -0.36181  -0.36007  -0.35828  -0.35591
 Alpha  occ. eigenvalues --   -0.35548  -0.35303  -0.35194  -0.34898  -0.34836
 Alpha  occ. eigenvalues --   -0.34693  -0.34490  -0.34244  -0.34061  -0.33859
 Alpha  occ. eigenvalues --   -0.33670  -0.33617  -0.33481  -0.33337  -0.33081
 Alpha  occ. eigenvalues --   -0.32880  -0.32716  -0.32608  -0.32365  -0.32300
 Alpha  occ. eigenvalues --   -0.32216  -0.31935  -0.31798  -0.31551  -0.31459
 Alpha  occ. eigenvalues --   -0.31338  -0.31209  -0.30983  -0.30917  -0.30523
 Alpha  occ. eigenvalues --   -0.30200  -0.30132  -0.30058  -0.29901  -0.29699
 Alpha  occ. eigenvalues --   -0.29494  -0.29316  -0.29022  -0.28963  -0.28740
 Alpha  occ. eigenvalues --   -0.28638  -0.28295  -0.28222  -0.28110  -0.27985
 Alpha  occ. eigenvalues --   -0.27589  -0.27236  -0.27013  -0.26909  -0.26717
 Alpha  occ. eigenvalues --   -0.26610  -0.26265  -0.26046  -0.25920  -0.25315
 Alpha  occ. eigenvalues --   -0.25224  -0.25201  -0.24022  -0.23550  -0.23464
 Alpha  occ. eigenvalues --   -0.23366  -0.22456  -0.21745  -0.21046  -0.20990
 Alpha  occ. eigenvalues --   -0.20804  -0.20490  -0.19656  -0.18190  -0.17112
 Alpha  occ. eigenvalues --   -0.15907
 Alpha virt. eigenvalues --   -0.11596  -0.06555  -0.06277  -0.04507  -0.02802
 Alpha virt. eigenvalues --   -0.02402  -0.02188  -0.01270  -0.01175  -0.00053
 Alpha virt. eigenvalues --    0.00790   0.01002   0.01399   0.02095   0.02592

 Mulliken charges:
               1
     1  Mg   0.704724
     2  C   -0.000593
     3  C   -0.064877
     4  C   -0.053193
     5  C   -0.114425
     6  N   -0.176667
     7  C   -0.076035
     8  C   -0.060643
     9  C   -0.006003
    10  C    0.002289
    11  C    0.165362
    12  C    0.138090
    13  C    0.167278
    14  C    0.054139
    15  O   -0.179783
    16  O   -0.275891
    17  N   -0.303698
    18  C    0.174846
    19  C   -0.139130
    20  C   -0.014561
    21  C    0.074090
    22  C    0.154461
    23  C   -0.023527
    24  O   -0.159278
    25  C    0.116200
    26  N   -0.223185
    27  C    0.044018
    28  C    0.002463
    29  C    0.075304
    30  C    0.017152
    31  C    0.125428
    32  C    0.100548
    33  C    0.072334
    34  N   -0.192228
    35  C    0.117882
    36  C   -0.167376
    37  C    0.105473
    38  C    0.031932
    39  C    0.170814
    40  C   -0.080918
    41  O   -0.125658
    42  C    0.131572
    43  C    0.093031
    44  O   -0.191929
    45  O   -0.307038
    46  C    0.233898
    47  C    0.316970
    48  C   -0.123144
    49  C   -0.126548
    50  C    0.154596
    51  C    0.129359
    52  C    0.062346
    53  C    0.148785
    54  C   -0.109202
    55  C    0.106773
    56  C    0.070496
    57  C    0.075021
    58  C    0.103253
    59  C   -0.069545
    60  C    0.081111
    61  C    0.142521
    62  C    0.087072
    63  C    0.068523
    64  C   -0.101383
    65  C    0.106817
    66  C    0.110856
    67  H   -0.060940
    68  H   -0.049788
    69  H   -0.065878
    70  H   -0.007690
    71  H   -0.057107
    72  H   -0.014801
    73  H    0.030168
    74  H   -0.013136
    75  H   -0.019059
    76  H   -0.016538
    77  H   -0.015945
    78  H   -0.008997
    79  H   -0.011918
    80  H    0.012626
    81  H   -0.020026
    82  H    0.012204
    83  H   -0.007592
    84  H    0.033983
    85  H   -0.026234
    86  H   -0.033499
    87  H   -0.006755
    88  H   -0.001550
    89  H   -0.005683
    90  H   -0.018736
    91  H   -0.025445
    92  H   -0.028195
    93  H    0.002940
    94  H   -0.007612
    95  H   -0.029457
    96  H    0.020804
    97  H   -0.001306
    98  H   -0.007687
    99  H    0.021472
   100  H    0.007268
   101  H    0.016487
   102  H    0.013558
   103  H   -0.018960
   104  H   -0.045333
   105  H   -0.002443
   106  H    0.007868
   107  H   -0.013266
   108  H   -0.051069
   109  H   -0.023795
   110  H   -0.015212
   111  H   -0.011206
   112  H   -0.050692
   113  H   -0.019755
   114  H   -0.036612
   115  H   -0.018719
   116  H   -0.008989
   117  H   -0.013156
   118  H   -0.044965
   119  H   -0.047125
   120  H   -0.016811
   121  H   -0.032563
   122  H   -0.029105
   123  H   -0.031716
   124  H   -0.033668
   125  H   -0.012130
   126  H   -0.018475
   127  H   -0.018974
   128  H   -0.047066
   129  H   -0.045917
   130  H   -0.018730
   131  H   -0.032522
   132  H   -0.041462
   133  H   -0.034911
   134  H   -0.035715
   135  H   -0.020419
   136  H   -0.020145
   137  H   -0.026332
   138  H   -0.012584
   139  H   -0.020256
   140  H   -0.018371
 Sum of Mulliken charges =  -0.00000

 Dipole moment (field-independent basis, Debye):
    X=              4.0912    Y=              3.8594    Z=             -2.2892  Tot=              6.0723
 Quadrupole moment (field-independent basis, Debye-Ang):
   XX=           -373.7043   YY=           -435.5794   ZZ=           -406.7243
   XY=            -15.8560   XZ=              2.2481   YZ=              6.8873

 Normal termination of Gaussian 16 at Thu May  5 02:06:41 2022.
