 Gaussian 16, Revision A.03,
 Gaussian 16:  ES64L-G16RevA.03 25-Dec-2016

 -----------------------------------
 #p cam-b3lyp/Def2SVP td=(nstates=5)
 -----------------------------------

 ------------------------------------------------------
 step_501_chromophore_9 TDDFT with cam-b3lyp functional
 ------------------------------------------------------
 Symbolic Z-matrix:
 Charge =  0 Multiplicity = 1

                         Standard orientation:
 ---------------------------------------------------------------------
 Center     Atomic      Atomic             Coordinates (Angstroms)
 Number     Number       Type             X           Y           Z
 ---------------------------------------------------------------------
      1         12           0       -4.811587    0.757920    0.014887
      2          6           0       -3.795660   -2.559812   -0.055247
      3          6           0       -1.594119    1.762096   -0.101975
      4          6           0       -5.906370    3.911152    0.266797
      5          6           0       -8.109573   -0.384956    0.296130
      6          7           0       -2.934363   -0.359392   -0.099688
      7          6           0       -2.742452   -1.652190   -0.209655
      8          6           0       -1.170425   -1.893873   -0.363897
      9          6           0       -0.692016   -0.669998    0.388242
     10          6           0       -1.798698    0.366957    0.015009
     11          6           0       -0.536732   -0.991360    1.890349
     12          6           0       -0.787341   -2.137615   -1.886755
     13          6           0        0.559096   -2.835635   -2.101802
     14          6           0        1.491088   -3.009885   -0.915121
     15          8           0        1.486137   -3.914868   -0.127679
     16          8           0        2.388880   -1.993038   -0.855359
     17          7           0       -3.907300    2.563902   -0.104472
     18          6           0       -2.534974    2.764707   -0.233052
     19          6           0       -2.317089    4.216628   -0.508023
     20          6           0       -3.599222    4.892575   -0.335540
     21          6           0       -4.489636    3.759234    0.030698
     22          6           0       -0.958391    4.794163   -0.826808
     23          6           0       -4.020697    6.422438   -0.525665
     24          8           0       -5.180631    6.833267   -0.413163
     25          6           0       -2.910177    7.388709   -0.881579
     26          7           0       -6.664502    1.614927    0.352670
     27          6           0       -6.872770    2.926385    0.432950
     28          6           0       -8.349718    3.283687    0.785470
     29          6           0       -9.020462    1.924976    0.537390
     30          6           0       -7.885515    0.973925    0.321325
     31          6           0       -8.556278    3.852319    2.217141
     32          6           0      -10.213789    1.849148   -0.515725
     33          6           0       -9.913016    1.262826   -1.855875
     34          7           0       -5.788923   -1.065466    0.313520
     35          6           0       -7.104183   -1.386561    0.343541
     36          6           0       -7.336559   -2.780643    0.475729
     37          6           0       -6.021046   -3.319066    0.315647
     38          6           0       -5.188260   -2.227506    0.221380
     39          6           0       -8.564356   -3.621702    0.711003
     40          6           0       -5.209678   -4.496303    0.225095
     41          8           0       -5.483026   -5.675963    0.279575
     42          6           0       -3.755312   -4.089779   -0.174187
     43          6           0       -2.799207   -4.734757    0.730792
     44          8           0       -2.790297   -4.522380    1.933786
     45          8           0       -2.021640   -5.749141    0.115817
     46          6           0       -1.130149   -6.508490    1.006574
     47          6           0        3.375823   -1.965652    0.277682
     48          6           0        4.781779   -1.686970   -0.296648
     49          6           0        5.698812   -2.512314   -0.725102
     50          6           0        5.408631   -3.961433   -0.906739
     51          6           0        7.040998   -1.934682   -1.266717
     52          6           0        6.840897   -1.047477   -2.444900
     53          6           0        7.926257   -1.140452   -3.558531
     54          6           0        8.432747    0.284630   -3.877840
     55          6           0        8.730135    0.552838   -5.357236
     56          6           0        9.759934    0.631572   -3.084156
     57          6           0        9.619139    1.892921   -2.250194
     58          6           0       10.745530    1.991935   -1.199523
     59          6           0       10.132141    2.376988    0.213746
     60          6           0        9.720780    3.916874    0.154340
     61          6           0       11.098621    1.962134    1.376222
     62          6           0       10.727197    0.740736    2.166057
     63          6           0        9.671485    0.941526    3.295749
     64          6           0       10.226049    0.500029    4.709590
     65          6           0        9.194243    0.572897    5.830189
     66          6           0       11.496378    1.242926    5.137665
     67          1           0       -0.540737    2.044607   -0.073708
     68          1           0       -6.225557    4.947538    0.389068
     69          1           0       -9.144851   -0.702543    0.434347
     70          1           0       -0.892354   -2.828009    0.122262
     71          1           0        0.232381   -0.239164    0.004384
     72          1           0        0.542762   -0.920577    2.027897
     73          1           0       -0.890820   -1.989513    2.151398
     74          1           0       -0.993138   -0.156673    2.421954
     75          1           0       -0.742465   -1.186665   -2.418337
     76          1           0       -1.549778   -2.821899   -2.259704
     77          1           0        1.075988   -2.277524   -2.881860
     78          1           0        0.339632   -3.816654   -2.522443
     79          1           0       -0.346435    4.086965   -1.387866
     80          1           0       -0.360845    5.150843    0.011504
     81          1           0       -1.095178    5.636735   -1.504479
     82          1           0       -2.155512    7.197636   -0.119008
     83          1           0       -3.178297    8.441189   -0.794068
     84          1           0       -2.584505    7.215344   -1.907374
     85          1           0       -8.747876    4.039623    0.108791
     86          1           0       -9.365066    1.592393    1.515859
     87          1           0       -9.452098    3.355748    2.590793
     88          1           0       -8.653978    4.932807    2.310418
     89          1           0       -7.663363    3.620415    2.797741
     90          1           0      -10.670524    2.836273   -0.587896
     91          1           0      -10.971742    1.162602   -0.139236
     92          1           0      -10.451334    0.317228   -1.924570
     93          1           0       -8.895558    0.899330   -2.005109
     94          1           0      -10.244171    1.867984   -2.699878
     95          1           0       -9.455033   -3.017415    0.886723
     96          1           0       -8.349764   -4.348718    1.494802
     97          1           0       -8.926274   -4.202214   -0.137870
     98          1           0       -3.517538   -4.387676   -1.195031
     99          1           0       -0.417531   -7.159116    0.500259
    100          1           0       -1.825939   -7.095711    1.606481
    101          1           0       -0.668097   -5.763541    1.653318
    102          1           0        3.412038   -2.801735    0.975971
    103          1           0        3.103035   -1.093398    0.871662
    104          1           0        4.962432   -0.612546   -0.275590
    105          1           0        5.595284   -4.308149   -1.923533
    106          1           0        4.457361   -4.334187   -0.527183
    107          1           0        6.212308   -4.409911   -0.324607
    108          1           0        7.752776   -2.743472   -1.433807
    109          1           0        7.605249   -1.396825   -0.504762
    110          1           0        6.892497   -0.031706   -2.054574
    111          1           0        5.844270   -1.259846   -2.833546
    112          1           0        7.375129   -1.421287   -4.455960
    113          1           0        8.746158   -1.837774   -3.383839
    114          1           0        7.665819    1.000032   -3.582192
    115          1           0        9.389071   -0.300504   -5.512806
    116          1           0        9.286722    1.477597   -5.513612
    117          1           0        7.808626    0.478253   -5.934674
    118          1           0       10.617410    0.723476   -3.750821
    119          1           0       10.078246   -0.246547   -2.522203
    120          1           0        8.624705    1.925429   -1.804484
    121          1           0        9.786352    2.733375   -2.923614
    122          1           0       11.441246    2.750876   -1.557830
    123          1           0       11.270087    1.036055   -1.176137
    124          1           0        9.192520    1.839711    0.346781
    125          1           0        8.703670    4.057421   -0.210653
    126          1           0       10.354322    4.554731   -0.461671
    127          1           0        9.789252    4.381076    1.137964
    128          1           0       11.201142    2.760609    2.110793
    129          1           0       12.123750    1.913823    1.011931
    130          1           0       11.617193    0.223577    2.524643
    131          1           0       10.099946    0.073137    1.574634
    132          1           0        8.774329    0.357775    3.094909
    133          1           0        9.249807    1.939417    3.411421
    134          1           0       10.413609   -0.571024    4.630975
    135          1           0        8.433422    1.309649    5.573522
    136          1           0        9.636988    0.774963    6.806373
    137          1           0        8.682510   -0.374566    5.996089
    138          1           0       12.273274    0.564649    5.492463
    139          1           0       11.243873    1.929028    5.945301
    140          1           0       11.915099    1.846375    4.332366
 ---------------------------------------------------------------------

 SCF Done:  E(RCAM-B3LYP) =  -3007.19152266     A.U. after   17 cycles

 Excitation energies and oscillator strengths:

 Excited State   1:      Singlet-A      1.7343 eV  714.90 nm  f=0.3840  <S**2>=0.000
     245 -> 248       -0.17803
     246 -> 247        0.68641
     245 <- 248       -0.10699
 This state for optimization and/or second-order correction.
 Total Energy, E(TD-HF/TD-DFT) =  -3007.12778910
 Copying the excited state density for this state as the 1-particle RhoCI density.

 Excited State   2:      Singlet-A      2.2137 eV  560.07 nm  f=0.1586  <S**2>=0.000
     245 -> 247        0.65507
     246 -> 248        0.25724

 Excited State   3:      Singlet-A      3.4454 eV  359.85 nm  f=0.0037  <S**2>=0.000
     242 -> 247       -0.25838
     243 -> 247        0.19691
     244 -> 247        0.60499

 Excited State   4:      Singlet-A      3.5069 eV  353.54 nm  f=0.0013  <S**2>=0.000
     242 -> 247        0.16148
     243 -> 247        0.56456
     243 -> 249        0.17861
     243 -> 250       -0.25267
     244 -> 247       -0.15448

 Excited State   5:      Singlet-A      3.5685 eV  347.44 nm  f=0.0430  <S**2>=0.000
     240 -> 247        0.24811
     241 -> 247       -0.20100
     242 -> 247        0.45075
     244 -> 247        0.26869
     246 -> 248       -0.31417

 The electronic state is 1-A.
 Alpha  occ. eigenvalues --  -46.87700 -19.25071 -19.23209 -19.20430 -19.19851
 Alpha  occ. eigenvalues --  -19.18947 -19.17735 -14.41965 -14.41391 -14.40045
 Alpha  occ. eigenvalues --  -14.38550 -10.39304 -10.38351 -10.37189 -10.33926
 Alpha  occ. eigenvalues --  -10.32566 -10.31253 -10.31067 -10.30920 -10.30520
 Alpha  occ. eigenvalues --  -10.30453 -10.30243 -10.30040 -10.29789 -10.28950
 Alpha  occ. eigenvalues --  -10.28749 -10.28033 -10.28004 -10.27918 -10.27896
 Alpha  occ. eigenvalues --  -10.27613 -10.27555 -10.27464 -10.27387 -10.27286
 Alpha  occ. eigenvalues --  -10.27220 -10.27208 -10.27184 -10.27132 -10.26795
 Alpha  occ. eigenvalues --  -10.26706 -10.26281 -10.25989 -10.25906 -10.25827
 Alpha  occ. eigenvalues --  -10.25689 -10.25677 -10.25574 -10.25530 -10.25510
 Alpha  occ. eigenvalues --  -10.25506 -10.25383 -10.25366 -10.25273 -10.25140
 Alpha  occ. eigenvalues --  -10.25081 -10.25011 -10.24983 -10.24847 -10.24785
 Alpha  occ. eigenvalues --  -10.24700 -10.24540 -10.24475 -10.24324 -10.24190
 Alpha  occ. eigenvalues --  -10.24083  -3.16466  -1.91377  -1.90886  -1.90812
 Alpha  occ. eigenvalues --   -1.16842  -1.13870  -1.10437  -1.09387  -1.08142
 Alpha  occ. eigenvalues --   -1.06107  -1.05514  -1.04664  -1.04078  -1.03095
 Alpha  occ. eigenvalues --   -0.91983  -0.91327  -0.89918  -0.89431  -0.89140
 Alpha  occ. eigenvalues --   -0.89026  -0.88275  -0.87401  -0.87280  -0.87059
 Alpha  occ. eigenvalues --   -0.86241  -0.85784  -0.84877  -0.83625  -0.83362
 Alpha  occ. eigenvalues --   -0.82921  -0.82481  -0.81495  -0.80836  -0.80317
 Alpha  occ. eigenvalues --   -0.79831  -0.78533  -0.77681  -0.77085  -0.76258
 Alpha  occ. eigenvalues --   -0.75810  -0.75483  -0.75097  -0.74886  -0.74009
 Alpha  occ. eigenvalues --   -0.73673  -0.72754  -0.71158  -0.70372  -0.69171
 Alpha  occ. eigenvalues --   -0.68519  -0.68363  -0.67095  -0.66948  -0.65451
 Alpha  occ. eigenvalues --   -0.65275  -0.64756  -0.64497  -0.64225  -0.64093
 Alpha  occ. eigenvalues --   -0.63371  -0.63249  -0.62548  -0.60803  -0.60550
 Alpha  occ. eigenvalues --   -0.59994  -0.59545  -0.59089  -0.58294  -0.57804
 Alpha  occ. eigenvalues --   -0.57352  -0.56987  -0.56222  -0.55688  -0.55323
 Alpha  occ. eigenvalues --   -0.55192  -0.54888  -0.54519  -0.54414  -0.53876
 Alpha  occ. eigenvalues --   -0.53802  -0.53325  -0.53309  -0.53011  -0.52788
 Alpha  occ. eigenvalues --   -0.52636  -0.52521  -0.52304  -0.52220  -0.52092
 Alpha  occ. eigenvalues --   -0.51842  -0.51445  -0.51244  -0.50991  -0.50931
 Alpha  occ. eigenvalues --   -0.50636  -0.50414  -0.50093  -0.49885  -0.49534
 Alpha  occ. eigenvalues --   -0.49449  -0.49351  -0.49022  -0.48906  -0.48835
 Alpha  occ. eigenvalues --   -0.48723  -0.48687  -0.48435  -0.48375  -0.47924
 Alpha  occ. eigenvalues --   -0.47564  -0.47423  -0.47176  -0.46748  -0.46687
 Alpha  occ. eigenvalues --   -0.46623  -0.46270  -0.46029  -0.45763  -0.45695
 Alpha  occ. eigenvalues --   -0.45573  -0.45352  -0.45217  -0.44991  -0.44708
 Alpha  occ. eigenvalues --   -0.44635  -0.44477  -0.44264  -0.44161  -0.44027
 Alpha  occ. eigenvalues --   -0.43902  -0.43534  -0.43408  -0.43255  -0.43192
 Alpha  occ. eigenvalues --   -0.43024  -0.42856  -0.42361  -0.42296  -0.41821
 Alpha  occ. eigenvalues --   -0.41773  -0.41364  -0.41331  -0.41140  -0.41065
 Alpha  occ. eigenvalues --   -0.40660  -0.40521  -0.40236  -0.40115  -0.39975
 Alpha  occ. eigenvalues --   -0.39774  -0.39652  -0.39287  -0.39210  -0.39133
 Alpha  occ. eigenvalues --   -0.38475  -0.38119  -0.38045  -0.37716  -0.37677
 Alpha  occ. eigenvalues --   -0.37334  -0.36938  -0.36788  -0.36746  -0.36468
 Alpha  occ. eigenvalues --   -0.36096  -0.35776  -0.34900  -0.34540  -0.34291
 Alpha  occ. eigenvalues --   -0.33889  -0.33473  -0.33103  -0.32146  -0.31107
 Alpha  occ. eigenvalues --   -0.31023  -0.30412  -0.30013  -0.29460  -0.23817
 Alpha  occ. eigenvalues --   -0.21321
 Alpha virt. eigenvalues --   -0.08761  -0.01189   0.00049   0.02600   0.03510
 Alpha virt. eigenvalues --    0.04698   0.05112   0.05387   0.05731   0.06286
 Alpha virt. eigenvalues --    0.06864   0.08002   0.08443   0.08525   0.09315

 Mulliken charges:
               1
     1  Mg   0.842570
     2  C   -0.022460
     3  C   -0.078375
     4  C   -0.075305
     5  C   -0.111445
     6  N   -0.244251
     7  C   -0.039483
     8  C   -0.111472
     9  C   -0.061015
    10  C    0.017954
    11  C    0.111354
    12  C    0.094963
    13  C    0.098347
    14  C    0.127857
    15  O   -0.219803
    16  O   -0.339450
    17  N   -0.393526
    18  C    0.179136
    19  C   -0.141715
    20  C   -0.075372
    21  C    0.104503
    22  C    0.096169
    23  C    0.057766
    24  O   -0.196978
    25  C    0.033433
    26  N   -0.301822
    27  C    0.062577
    28  C   -0.047684
    29  C    0.014839
    30  C    0.029883
    31  C    0.068865
    32  C    0.044654
    33  C    0.006281
    34  N   -0.283319
    35  C    0.112613
    36  C   -0.165732
    37  C    0.023954
    38  C    0.065213
    39  C    0.123739
    40  C    0.018433
    41  O   -0.166319
    42  C    0.053809
    43  C    0.182804
    44  O   -0.226111
    45  O   -0.371565
    46  C    0.192368
    47  C    0.284313
    48  C   -0.144323
    49  C   -0.152112
    50  C    0.090233
    51  C    0.081839
    52  C    0.010274
    53  C    0.087289
    54  C   -0.165402
    55  C    0.051846
    56  C    0.019487
    57  C    0.024077
    58  C    0.053040
    59  C   -0.125724
    60  C    0.027521
    61  C    0.088576
    62  C    0.024613
    63  C    0.021941
    64  C   -0.158417
    65  C    0.045630
    66  C    0.048115
    67  H   -0.022727
    68  H   -0.009585
    69  H   -0.032085
    70  H    0.023940
    71  H   -0.020944
    72  H    0.007061
    73  H    0.054069
    74  H    0.012958
    75  H    0.010150
    76  H    0.013851
    77  H    0.019217
    78  H    0.024657
    79  H    0.017752
    80  H    0.041473
    81  H    0.008442
    82  H    0.038212
    83  H    0.028971
    84  H    0.060083
    85  H    0.009057
    86  H    0.004414
    87  H    0.017243
    88  H    0.022684
    89  H    0.019478
    90  H    0.008748
    91  H    0.003190
    92  H   -0.003650
    93  H    0.027825
    94  H    0.016920
    95  H   -0.006186
    96  H    0.044339
    97  H    0.023659
    98  H    0.036014
    99  H    0.044486
   100  H    0.031350
   101  H    0.038989
   102  H    0.045245
   103  H    0.007959
   104  H   -0.013110
   105  H    0.022154
   106  H    0.032111
   107  H    0.010245
   108  H   -0.019530
   109  H    0.004108
   110  H    0.007841
   111  H    0.019329
   112  H   -0.017553
   113  H    0.007603
   114  H   -0.004826
   115  H    0.003440
   116  H    0.014771
   117  H    0.010875
   118  H   -0.014634
   119  H   -0.019306
   120  H    0.005610
   121  H   -0.004836
   122  H   -0.001100
   123  H   -0.003548
   124  H   -0.005141
   125  H    0.010938
   126  H    0.004706
   127  H    0.004884
   128  H   -0.019758
   129  H   -0.014541
   130  H    0.010904
   131  H   -0.004923
   132  H   -0.011854
   133  H   -0.008931
   134  H   -0.004504
   135  H    0.002810
   136  H    0.005500
   137  H   -0.000954
   138  H    0.012609
   139  H    0.004720
   140  H    0.002937
 Sum of Mulliken charges =  -0.00000

 Dipole moment (field-independent basis, Debye):
    X=              4.9206    Y=              5.0422    Z=             -2.4793  Tot=              7.4687
 Quadrupole moment (field-independent basis, Debye-Ang):
   XX=           -378.9555   YY=           -430.9823   ZZ=           -406.5783
   XY=            -19.4265   XZ=              2.8613   YZ=              6.8134

 Normal termination of Gaussian 16 at Thu May  5 01:04:31 2022.
