 Gaussian 16, Revision A.03,
 Gaussian 16:  ES64L-G16RevA.03 25-Dec-2016

 ---------------------------------
 #p PBE1PBE/Def2SVP td=(nstates=5)
 ---------------------------------

 ----------------------------------------------------
 step_501_chromophore_9 TDDFT with PBE1PBE functional
 ----------------------------------------------------
 Symbolic Z-matrix:
 Charge =  0 Multiplicity = 1

                         Standard orientation:
 ---------------------------------------------------------------------
 Center     Atomic      Atomic             Coordinates (Angstroms)
 Number     Number       Type             X           Y           Z
 ---------------------------------------------------------------------
      1         12           0       -4.811587    0.757920    0.014887
      2          6           0       -3.795660   -2.559812   -0.055247
      3          6           0       -1.594119    1.762096   -0.101975
      4          6           0       -5.906370    3.911152    0.266797
      5          6           0       -8.109573   -0.384956    0.296130
      6          7           0       -2.934363   -0.359392   -0.099688
      7          6           0       -2.742452   -1.652190   -0.209655
      8          6           0       -1.170425   -1.893873   -0.363897
      9          6           0       -0.692016   -0.669998    0.388242
     10          6           0       -1.798698    0.366957    0.015009
     11          6           0       -0.536732   -0.991360    1.890349
     12          6           0       -0.787341   -2.137615   -1.886755
     13          6           0        0.559096   -2.835635   -2.101802
     14          6           0        1.491088   -3.009885   -0.915121
     15          8           0        1.486137   -3.914868   -0.127679
     16          8           0        2.388880   -1.993038   -0.855359
     17          7           0       -3.907300    2.563902   -0.104472
     18          6           0       -2.534974    2.764707   -0.233052
     19          6           0       -2.317089    4.216628   -0.508023
     20          6           0       -3.599222    4.892575   -0.335540
     21          6           0       -4.489636    3.759234    0.030698
     22          6           0       -0.958391    4.794163   -0.826808
     23          6           0       -4.020697    6.422438   -0.525665
     24          8           0       -5.180631    6.833267   -0.413163
     25          6           0       -2.910177    7.388709   -0.881579
     26          7           0       -6.664502    1.614927    0.352670
     27          6           0       -6.872770    2.926385    0.432950
     28          6           0       -8.349718    3.283687    0.785470
     29          6           0       -9.020462    1.924976    0.537390
     30          6           0       -7.885515    0.973925    0.321325
     31          6           0       -8.556278    3.852319    2.217141
     32          6           0      -10.213789    1.849148   -0.515725
     33          6           0       -9.913016    1.262826   -1.855875
     34          7           0       -5.788923   -1.065466    0.313520
     35          6           0       -7.104183   -1.386561    0.343541
     36          6           0       -7.336559   -2.780643    0.475729
     37          6           0       -6.021046   -3.319066    0.315647
     38          6           0       -5.188260   -2.227506    0.221380
     39          6           0       -8.564356   -3.621702    0.711003
     40          6           0       -5.209678   -4.496303    0.225095
     41          8           0       -5.483026   -5.675963    0.279575
     42          6           0       -3.755312   -4.089779   -0.174187
     43          6           0       -2.799207   -4.734757    0.730792
     44          8           0       -2.790297   -4.522380    1.933786
     45          8           0       -2.021640   -5.749141    0.115817
     46          6           0       -1.130149   -6.508490    1.006574
     47          6           0        3.375823   -1.965652    0.277682
     48          6           0        4.781779   -1.686970   -0.296648
     49          6           0        5.698812   -2.512314   -0.725102
     50          6           0        5.408631   -3.961433   -0.906739
     51          6           0        7.040998   -1.934682   -1.266717
     52          6           0        6.840897   -1.047477   -2.444900
     53          6           0        7.926257   -1.140452   -3.558531
     54          6           0        8.432747    0.284630   -3.877840
     55          6           0        8.730135    0.552838   -5.357236
     56          6           0        9.759934    0.631572   -3.084156
     57          6           0        9.619139    1.892921   -2.250194
     58          6           0       10.745530    1.991935   -1.199523
     59          6           0       10.132141    2.376988    0.213746
     60          6           0        9.720780    3.916874    0.154340
     61          6           0       11.098621    1.962134    1.376222
     62          6           0       10.727197    0.740736    2.166057
     63          6           0        9.671485    0.941526    3.295749
     64          6           0       10.226049    0.500029    4.709590
     65          6           0        9.194243    0.572897    5.830189
     66          6           0       11.496378    1.242926    5.137665
     67          1           0       -0.540737    2.044607   -0.073708
     68          1           0       -6.225557    4.947538    0.389068
     69          1           0       -9.144851   -0.702543    0.434347
     70          1           0       -0.892354   -2.828009    0.122262
     71          1           0        0.232381   -0.239164    0.004384
     72          1           0        0.542762   -0.920577    2.027897
     73          1           0       -0.890820   -1.989513    2.151398
     74          1           0       -0.993138   -0.156673    2.421954
     75          1           0       -0.742465   -1.186665   -2.418337
     76          1           0       -1.549778   -2.821899   -2.259704
     77          1           0        1.075988   -2.277524   -2.881860
     78          1           0        0.339632   -3.816654   -2.522443
     79          1           0       -0.346435    4.086965   -1.387866
     80          1           0       -0.360845    5.150843    0.011504
     81          1           0       -1.095178    5.636735   -1.504479
     82          1           0       -2.155512    7.197636   -0.119008
     83          1           0       -3.178297    8.441189   -0.794068
     84          1           0       -2.584505    7.215344   -1.907374
     85          1           0       -8.747876    4.039623    0.108791
     86          1           0       -9.365066    1.592393    1.515859
     87          1           0       -9.452098    3.355748    2.590793
     88          1           0       -8.653978    4.932807    2.310418
     89          1           0       -7.663363    3.620415    2.797741
     90          1           0      -10.670524    2.836273   -0.587896
     91          1           0      -10.971742    1.162602   -0.139236
     92          1           0      -10.451334    0.317228   -1.924570
     93          1           0       -8.895558    0.899330   -2.005109
     94          1           0      -10.244171    1.867984   -2.699878
     95          1           0       -9.455033   -3.017415    0.886723
     96          1           0       -8.349764   -4.348718    1.494802
     97          1           0       -8.926274   -4.202214   -0.137870
     98          1           0       -3.517538   -4.387676   -1.195031
     99          1           0       -0.417531   -7.159116    0.500259
    100          1           0       -1.825939   -7.095711    1.606481
    101          1           0       -0.668097   -5.763541    1.653318
    102          1           0        3.412038   -2.801735    0.975971
    103          1           0        3.103035   -1.093398    0.871662
    104          1           0        4.962432   -0.612546   -0.275590
    105          1           0        5.595284   -4.308149   -1.923533
    106          1           0        4.457361   -4.334187   -0.527183
    107          1           0        6.212308   -4.409911   -0.324607
    108          1           0        7.752776   -2.743472   -1.433807
    109          1           0        7.605249   -1.396825   -0.504762
    110          1           0        6.892497   -0.031706   -2.054574
    111          1           0        5.844270   -1.259846   -2.833546
    112          1           0        7.375129   -1.421287   -4.455960
    113          1           0        8.746158   -1.837774   -3.383839
    114          1           0        7.665819    1.000032   -3.582192
    115          1           0        9.389071   -0.300504   -5.512806
    116          1           0        9.286722    1.477597   -5.513612
    117          1           0        7.808626    0.478253   -5.934674
    118          1           0       10.617410    0.723476   -3.750821
    119          1           0       10.078246   -0.246547   -2.522203
    120          1           0        8.624705    1.925429   -1.804484
    121          1           0        9.786352    2.733375   -2.923614
    122          1           0       11.441246    2.750876   -1.557830
    123          1           0       11.270087    1.036055   -1.176137
    124          1           0        9.192520    1.839711    0.346781
    125          1           0        8.703670    4.057421   -0.210653
    126          1           0       10.354322    4.554731   -0.461671
    127          1           0        9.789252    4.381076    1.137964
    128          1           0       11.201142    2.760609    2.110793
    129          1           0       12.123750    1.913823    1.011931
    130          1           0       11.617193    0.223577    2.524643
    131          1           0       10.099946    0.073137    1.574634
    132          1           0        8.774329    0.357775    3.094909
    133          1           0        9.249807    1.939417    3.411421
    134          1           0       10.413609   -0.571024    4.630975
    135          1           0        8.433422    1.309649    5.573522
    136          1           0        9.636988    0.774963    6.806373
    137          1           0        8.682510   -0.374566    5.996089
    138          1           0       12.273274    0.564649    5.492463
    139          1           0       11.243873    1.929028    5.945301
    140          1           0       11.915099    1.846375    4.332366
 ---------------------------------------------------------------------

 SCF Done:  E(RPBE1PBE) =  -3005.37926018     A.U. after   15 cycles

 Excitation energies and oscillator strengths:

 Excited State   1:      Singlet-A      1.8715 eV  662.47 nm  f=0.3714  <S**2>=0.000
     245 -> 248       -0.17530
     246 -> 247        0.69316
     246 <- 247       -0.10638
 This state for optimization and/or second-order correction.
 Total Energy, E(TD-HF/TD-DFT) =  -3005.31048241
 Copying the excited state density for this state as the 1-particle RhoCI density.

 Excited State   2:      Singlet-A      2.2160 eV  559.50 nm  f=0.1495  <S**2>=0.000
     245 -> 247        0.66497
     246 -> 248        0.23572

 Excited State   3:      Singlet-A      2.9100 eV  426.06 nm  f=0.0001  <S**2>=0.000
     244 -> 247        0.68335
     244 -> 249        0.11146
     244 -> 250       -0.12523

 Excited State   4:      Singlet-A      3.1030 eV  399.56 nm  f=0.0028  <S**2>=0.000
     242 -> 247       -0.17251
     243 -> 247        0.68074

 Excited State   5:      Singlet-A      3.2500 eV  381.49 nm  f=0.0133  <S**2>=0.000
     239 -> 247       -0.11287
     240 -> 247        0.12206
     241 -> 247       -0.10192
     242 -> 247        0.64922
     243 -> 247        0.16216

 The electronic state is 1-A.
 Alpha  occ. eigenvalues --  -46.91111 -19.25712 -19.23924 -19.20440 -19.20066
 Alpha  occ. eigenvalues --  -19.19187 -19.18166 -14.41332 -14.41026 -14.39573
 Alpha  occ. eigenvalues --  -14.38340 -10.36285 -10.35396 -10.34146 -10.31244
 Alpha  occ. eigenvalues --  -10.29943 -10.28803 -10.28467 -10.28326 -10.28322
 Alpha  occ. eigenvalues --  -10.28082 -10.27745 -10.27589 -10.27297 -10.26769
 Alpha  occ. eigenvalues --  -10.26416 -10.25936 -10.25824 -10.25723 -10.25305
 Alpha  occ. eigenvalues --  -10.25288 -10.25208 -10.25157 -10.25075 -10.24984
 Alpha  occ. eigenvalues --  -10.24925 -10.24742 -10.24692 -10.24638 -10.24506
 Alpha  occ. eigenvalues --  -10.24247 -10.23979 -10.23684 -10.23511 -10.23340
 Alpha  occ. eigenvalues --  -10.23268 -10.23224 -10.23214 -10.23208 -10.23168
 Alpha  occ. eigenvalues --  -10.22962 -10.22925 -10.22902 -10.22807 -10.22679
 Alpha  occ. eigenvalues --  -10.22595 -10.22568 -10.22370 -10.22362 -10.22309
 Alpha  occ. eigenvalues --  -10.22264 -10.22080 -10.21962 -10.21928 -10.21681
 Alpha  occ. eigenvalues --  -10.21551  -3.13450  -1.86305  -1.85790  -1.85722
 Alpha  occ. eigenvalues --   -1.11601  -1.08634  -1.04967  -1.04328  -1.02974
 Alpha  occ. eigenvalues --   -1.00973  -1.00291  -0.99375  -0.98720  -0.97647
 Alpha  occ. eigenvalues --   -0.86448  -0.85451  -0.84002  -0.83586  -0.83476
 Alpha  occ. eigenvalues --   -0.83112  -0.82531  -0.81566  -0.81472  -0.81227
 Alpha  occ. eigenvalues --   -0.80678  -0.80014  -0.79023  -0.77946  -0.77543
 Alpha  occ. eigenvalues --   -0.77147  -0.76562  -0.75719  -0.75155  -0.74453
 Alpha  occ. eigenvalues --   -0.74204  -0.72683  -0.71942  -0.71430  -0.70443
 Alpha  occ. eigenvalues --   -0.70156  -0.69544  -0.69258  -0.69200  -0.68173
 Alpha  occ. eigenvalues --   -0.67947  -0.67257  -0.65554  -0.64698  -0.63597
 Alpha  occ. eigenvalues --   -0.62910  -0.62686  -0.61354  -0.61152  -0.59877
 Alpha  occ. eigenvalues --   -0.59453  -0.59295  -0.58755  -0.58696  -0.58610
 Alpha  occ. eigenvalues --   -0.57788  -0.57497  -0.56695  -0.55417  -0.54988
 Alpha  occ. eigenvalues --   -0.54444  -0.53956  -0.53735  -0.52944  -0.52412
 Alpha  occ. eigenvalues --   -0.51792  -0.51419  -0.50665  -0.50325  -0.49874
 Alpha  occ. eigenvalues --   -0.49752  -0.49353  -0.49080  -0.48761  -0.48267
 Alpha  occ. eigenvalues --   -0.48189  -0.47866  -0.47583  -0.47483  -0.47367
 Alpha  occ. eigenvalues --   -0.47070  -0.47043  -0.46936  -0.46639  -0.46542
 Alpha  occ. eigenvalues --   -0.46345  -0.46037  -0.45737  -0.45589  -0.45428
 Alpha  occ. eigenvalues --   -0.45063  -0.44873  -0.44789  -0.44387  -0.44086
 Alpha  occ. eigenvalues --   -0.44028  -0.43935  -0.43582  -0.43484  -0.43442
 Alpha  occ. eigenvalues --   -0.43326  -0.43267  -0.43074  -0.42997  -0.42606
 Alpha  occ. eigenvalues --   -0.42048  -0.41976  -0.41749  -0.41564  -0.41395
 Alpha  occ. eigenvalues --   -0.41248  -0.41136  -0.40823  -0.40433  -0.40419
 Alpha  occ. eigenvalues --   -0.40306  -0.40060  -0.39923  -0.39607  -0.39435
 Alpha  occ. eigenvalues --   -0.39375  -0.39195  -0.39003  -0.38850  -0.38802
 Alpha  occ. eigenvalues --   -0.38655  -0.38262  -0.38225  -0.38068  -0.37907
 Alpha  occ. eigenvalues --   -0.37746  -0.37698  -0.37296  -0.37018  -0.36668
 Alpha  occ. eigenvalues --   -0.36513  -0.36213  -0.36074  -0.35922  -0.35824
 Alpha  occ. eigenvalues --   -0.35500  -0.35456  -0.35060  -0.34910  -0.34843
 Alpha  occ. eigenvalues --   -0.34586  -0.34533  -0.34138  -0.34005  -0.33901
 Alpha  occ. eigenvalues --   -0.33340  -0.33085  -0.32871  -0.32678  -0.32510
 Alpha  occ. eigenvalues --   -0.32152  -0.32003  -0.31644  -0.31500  -0.31359
 Alpha  occ. eigenvalues --   -0.31163  -0.30645  -0.29849  -0.29726  -0.29153
 Alpha  occ. eigenvalues --   -0.28883  -0.28864  -0.28096  -0.26793  -0.26554
 Alpha  occ. eigenvalues --   -0.26282  -0.25917  -0.25360  -0.25061  -0.20755
 Alpha  occ. eigenvalues --   -0.18895
 Alpha virt. eigenvalues --   -0.11214  -0.04731  -0.04125  -0.01898   0.00229
 Alpha virt. eigenvalues --    0.00576   0.00817   0.01072   0.01726   0.02586
 Alpha virt. eigenvalues --    0.03481   0.03808   0.04480   0.05009   0.05550

 Mulliken charges:
               1
     1  Mg   0.998618
     2  C   -0.040339
     3  C   -0.072299
     4  C   -0.057245
     5  C   -0.086960
     6  N   -0.350771
     7  C    0.049585
     8  C   -0.191317
     9  C   -0.143020
    10  C    0.055506
    11  C    0.053018
    12  C    0.047700
    13  C    0.026767
    14  C    0.194320
    15  O   -0.255422
    16  O   -0.369120
    17  N   -0.507268
    18  C    0.189160
    19  C   -0.168639
    20  C   -0.109947
    21  C    0.128339
    22  C    0.037293
    23  C    0.101781
    24  O   -0.235707
    25  C   -0.040366
    26  N   -0.411811
    27  C    0.087202
    28  C   -0.117721
    29  C   -0.055238
    30  C    0.059505
    31  C    0.010956
    32  C   -0.022126
    33  C   -0.065137
    34  N   -0.415755
    35  C    0.117315
    36  C   -0.167379
    37  C   -0.026980
    38  C    0.121243
    39  C    0.073002
    40  C    0.115781
    41  O   -0.210776
    42  C   -0.061971
    43  C    0.274565
    44  O   -0.259130
    45  O   -0.404459
    46  C    0.137238
    47  C    0.235483
    48  C   -0.148476
    49  C   -0.206267
    50  C    0.027316
    51  C    0.030642
    52  C   -0.055655
    53  C    0.030466
    54  C   -0.252682
    55  C   -0.014216
    56  C   -0.025377
    57  C   -0.041459
    58  C   -0.000116
    59  C   -0.215041
    60  C   -0.028137
    61  C    0.037881
    62  C   -0.047027
    63  C   -0.027263
    64  C   -0.249835
    65  C   -0.015367
    66  C   -0.015911
    67  H    0.007560
    68  H    0.022888
    69  H    0.000203
    70  H    0.069414
    71  H    0.017126
    72  H    0.037558
    73  H    0.079118
    74  H    0.042126
    75  H    0.042493
    76  H    0.048560
    77  H    0.051786
    78  H    0.056455
    79  H    0.044082
    80  H    0.066878
    81  H    0.036795
    82  H    0.065690
    83  H    0.055941
    84  H    0.084981
    85  H    0.045908
    86  H    0.043809
    87  H    0.043996
    88  H    0.049829
    89  H    0.047923
    90  H    0.041320
    91  H    0.035330
    92  H    0.024162
    93  H    0.057802
    94  H    0.045760
    95  H    0.022529
    96  H    0.071832
    97  H    0.052422
    98  H    0.072588
    99  H    0.066127
   100  H    0.054214
   101  H    0.060502
   102  H    0.070097
   103  H    0.035949
   104  H    0.016962
   105  H    0.050148
   106  H    0.058729
   107  H    0.039628
   108  H    0.011982
   109  H    0.037045
   110  H    0.040928
   111  H    0.052124
   112  H    0.018142
   113  H    0.037111
   114  H    0.033234
   115  H    0.033147
   116  H    0.043402
   117  H    0.039195
   118  H    0.017557
   119  H    0.012426
   120  H    0.037280
   121  H    0.029267
   122  H    0.031381
   123  H    0.028830
   124  H    0.033030
   125  H    0.037747
   126  H    0.031330
   127  H    0.032177
   128  H    0.012576
   129  H    0.017689
   130  H    0.042397
   131  H    0.029479
   132  H    0.020646
   133  H    0.022577
   134  H    0.034084
   135  H    0.030368
   136  H    0.032674
   137  H    0.027145
   138  H    0.040182
   139  H    0.032382
   140  H    0.032293
 Sum of Mulliken charges =  -0.00000

 Dipole moment (field-independent basis, Debye):
    X=              4.5140    Y=              4.5385    Z=             -2.4265  Tot=              6.8456
 Quadrupole moment (field-independent basis, Debye-Ang):
   XX=           -369.2041   YY=           -429.0228   ZZ=           -404.0383
   XY=            -17.4752   XZ=              1.9693   YZ=              7.0433

 Normal termination of Gaussian 16 at Thu May  5 01:25:57 2022.
