 Gaussian 16, Revision A.03,
 Gaussian 16:  ES64L-G16RevA.03 25-Dec-2016

 --------------------------------
 #p wB97XD/Def2SVP td=(nstates=5)
 --------------------------------

 ---------------------------------------------------
 step_501_chromophore_9 TDDFT with wB97XD functional
 ---------------------------------------------------
 Symbolic Z-matrix:
 Charge =  0 Multiplicity = 1

                         Standard orientation:
 ---------------------------------------------------------------------
 Center     Atomic      Atomic             Coordinates (Angstroms)
 Number     Number       Type             X           Y           Z
 ---------------------------------------------------------------------
      1         12           0       -4.811587    0.757920    0.014887
      2          6           0       -3.795660   -2.559812   -0.055247
      3          6           0       -1.594119    1.762096   -0.101975
      4          6           0       -5.906370    3.911152    0.266797
      5          6           0       -8.109573   -0.384956    0.296130
      6          7           0       -2.934363   -0.359392   -0.099688
      7          6           0       -2.742452   -1.652190   -0.209655
      8          6           0       -1.170425   -1.893873   -0.363897
      9          6           0       -0.692016   -0.669998    0.388242
     10          6           0       -1.798698    0.366957    0.015009
     11          6           0       -0.536732   -0.991360    1.890349
     12          6           0       -0.787341   -2.137615   -1.886755
     13          6           0        0.559096   -2.835635   -2.101802
     14          6           0        1.491088   -3.009885   -0.915121
     15          8           0        1.486137   -3.914868   -0.127679
     16          8           0        2.388880   -1.993038   -0.855359
     17          7           0       -3.907300    2.563902   -0.104472
     18          6           0       -2.534974    2.764707   -0.233052
     19          6           0       -2.317089    4.216628   -0.508023
     20          6           0       -3.599222    4.892575   -0.335540
     21          6           0       -4.489636    3.759234    0.030698
     22          6           0       -0.958391    4.794163   -0.826808
     23          6           0       -4.020697    6.422438   -0.525665
     24          8           0       -5.180631    6.833267   -0.413163
     25          6           0       -2.910177    7.388709   -0.881579
     26          7           0       -6.664502    1.614927    0.352670
     27          6           0       -6.872770    2.926385    0.432950
     28          6           0       -8.349718    3.283687    0.785470
     29          6           0       -9.020462    1.924976    0.537390
     30          6           0       -7.885515    0.973925    0.321325
     31          6           0       -8.556278    3.852319    2.217141
     32          6           0      -10.213789    1.849148   -0.515725
     33          6           0       -9.913016    1.262826   -1.855875
     34          7           0       -5.788923   -1.065466    0.313520
     35          6           0       -7.104183   -1.386561    0.343541
     36          6           0       -7.336559   -2.780643    0.475729
     37          6           0       -6.021046   -3.319066    0.315647
     38          6           0       -5.188260   -2.227506    0.221380
     39          6           0       -8.564356   -3.621702    0.711003
     40          6           0       -5.209678   -4.496303    0.225095
     41          8           0       -5.483026   -5.675963    0.279575
     42          6           0       -3.755312   -4.089779   -0.174187
     43          6           0       -2.799207   -4.734757    0.730792
     44          8           0       -2.790297   -4.522380    1.933786
     45          8           0       -2.021640   -5.749141    0.115817
     46          6           0       -1.130149   -6.508490    1.006574
     47          6           0        3.375823   -1.965652    0.277682
     48          6           0        4.781779   -1.686970   -0.296648
     49          6           0        5.698812   -2.512314   -0.725102
     50          6           0        5.408631   -3.961433   -0.906739
     51          6           0        7.040998   -1.934682   -1.266717
     52          6           0        6.840897   -1.047477   -2.444900
     53          6           0        7.926257   -1.140452   -3.558531
     54          6           0        8.432747    0.284630   -3.877840
     55          6           0        8.730135    0.552838   -5.357236
     56          6           0        9.759934    0.631572   -3.084156
     57          6           0        9.619139    1.892921   -2.250194
     58          6           0       10.745530    1.991935   -1.199523
     59          6           0       10.132141    2.376988    0.213746
     60          6           0        9.720780    3.916874    0.154340
     61          6           0       11.098621    1.962134    1.376222
     62          6           0       10.727197    0.740736    2.166057
     63          6           0        9.671485    0.941526    3.295749
     64          6           0       10.226049    0.500029    4.709590
     65          6           0        9.194243    0.572897    5.830189
     66          6           0       11.496378    1.242926    5.137665
     67          1           0       -0.540737    2.044607   -0.073708
     68          1           0       -6.225557    4.947538    0.389068
     69          1           0       -9.144851   -0.702543    0.434347
     70          1           0       -0.892354   -2.828009    0.122262
     71          1           0        0.232381   -0.239164    0.004384
     72          1           0        0.542762   -0.920577    2.027897
     73          1           0       -0.890820   -1.989513    2.151398
     74          1           0       -0.993138   -0.156673    2.421954
     75          1           0       -0.742465   -1.186665   -2.418337
     76          1           0       -1.549778   -2.821899   -2.259704
     77          1           0        1.075988   -2.277524   -2.881860
     78          1           0        0.339632   -3.816654   -2.522443
     79          1           0       -0.346435    4.086965   -1.387866
     80          1           0       -0.360845    5.150843    0.011504
     81          1           0       -1.095178    5.636735   -1.504479
     82          1           0       -2.155512    7.197636   -0.119008
     83          1           0       -3.178297    8.441189   -0.794068
     84          1           0       -2.584505    7.215344   -1.907374
     85          1           0       -8.747876    4.039623    0.108791
     86          1           0       -9.365066    1.592393    1.515859
     87          1           0       -9.452098    3.355748    2.590793
     88          1           0       -8.653978    4.932807    2.310418
     89          1           0       -7.663363    3.620415    2.797741
     90          1           0      -10.670524    2.836273   -0.587896
     91          1           0      -10.971742    1.162602   -0.139236
     92          1           0      -10.451334    0.317228   -1.924570
     93          1           0       -8.895558    0.899330   -2.005109
     94          1           0      -10.244171    1.867984   -2.699878
     95          1           0       -9.455033   -3.017415    0.886723
     96          1           0       -8.349764   -4.348718    1.494802
     97          1           0       -8.926274   -4.202214   -0.137870
     98          1           0       -3.517538   -4.387676   -1.195031
     99          1           0       -0.417531   -7.159116    0.500259
    100          1           0       -1.825939   -7.095711    1.606481
    101          1           0       -0.668097   -5.763541    1.653318
    102          1           0        3.412038   -2.801735    0.975971
    103          1           0        3.103035   -1.093398    0.871662
    104          1           0        4.962432   -0.612546   -0.275590
    105          1           0        5.595284   -4.308149   -1.923533
    106          1           0        4.457361   -4.334187   -0.527183
    107          1           0        6.212308   -4.409911   -0.324607
    108          1           0        7.752776   -2.743472   -1.433807
    109          1           0        7.605249   -1.396825   -0.504762
    110          1           0        6.892497   -0.031706   -2.054574
    111          1           0        5.844270   -1.259846   -2.833546
    112          1           0        7.375129   -1.421287   -4.455960
    113          1           0        8.746158   -1.837774   -3.383839
    114          1           0        7.665819    1.000032   -3.582192
    115          1           0        9.389071   -0.300504   -5.512806
    116          1           0        9.286722    1.477597   -5.513612
    117          1           0        7.808626    0.478253   -5.934674
    118          1           0       10.617410    0.723476   -3.750821
    119          1           0       10.078246   -0.246547   -2.522203
    120          1           0        8.624705    1.925429   -1.804484
    121          1           0        9.786352    2.733375   -2.923614
    122          1           0       11.441246    2.750876   -1.557830
    123          1           0       11.270087    1.036055   -1.176137
    124          1           0        9.192520    1.839711    0.346781
    125          1           0        8.703670    4.057421   -0.210653
    126          1           0       10.354322    4.554731   -0.461671
    127          1           0        9.789252    4.381076    1.137964
    128          1           0       11.201142    2.760609    2.110793
    129          1           0       12.123750    1.913823    1.011931
    130          1           0       11.617193    0.223577    2.524643
    131          1           0       10.099946    0.073137    1.574634
    132          1           0        8.774329    0.357775    3.094909
    133          1           0        9.249807    1.939417    3.411421
    134          1           0       10.413609   -0.571024    4.630975
    135          1           0        8.433422    1.309649    5.573522
    136          1           0        9.636988    0.774963    6.806373
    137          1           0        8.682510   -0.374566    5.996089
    138          1           0       12.273274    0.564649    5.492463
    139          1           0       11.243873    1.929028    5.945301
    140          1           0       11.915099    1.846375    4.332366
 ---------------------------------------------------------------------

 SCF Done:  E(RwB97XD) =  -3007.89099339     A.U. after   17 cycles

 Excitation energies and oscillator strengths:

 Excited State   1:      Singlet-A      1.6889 eV  734.12 nm  f=0.3826  <S**2>=0.000
     245 -> 248       -0.18196
     246 -> 247        0.68413
     245 <- 248       -0.11483
 This state for optimization and/or second-order correction.
 Total Energy, E(TD-HF/TD-DFT) =  -3007.82892832
 Copying the excited state density for this state as the 1-particle RhoCI density.

 Excited State   2:      Singlet-A      2.1630 eV  573.20 nm  f=0.1539  <S**2>=0.000
     245 -> 247        0.65231
     246 -> 248        0.26014

 Excited State   3:      Singlet-A      3.4835 eV  355.92 nm  f=0.0056  <S**2>=0.000
     240 -> 247       -0.14116
     242 -> 247       -0.36557
     243 -> 247        0.14097
     244 -> 247        0.54187

 Excited State   4:      Singlet-A      3.5657 eV  347.72 nm  f=0.0002  <S**2>=0.000
     243 -> 247        0.56381
     243 -> 249        0.20336
     243 -> 250       -0.28600
     244 -> 247       -0.15410

 Excited State   5:      Singlet-A      3.5896 eV  345.40 nm  f=0.0918  <S**2>=0.000
     240 -> 247       -0.28192
     242 -> 247       -0.34794
     244 -> 247       -0.33748
     246 -> 248        0.37994

 The electronic state is 1-A.
 Alpha  occ. eigenvalues --  -46.94049 -19.30275 -19.28428 -19.25522 -19.24738
 Alpha  occ. eigenvalues --  -19.23852 -19.22741 -14.46561 -14.45957 -14.44683
 Alpha  occ. eigenvalues --  -14.43111 -10.43078 -10.42187 -10.41242 -10.37892
 Alpha  occ. eigenvalues --  -10.36473 -10.35331 -10.35177 -10.35055 -10.34571
 Alpha  occ. eigenvalues --  -10.34507 -10.34447 -10.33742 -10.33732 -10.33165
 Alpha  occ. eigenvalues --  -10.32678 -10.32183 -10.31990 -10.31980 -10.31935
 Alpha  occ. eigenvalues --  -10.31555 -10.31550 -10.31507 -10.31399 -10.31262
 Alpha  occ. eigenvalues --  -10.31256 -10.31210 -10.31092 -10.31048 -10.30807
 Alpha  occ. eigenvalues --  -10.30721 -10.30180 -10.29909 -10.29783 -10.29721
 Alpha  occ. eigenvalues --  -10.29563 -10.29542 -10.29507 -10.29502 -10.29497
 Alpha  occ. eigenvalues --  -10.29376 -10.29335 -10.29292 -10.29189 -10.29056
 Alpha  occ. eigenvalues --  -10.28988 -10.28953 -10.28828 -10.28768 -10.28707
 Alpha  occ. eigenvalues --  -10.28645 -10.28381 -10.28246 -10.28132 -10.28068
 Alpha  occ. eigenvalues --  -10.27990  -3.20215  -1.93825  -1.93311  -1.93239
 Alpha  occ. eigenvalues --   -1.18978  -1.15992  -1.12716  -1.11582  -1.10314
 Alpha  occ. eigenvalues --   -1.08289  -1.07513  -1.06674  -1.06102  -1.05164
 Alpha  occ. eigenvalues --   -0.93937  -0.93127  -0.91691  -0.91249  -0.91020
 Alpha  occ. eigenvalues --   -0.90795  -0.90212  -0.89254  -0.89162  -0.88982
 Alpha  occ. eigenvalues --   -0.88150  -0.87647  -0.86698  -0.85463  -0.85214
 Alpha  occ. eigenvalues --   -0.84855  -0.84433  -0.83379  -0.82746  -0.82139
 Alpha  occ. eigenvalues --   -0.81791  -0.80532  -0.79552  -0.78979  -0.78106
 Alpha  occ. eigenvalues --   -0.77732  -0.77263  -0.76901  -0.76801  -0.75856
 Alpha  occ. eigenvalues --   -0.75577  -0.74733  -0.73116  -0.72306  -0.71042
 Alpha  occ. eigenvalues --   -0.70401  -0.70330  -0.69090  -0.68845  -0.67423
 Alpha  occ. eigenvalues --   -0.67121  -0.66692  -0.66313  -0.66217  -0.66072
 Alpha  occ. eigenvalues --   -0.65277  -0.65144  -0.64361  -0.62809  -0.62584
 Alpha  occ. eigenvalues --   -0.61929  -0.61442  -0.61060  -0.60271  -0.59789
 Alpha  occ. eigenvalues --   -0.59273  -0.58907  -0.58152  -0.57675  -0.57290
 Alpha  occ. eigenvalues --   -0.57122  -0.56791  -0.56419  -0.56266  -0.55740
 Alpha  occ. eigenvalues --   -0.55659  -0.55281  -0.55230  -0.54935  -0.54708
 Alpha  occ. eigenvalues --   -0.54488  -0.54423  -0.54232  -0.54144  -0.53959
 Alpha  occ. eigenvalues --   -0.53722  -0.53362  -0.53119  -0.52907  -0.52826
 Alpha  occ. eigenvalues --   -0.52630  -0.52396  -0.51970  -0.51759  -0.51437
 Alpha  occ. eigenvalues --   -0.51349  -0.51250  -0.50936  -0.50848  -0.50700
 Alpha  occ. eigenvalues --   -0.50655  -0.50594  -0.50381  -0.50249  -0.49837
 Alpha  occ. eigenvalues --   -0.49552  -0.49277  -0.49035  -0.48655  -0.48580
 Alpha  occ. eigenvalues --   -0.48494  -0.48178  -0.47917  -0.47604  -0.47587
 Alpha  occ. eigenvalues --   -0.47451  -0.47227  -0.47106  -0.46843  -0.46600
 Alpha  occ. eigenvalues --   -0.46533  -0.46394  -0.46154  -0.46059  -0.45937
 Alpha  occ. eigenvalues --   -0.45815  -0.45466  -0.45330  -0.45216  -0.45166
 Alpha  occ. eigenvalues --   -0.44939  -0.44778  -0.44299  -0.44148  -0.43732
 Alpha  occ. eigenvalues --   -0.43662  -0.43251  -0.43189  -0.42986  -0.42925
 Alpha  occ. eigenvalues --   -0.42566  -0.42422  -0.42168  -0.41980  -0.41877
 Alpha  occ. eigenvalues --   -0.41633  -0.41563  -0.41163  -0.41060  -0.40985
 Alpha  occ. eigenvalues --   -0.40359  -0.40025  -0.39885  -0.39588  -0.39556
 Alpha  occ. eigenvalues --   -0.39170  -0.38977  -0.38683  -0.38595  -0.38354
 Alpha  occ. eigenvalues --   -0.38081  -0.37628  -0.36879  -0.36519  -0.36207
 Alpha  occ. eigenvalues --   -0.35726  -0.35559  -0.35146  -0.34151  -0.33321
 Alpha  occ. eigenvalues --   -0.33051  -0.32626  -0.31975  -0.31592  -0.25741
 Alpha  occ. eigenvalues --   -0.23141
 Alpha virt. eigenvalues --   -0.07097   0.00730   0.02071   0.04706   0.06572
 Alpha virt. eigenvalues --    0.07072   0.07405   0.07728   0.08474   0.08820
 Alpha virt. eigenvalues --    0.10153   0.10478   0.11342   0.11817   0.12432

 Mulliken charges:
               1
     1  Mg   0.985673
     2  C   -0.034869
     3  C   -0.089381
     4  C   -0.081694
     5  C   -0.113287
     6  N   -0.313556
     7  C    0.001269
     8  C   -0.147333
     9  C   -0.114483
    10  C    0.038770
    11  C    0.062254
    12  C    0.053912
    13  C    0.040320
    14  C    0.179110
    15  O   -0.250383
    16  O   -0.366644
    17  N   -0.477291
    18  C    0.189684
    19  C   -0.158624
    20  C   -0.109144
    21  C    0.127290
    22  C    0.048987
    23  C    0.101581
    24  O   -0.227815
    25  C   -0.029485
    26  N   -0.378808
    27  C    0.080929
    28  C   -0.097481
    29  C   -0.032525
    30  C    0.053131
    31  C    0.021210
    32  C   -0.006286
    33  C   -0.048418
    34  N   -0.374730
    35  C    0.116209
    36  C   -0.174794
    37  C   -0.022148
    38  C    0.100436
    39  C    0.084964
    40  C    0.096207
    41  O   -0.203655
    42  C   -0.019289
    43  C    0.249070
    44  O   -0.253555
    45  O   -0.403357
    46  C    0.152785
    47  C    0.249990
    48  C   -0.161012
    49  C   -0.185488
    50  C    0.040340
    51  C    0.041239
    52  C   -0.031811
    53  C    0.040274
    54  C   -0.218538
    55  C    0.002441
    56  C   -0.015118
    57  C   -0.020426
    58  C    0.014252
    59  C   -0.182880
    60  C   -0.016735
    61  C    0.050901
    62  C   -0.026592
    63  C   -0.016220
    64  C   -0.219508
    65  C   -0.003794
    66  C   -0.003041
    67  H    0.004479
    68  H    0.017661
    69  H   -0.007268
    70  H    0.045221
    71  H    0.006010
    72  H    0.030670
    73  H    0.076368
    74  H    0.035616
    75  H    0.035221
    76  H    0.039783
    77  H    0.046692
    78  H    0.052335
    79  H    0.040808
    80  H    0.065260
    81  H    0.030794
    82  H    0.059083
    83  H    0.056014
    84  H    0.081199
    85  H    0.036982
    86  H    0.030717
    87  H    0.038338
    88  H    0.045199
    89  H    0.041259
    90  H    0.033746
    91  H    0.028016
    92  H    0.018057
    93  H    0.047821
    94  H    0.040680
    95  H    0.015142
    96  H    0.066388
    97  H    0.046042
    98  H    0.067220
    99  H    0.063312
   100  H    0.049687
   101  H    0.055967
   102  H    0.065982
   103  H    0.031359
   104  H    0.013109
   105  H    0.044898
   106  H    0.053546
   107  H    0.032453
   108  H    0.004039
   109  H    0.029609
   110  H    0.027666
   111  H    0.043011
   112  H    0.009821
   113  H    0.029759
   114  H    0.018973
   115  H    0.023693
   116  H    0.037071
   117  H    0.033908
   118  H    0.008949
   119  H    0.001308
   120  H    0.023365
   121  H    0.020431
   122  H    0.023051
   123  H    0.018475
   124  H    0.018231
   125  H    0.032197
   126  H    0.024882
   127  H    0.025902
   128  H    0.000618
   129  H    0.011073
   130  H    0.035302
   131  H    0.019182
   132  H    0.013077
   133  H    0.012047
   134  H    0.022637
   135  H    0.023771
   136  H    0.026641
   137  H    0.021829
   138  H    0.035544
   139  H    0.025777
   140  H    0.023274
 Sum of Mulliken charges =  -0.00000

 Dipole moment (field-independent basis, Debye):
    X=              5.0682    Y=              5.2428    Z=             -2.5376  Tot=              7.7209
 Quadrupole moment (field-independent basis, Debye-Ang):
   XX=           -375.0917   YY=           -426.3744   ZZ=           -403.4835
   XY=            -19.9185   XZ=              2.5170   YZ=              6.8336

 Normal termination of Gaussian 16 at Thu May  5 01:52:05 2022.
