 Gaussian 16, Revision A.03,
 Gaussian 16:  ES64L-G16RevA.03 25-Dec-2016

 --------------------
 #p ZINDO=(nstates=5)
 --------------------

 ----------------------------
 step_501_chromophore_9 ZINDO
 ----------------------------
 Symbolic Z-matrix:
 Charge =  0 Multiplicity = 1

                         Standard orientation:
 ---------------------------------------------------------------------
 Center     Atomic      Atomic             Coordinates (Angstroms)
 Number     Number       Type             X           Y           Z
 ---------------------------------------------------------------------
      1         12           0       -4.811587    0.757920    0.014887
      2          6           0       -3.795660   -2.559812   -0.055247
      3          6           0       -1.594119    1.762096   -0.101975
      4          6           0       -5.906370    3.911152    0.266797
      5          6           0       -8.109573   -0.384956    0.296130
      6          7           0       -2.934363   -0.359392   -0.099688
      7          6           0       -2.742452   -1.652190   -0.209655
      8          6           0       -1.170425   -1.893873   -0.363897
      9          6           0       -0.692016   -0.669998    0.388242
     10          6           0       -1.798698    0.366957    0.015009
     11          6           0       -0.536732   -0.991360    1.890349
     12          6           0       -0.787341   -2.137615   -1.886755
     13          6           0        0.559096   -2.835635   -2.101802
     14          6           0        1.491088   -3.009885   -0.915121
     15          8           0        1.486137   -3.914868   -0.127679
     16          8           0        2.388880   -1.993038   -0.855359
     17          7           0       -3.907300    2.563902   -0.104472
     18          6           0       -2.534974    2.764707   -0.233052
     19          6           0       -2.317089    4.216628   -0.508023
     20          6           0       -3.599222    4.892575   -0.335540
     21          6           0       -4.489636    3.759234    0.030698
     22          6           0       -0.958391    4.794163   -0.826808
     23          6           0       -4.020697    6.422438   -0.525665
     24          8           0       -5.180631    6.833267   -0.413163
     25          6           0       -2.910177    7.388709   -0.881579
     26          7           0       -6.664502    1.614927    0.352670
     27          6           0       -6.872770    2.926385    0.432950
     28          6           0       -8.349718    3.283687    0.785470
     29          6           0       -9.020462    1.924976    0.537390
     30          6           0       -7.885515    0.973925    0.321325
     31          6           0       -8.556278    3.852319    2.217141
     32          6           0      -10.213789    1.849148   -0.515725
     33          6           0       -9.913016    1.262826   -1.855875
     34          7           0       -5.788923   -1.065466    0.313520
     35          6           0       -7.104183   -1.386561    0.343541
     36          6           0       -7.336559   -2.780643    0.475729
     37          6           0       -6.021046   -3.319066    0.315647
     38          6           0       -5.188260   -2.227506    0.221380
     39          6           0       -8.564356   -3.621702    0.711003
     40          6           0       -5.209678   -4.496303    0.225095
     41          8           0       -5.483026   -5.675963    0.279575
     42          6           0       -3.755312   -4.089779   -0.174187
     43          6           0       -2.799207   -4.734757    0.730792
     44          8           0       -2.790297   -4.522380    1.933786
     45          8           0       -2.021640   -5.749141    0.115817
     46          6           0       -1.130149   -6.508490    1.006574
     47          6           0        3.375823   -1.965652    0.277682
     48          6           0        4.781779   -1.686970   -0.296648
     49          6           0        5.698812   -2.512314   -0.725102
     50          6           0        5.408631   -3.961433   -0.906739
     51          6           0        7.040998   -1.934682   -1.266717
     52          6           0        6.840897   -1.047477   -2.444900
     53          6           0        7.926257   -1.140452   -3.558531
     54          6           0        8.432747    0.284630   -3.877840
     55          6           0        8.730135    0.552838   -5.357236
     56          6           0        9.759934    0.631572   -3.084156
     57          6           0        9.619139    1.892921   -2.250194
     58          6           0       10.745530    1.991935   -1.199523
     59          6           0       10.132141    2.376988    0.213746
     60          6           0        9.720780    3.916874    0.154340
     61          6           0       11.098621    1.962134    1.376222
     62          6           0       10.727197    0.740736    2.166057
     63          6           0        9.671485    0.941526    3.295749
     64          6           0       10.226049    0.500029    4.709590
     65          6           0        9.194243    0.572897    5.830189
     66          6           0       11.496378    1.242926    5.137665
     67          1           0       -0.540737    2.044607   -0.073708
     68          1           0       -6.225557    4.947538    0.389068
     69          1           0       -9.144851   -0.702543    0.434347
     70          1           0       -0.892354   -2.828009    0.122262
     71          1           0        0.232381   -0.239164    0.004384
     72          1           0        0.542762   -0.920577    2.027897
     73          1           0       -0.890820   -1.989513    2.151398
     74          1           0       -0.993138   -0.156673    2.421954
     75          1           0       -0.742465   -1.186665   -2.418337
     76          1           0       -1.549778   -2.821899   -2.259704
     77          1           0        1.075988   -2.277524   -2.881860
     78          1           0        0.339632   -3.816654   -2.522443
     79          1           0       -0.346435    4.086965   -1.387866
     80          1           0       -0.360845    5.150843    0.011504
     81          1           0       -1.095178    5.636735   -1.504479
     82          1           0       -2.155512    7.197636   -0.119008
     83          1           0       -3.178297    8.441189   -0.794068
     84          1           0       -2.584505    7.215344   -1.907374
     85          1           0       -8.747876    4.039623    0.108791
     86          1           0       -9.365066    1.592393    1.515859
     87          1           0       -9.452098    3.355748    2.590793
     88          1           0       -8.653978    4.932807    2.310418
     89          1           0       -7.663363    3.620415    2.797741
     90          1           0      -10.670524    2.836273   -0.587896
     91          1           0      -10.971742    1.162602   -0.139236
     92          1           0      -10.451334    0.317228   -1.924570
     93          1           0       -8.895558    0.899330   -2.005109
     94          1           0      -10.244171    1.867984   -2.699878
     95          1           0       -9.455033   -3.017415    0.886723
     96          1           0       -8.349764   -4.348718    1.494802
     97          1           0       -8.926274   -4.202214   -0.137870
     98          1           0       -3.517538   -4.387676   -1.195031
     99          1           0       -0.417531   -7.159116    0.500259
    100          1           0       -1.825939   -7.095711    1.606481
    101          1           0       -0.668097   -5.763541    1.653318
    102          1           0        3.412038   -2.801735    0.975971
    103          1           0        3.103035   -1.093398    0.871662
    104          1           0        4.962432   -0.612546   -0.275590
    105          1           0        5.595284   -4.308149   -1.923533
    106          1           0        4.457361   -4.334187   -0.527183
    107          1           0        6.212308   -4.409911   -0.324607
    108          1           0        7.752776   -2.743472   -1.433807
    109          1           0        7.605249   -1.396825   -0.504762
    110          1           0        6.892497   -0.031706   -2.054574
    111          1           0        5.844270   -1.259846   -2.833546
    112          1           0        7.375129   -1.421287   -4.455960
    113          1           0        8.746158   -1.837774   -3.383839
    114          1           0        7.665819    1.000032   -3.582192
    115          1           0        9.389071   -0.300504   -5.512806
    116          1           0        9.286722    1.477597   -5.513612
    117          1           0        7.808626    0.478253   -5.934674
    118          1           0       10.617410    0.723476   -3.750821
    119          1           0       10.078246   -0.246547   -2.522203
    120          1           0        8.624705    1.925429   -1.804484
    121          1           0        9.786352    2.733375   -2.923614
    122          1           0       11.441246    2.750876   -1.557830
    123          1           0       11.270087    1.036055   -1.176137
    124          1           0        9.192520    1.839711    0.346781
    125          1           0        8.703670    4.057421   -0.210653
    126          1           0       10.354322    4.554731   -0.461671
    127          1           0        9.789252    4.381076    1.137964
    128          1           0       11.201142    2.760609    2.110793
    129          1           0       12.123750    1.913823    1.011931
    130          1           0       11.617193    0.223577    2.524643
    131          1           0       10.099946    0.073137    1.574634
    132          1           0        8.774329    0.357775    3.094909
    133          1           0        9.249807    1.939417    3.411421
    134          1           0       10.413609   -0.571024    4.630975
    135          1           0        8.433422    1.309649    5.573522
    136          1           0        9.636988    0.774963    6.806373
    137          1           0        8.682510   -0.374566    5.996089
    138          1           0       12.273274    0.564649    5.492463
    139          1           0       11.243873    1.929028    5.945301
    140          1           0       11.915099    1.846375    4.332366
 ---------------------------------------------------------------------

 SCF Done:  E(RZINDO/S) =  -474.485537120     A.U. after   19 cycles

 Excitation energies and oscillator strengths:

 Excited State   1:      Singlet-A      1.2957 eV  956.87 nm  f=0.5897  <S**2>=0.000
     175 ->178         0.17399
     176 ->177         0.66729
 This state for optimization and/or second-order correction.
 Total Energy, E(CIS/TDA) =  -474.437920178
 Copying the excited state density for this state as the 1-particle RhoCI density.

 Excited State   2:      Singlet-A      1.9314 eV  641.93 nm  f=0.0833  <S**2>=0.000
     175 ->177         0.57004
     176 ->178        -0.38077

 Excited State   3:      Singlet-A      2.9839 eV  415.51 nm  f=0.0830  <S**2>=0.000
     171 ->177         0.30962
     171 ->178        -0.15807
     171 ->179         0.16558
     171 ->180         0.40795
     171 ->185         0.16921
     171 ->188         0.17763
     175 ->177         0.10535
     176 ->178         0.16627

 Excited State   4:      Singlet-A      3.0202 eV  410.52 nm  f=0.9153  <S**2>=0.000
     171 ->180        -0.12645
     175 ->177         0.34556
     176 ->178         0.54016
     176 ->180        -0.10098

 Excited State   5:      Singlet-A      3.0779 eV  402.82 nm  f=0.0004  <S**2>=0.000
     167 ->177         0.24645
     167 ->179        -0.44278
     167 ->180         0.16598
     167 ->185        -0.18988
     168 ->177         0.15547
     168 ->179        -0.25205
     168 ->185        -0.10776

 The electronic state is 1-A.
 Alpha  occ. eigenvalues --   -1.86680  -1.83229  -1.81773  -1.73755  -1.71766
 Alpha  occ. eigenvalues --   -1.70455  -1.65786  -1.61263  -1.58581  -1.57606
 Alpha  occ. eigenvalues --   -1.55927  -1.51812  -1.48122  -1.47148  -1.46912
 Alpha  occ. eigenvalues --   -1.43963  -1.42335  -1.39833  -1.39323  -1.39084
 Alpha  occ. eigenvalues --   -1.36295  -1.34481  -1.33646  -1.32122  -1.29714
 Alpha  occ. eigenvalues --   -1.27681  -1.24413  -1.22947  -1.21608  -1.18325
 Alpha  occ. eigenvalues --   -1.16746  -1.15834  -1.15128  -1.13816  -1.13680
 Alpha  occ. eigenvalues --   -1.12509  -1.11636  -1.09594  -1.05305  -1.03242
 Alpha  occ. eigenvalues --   -1.02485  -1.00655  -0.98476  -0.98207  -0.97763
 Alpha  occ. eigenvalues --   -0.96426  -0.95339  -0.94332  -0.93154  -0.92744
 Alpha  occ. eigenvalues --   -0.90505  -0.89245  -0.89137  -0.86885  -0.86748
 Alpha  occ. eigenvalues --   -0.85479  -0.84594  -0.82860  -0.81171  -0.80310
 Alpha  occ. eigenvalues --   -0.79017  -0.78687  -0.77496  -0.76976  -0.76236
 Alpha  occ. eigenvalues --   -0.76135  -0.75377  -0.75078  -0.74156  -0.73353
 Alpha  occ. eigenvalues --   -0.72969  -0.72678  -0.72641  -0.71994  -0.71305
 Alpha  occ. eigenvalues --   -0.70647  -0.68963  -0.68663  -0.68363  -0.68179
 Alpha  occ. eigenvalues --   -0.67491  -0.67154  -0.66915  -0.66449  -0.65730
 Alpha  occ. eigenvalues --   -0.64884  -0.64520  -0.64133  -0.63762  -0.63478
 Alpha  occ. eigenvalues --   -0.63216  -0.62922  -0.62582  -0.62258  -0.61713
 Alpha  occ. eigenvalues --   -0.61336  -0.61100  -0.60955  -0.60634  -0.60199
 Alpha  occ. eigenvalues --   -0.59948  -0.59580  -0.59093  -0.58678  -0.58267
 Alpha  occ. eigenvalues --   -0.58109  -0.57599  -0.57050  -0.56917  -0.56637
 Alpha  occ. eigenvalues --   -0.56403  -0.55863  -0.55727  -0.55085  -0.54743
 Alpha  occ. eigenvalues --   -0.54464  -0.53971  -0.53026  -0.52794  -0.52639
 Alpha  occ. eigenvalues --   -0.52406  -0.52119  -0.51971  -0.51667  -0.51400
 Alpha  occ. eigenvalues --   -0.51272  -0.50751  -0.50304  -0.49927  -0.49764
 Alpha  occ. eigenvalues --   -0.49656  -0.49303  -0.49174  -0.49099  -0.48964
 Alpha  occ. eigenvalues --   -0.48446  -0.48203  -0.47827  -0.47786  -0.47661
 Alpha  occ. eigenvalues --   -0.47425  -0.47063  -0.46975  -0.46694  -0.46510
 Alpha  occ. eigenvalues --   -0.46301  -0.46101  -0.45750  -0.45651  -0.45554
 Alpha  occ. eigenvalues --   -0.45181  -0.44912  -0.44467  -0.44316  -0.44161
 Alpha  occ. eigenvalues --   -0.44126  -0.43058  -0.42488  -0.42224  -0.42023
 Alpha  occ. eigenvalues --   -0.41637  -0.41352  -0.40575  -0.39070  -0.38800
 Alpha  occ. eigenvalues --   -0.37379  -0.36993  -0.36508  -0.34542  -0.33934
 Alpha  occ. eigenvalues --   -0.33672  -0.33267  -0.32156  -0.31354  -0.26411
 Alpha  occ. eigenvalues --   -0.21866
 Alpha virt. eigenvalues --   -0.08447  -0.01692  -0.00663   0.01705   0.02284
 Alpha virt. eigenvalues --    0.03120   0.03339   0.03477   0.04576   0.04977
 Alpha virt. eigenvalues --    0.05206   0.06517   0.07082   0.07838   0.08337

 Mulliken charges:
               1
     1  Mg   0.421391
     2  C   -0.035460
     3  C   -0.066267
     4  C   -0.100818
     5  C   -0.079893
     6  N   -0.258086
     7  C    0.090730
     8  C    0.000923
     9  C    0.015241
    10  C    0.137908
    11  C   -0.045485
    12  C   -0.019857
    13  C    0.004480
    14  C    0.479807
    15  O   -0.516078
    16  O   -0.275846
    17  N   -0.322168
    18  C    0.119251
    19  C    0.018951
    20  C   -0.057204
    21  C    0.166662
    22  C   -0.040989
    23  C    0.337627
    24  O   -0.503899
    25  C   -0.025402
    26  N   -0.277046
    27  C    0.174154
    28  C    0.003471
    29  C   -0.002364
    30  C    0.109740
    31  C   -0.051021
    32  C   -0.022516
    33  C   -0.054039
    34  N   -0.311976
    35  C    0.091923
    36  C   -0.003088
    37  C   -0.064846
    38  C    0.111232
    39  C   -0.037432
    40  C    0.342551
    41  O   -0.526729
    42  C    0.058349
    43  C    0.488729
    44  O   -0.520352
    45  O   -0.287219
    46  C    0.072886
    47  C    0.098752
    48  C   -0.092235
    49  C    0.015378
    50  C   -0.040516
    51  C   -0.019915
    52  C   -0.027674
    53  C   -0.035822
    54  C   -0.020948
    55  C   -0.063142
    56  C   -0.040047
    57  C   -0.035471
    58  C   -0.038504
    59  C   -0.011646
    60  C   -0.061051
    61  C   -0.028380
    62  C   -0.030611
    63  C   -0.034993
    64  C   -0.011718
    65  C   -0.057221
    66  C   -0.053427
    67  H    0.026925
    68  H    0.041932
    69  H    0.025790
    70  H    0.037600
    71  H    0.014403
    72  H    0.017596
    73  H    0.049110
    74  H    0.025673
    75  H    0.027330
    76  H    0.029610
    77  H    0.027723
    78  H    0.037947
    79  H    0.023441
    80  H    0.039708
    81  H    0.022259
    82  H    0.033842
    83  H    0.037572
    84  H    0.046339
    85  H    0.028850
    86  H    0.027197
    87  H    0.024247
    88  H    0.025439
    89  H    0.023124
    90  H    0.020738
    91  H    0.018293
    92  H    0.010116
    93  H    0.026771
    94  H    0.019236
    95  H    0.015103
    96  H    0.039464
    97  H    0.028689
    98  H    0.050637
    99  H    0.043163
   100  H    0.041200
   101  H    0.047623
   102  H    0.061338
   103  H    0.027264
   104  H    0.015239
   105  H    0.029733
   106  H    0.037818
   107  H    0.019966
   108  H    0.013058
   109  H    0.019418
   110  H    0.022089
   111  H    0.025501
   112  H    0.011338
   113  H    0.033715
   114  H    0.016115
   115  H    0.018838
   116  H    0.023905
   117  H    0.018180
   118  H    0.014716
   119  H    0.013642
   120  H    0.025937
   121  H    0.017722
   122  H    0.021612
   123  H    0.018852
   124  H    0.023333
   125  H    0.018157
   126  H    0.019479
   127  H    0.013638
   128  H    0.011867
   129  H    0.014457
   130  H    0.027116
   131  H    0.015103
   132  H    0.010972
   133  H    0.020054
   134  H    0.014679
   135  H    0.017897
   136  H    0.017954
   137  H    0.010320
   138  H    0.019352
   139  H    0.017896
   140  H    0.016307
 Sum of Mulliken charges =  -0.00000

 Dipole moment (field-independent basis, Debye):
    X=              7.8350    Y=              8.1350    Z=             -3.9704  Tot=             11.9721
 N-N= 4.416344493973D+03 E-N= 0.000000000000D+00  KE=-9.507345652851D+03
 Leave Link  601 at Thu May  5 02:06:50 2022, MaxMem=  6710886400 cpu:               0.8 elap:               0.0
 (Enter /sw/apps/gaussian-16.0/g16/l9999.exe)
 1\1\GINC-BP1-COMPUTE123\SP\RZINDO CIS\STO-3G\C55H74Mg1N4O6\OF15641\05-
 May-2022\0\\#p ZINDO=(nstates=5)\\step_501_chromophore_9 ZINDO\\0,1\Mg
 ,0,35.262,1.752,29.962\C,0,32.855,2.583,32.32\C,0,37.642,1.801,32.351\
 C,0,37.516,1.125,27.568\C,0,32.748,1.884,27.528\N,0,35.166,2.133,32.11
 4\C,0,34.119,2.352,32.873\C,0,34.632,2.453,34.383\C,0,36.033,2.952,34.
 099\C,0,36.352,2.214,32.76\C,0,36.052,4.495,34.049\C,0,34.375,1.088,35
 .155\C,0,34.376,1.209,36.682\C,0,34.844,2.509,37.313\O,0,34.174,3.479,

 Normal termination of Gaussian 16 at Thu May  5 02:06:50 2022.
