 Gaussian 16, Revision A.03,
 Gaussian 16:  ES64L-G16RevA.03 25-Dec-2016

 ------------------------------
 #p blyp/Def2SVP td=(nstates=5)
 ------------------------------

 -------------------------------------------------
 step_451_chromophore_1 TDDFT with blyp functional
 -------------------------------------------------
 Symbolic Z-matrix:
 Charge =  0 Multiplicity = 1

                         Standard orientation:
 ---------------------------------------------------------------------
 Center     Atomic      Atomic             Coordinates (Angstroms)
 Number     Number       Type             X           Y           Z
 ---------------------------------------------------------------------
      1         12           0        6.019418    0.514674    0.098178
      2          6           0        4.043879   -2.291602   -0.498244
      3          6           0        3.717550    2.571666   -1.453237
      4          6           0        8.173300    3.111286    0.339550
      5          6           0        8.751013   -1.649897    0.785613
      6          7           0        4.144486    0.148122   -0.904903
      7          6           0        3.438134   -1.067288   -0.930959
      8          6           0        2.043783   -0.800083   -1.444056
      9          6           0        2.151864    0.663084   -2.121042
     10          6           0        3.471120    1.187907   -1.455967
     11          6           0        2.113877    0.589288   -3.757914
     12          6           0        0.899579   -0.919287   -0.356173
     13          6           0       -0.367532   -1.667281   -0.809439
     14          6           0       -1.543604   -1.698426    0.146948
     15          8           0       -1.605467   -1.152639    1.226203
     16          8           0       -2.550854   -2.532378   -0.342226
     17          7           0        5.894811    2.566211   -0.371305
     18          6           0        4.812073    3.241859   -0.920340
     19          6           0        5.141981    4.665948   -1.015135
     20          6           0        6.395386    4.825503   -0.383418
     21          6           0        6.900946    3.479013   -0.084184
     22          6           0        4.167516    5.644358   -1.805066
     23          6           0        7.128269    6.109651   -0.153146
     24          8           0        8.264609    6.205250    0.250568
     25          6           0        6.335376    7.472889   -0.412427
     26          7           0        8.167275    0.731745    0.514478
     27          6           0        8.809687    1.899632    0.618245
     28          6           0       10.302206    1.634372    0.828897
     29          6           0       10.325309    0.158646    1.376034
     30          6           0        8.970773   -0.324534    0.920284
     31          6           0       11.257134    1.988260   -0.405888
     32          6           0       10.710038    0.156455    2.867656
     33          6           0        9.604544    0.456520    3.942623
     34          7           0        6.358899   -1.573130    0.212679
     35          6           0        7.508892   -2.262843    0.553867
     36          6           0        7.233924   -3.691326    0.354295
     37          6           0        5.885948   -3.806758    0.015929
     38          6           0        5.403041   -2.444966   -0.090161
     39          6           0        8.234719   -4.860702    0.375907
     40          6           0        4.705566   -4.651157   -0.263195
     41          8           0        4.577711   -5.850029   -0.274723
     42          6           0        3.567795   -3.769323   -0.659165
     43          6           0        2.367831   -4.206047    0.120657
     44          8           0        2.177221   -3.751320    1.240928
     45          8           0        1.599111   -4.954459   -0.708918
     46          6           0        0.404979   -5.640710   -0.148206
     47          6           0       -3.730258   -2.862663    0.449306
     48          6           0       -4.961487   -2.142215   -0.152300
     49          6           0       -6.200436   -2.666054   -0.364969
     50          6           0       -6.527381   -4.170273   -0.179553
     51          6           0       -7.362865   -1.950759   -1.008252
     52          6           0       -8.163687   -0.980298   -0.120752
     53          6           0       -8.069826    0.479034   -0.508074
     54          6           0       -9.423661    1.104996   -0.806263
     55          6           0       -9.391189    1.952801   -2.102697
     56          6           0       -9.984346    2.089319    0.344066
     57          6           0      -11.450197    1.735104    0.775635
     58          6           0      -11.657029    1.754954    2.216702
     59          6           0      -13.107293    2.327833    2.775773
     60          6           0      -12.881801    2.620770    4.307506
     61          6           0      -14.219567    1.302398    2.570953
     62          6           0      -14.992736    1.480836    1.264708
     63          6           0      -14.930243    0.306869    0.281175
     64          6           0      -14.944703    0.814215   -1.190595
     65          6           0      -16.262942    0.523344   -1.939064
     66          6           0      -13.655150    0.385453   -2.078854
     67          1           0        2.894677    3.156838   -1.869514
     68          1           0        8.858659    3.911234    0.627705
     69          1           0        9.586838   -2.283315    1.090599
     70          1           0        1.951619   -1.562033   -2.217752
     71          1           0        1.317437    1.308639   -1.846271
     72          1           0        2.117477   -0.470555   -4.010853
     73          1           0        3.019350    1.040088   -4.163467
     74          1           0        1.207927    1.045321   -4.157591
     75          1           0        0.672973    0.087701   -0.006670
     76          1           0        1.317144   -1.419899    0.517138
     77          1           0       -0.204724   -2.723473   -1.020516
     78          1           0       -0.652508   -1.157652   -1.729357
     79          1           0        3.315554    4.995026   -2.005176
     80          1           0        4.712886    6.117817   -2.621779
     81          1           0        3.833778    6.431957   -1.129993
     82          1           0        7.050811    8.236902   -0.107152
     83          1           0        5.413290    7.493868    0.167945
     84          1           0        6.050532    7.505739   -1.463351
     85          1           0       10.636006    2.319148    1.608263
     86          1           0       11.093364   -0.243283    0.715611
     87          1           0       10.552077    2.521499   -1.043068
     88          1           0       11.678391    1.093607   -0.863914
     89          1           0       11.939575    2.793938   -0.135159
     90          1           0       11.501536    0.901411    2.948883
     91          1           0       11.122858   -0.823202    3.109956
     92          1           0        9.830547    1.425722    4.387221
     93          1           0        9.653666   -0.201857    4.809891
     94          1           0        8.579685    0.412272    3.574379
     95          1           0        8.379233   -5.115018    1.425692
     96          1           0        9.220142   -4.459520    0.134045
     97          1           0        7.913583   -5.676700   -0.271696
     98          1           0        3.431640   -3.946002   -1.726824
     99          1           0        0.467522   -6.709426   -0.352412
    100          1           0       -0.422770   -5.293150   -0.766174
    101          1           0        0.123094   -5.487536    0.893274
    102          1           0       -3.681736   -2.495414    1.474660
    103          1           0       -3.793313   -3.950413    0.433521
    104          1           0       -4.653436   -1.268921   -0.726791
    105          1           0       -5.772739   -4.709061    0.393156
    106          1           0       -6.760914   -4.660164   -1.125433
    107          1           0       -7.351671   -4.320483    0.517178
    108          1           0       -8.075574   -2.708141   -1.333839
    109          1           0       -6.948728   -1.439066   -1.877362
    110          1           0       -7.858744   -1.047617    0.923391
    111          1           0       -9.179516   -1.368076   -0.191508
    112          1           0       -7.375452    0.681217   -1.323433
    113          1           0       -7.644084    0.952111    0.376397
    114          1           0      -10.162417    0.340968   -1.045946
    115          1           0      -10.390956    2.149673   -2.487717
    116          1           0       -8.880351    1.463223   -2.932009
    117          1           0       -8.817256    2.871400   -1.981192
    118          1           0      -10.001848    3.161253    0.143407
    119          1           0       -9.362475    1.913690    1.221711
    120          1           0      -11.688319    0.715006    0.475060
    121          1           0      -12.244287    2.334725    0.331114
    122          1           0      -10.981371    2.386414    2.793956
    123          1           0      -11.559299    0.755143    2.641707
    124          1           0      -13.281190    3.262728    2.242946
    125          1           0      -13.619721    3.279935    4.765485
    126          1           0      -11.934853    3.160315    4.310645
    127          1           0      -12.900712    1.693094    4.880610
    128          1           0      -14.890274    1.343261    3.428657
    129          1           0      -13.847702    0.281127    2.488152
    130          1           0      -14.830840    2.467625    0.832299
    131          1           0      -16.064484    1.523700    1.456797
    132          1           0      -15.784839   -0.340995    0.473660
    133          1           0      -13.971951   -0.167311    0.493500
    134          1           0      -14.887802    1.901891   -1.239857
    135          1           0      -16.057912    0.202654   -2.960277
    136          1           0      -16.764504    1.488615   -2.013653
    137          1           0      -16.910863   -0.195299   -1.439073
    138          1           0      -13.631020   -0.602744   -2.538807
    139          1           0      -12.678030    0.401784   -1.597540
    140          1           0      -13.713222    1.055285   -2.936494
 ---------------------------------------------------------------------

 SCF Done:  E(RB-LYP) =  -3007.38082805     A.U. after   21 cycles

 Excitation energies and oscillator strengths:

 Excited State   1:      Singlet-A      1.8276 eV  678.39 nm  f=0.3092  <S**2>=0.000
     245 -> 248        0.19935
     246 -> 247        0.68930
     246 <- 247       -0.14505
 This state for optimization and/or second-order correction.
 Total Energy, E(TD-HF/TD-DFT) =  -3007.31366376
 Copying the excited state density for this state as the 1-particle RhoCI density.

 Excited State   2:      Singlet-A      1.9949 eV  621.51 nm  f=0.0066  <S**2>=0.000
     244 -> 247        0.65718
     245 -> 247       -0.24296

 Excited State   3:      Singlet-A      2.0239 eV  612.60 nm  f=0.0002  <S**2>=0.000
     243 -> 247        0.70562

 Excited State   4:      Singlet-A      2.0610 eV  601.57 nm  f=0.0521  <S**2>=0.000
     244 -> 247        0.25633
     245 -> 247        0.59307
     246 -> 248       -0.26899

 Excited State   5:      Singlet-A      2.3331 eV  531.42 nm  f=0.0000  <S**2>=0.000
     242 -> 247        0.70710

 The electronic state is 1-A.
 Alpha  occ. eigenvalues --  -46.27191 -18.83617 -18.81424 -18.77043 -18.76950
 Alpha  occ. eigenvalues --  -18.75889 -18.75317 -14.03441 -14.02686 -14.01059
 Alpha  occ. eigenvalues --  -14.00805 -10.04365 -10.04220  -9.99828  -9.99336
 Alpha  occ. eigenvalues --   -9.98475  -9.98099  -9.97178  -9.96858  -9.96041
 Alpha  occ. eigenvalues --   -9.95942  -9.95633  -9.95504  -9.95368  -9.94660
 Alpha  occ. eigenvalues --   -9.94488  -9.94469  -9.94326  -9.94244  -9.93943
 Alpha  occ. eigenvalues --   -9.93932  -9.93599  -9.93393  -9.93329  -9.93243
 Alpha  occ. eigenvalues --   -9.93104  -9.93050  -9.93005  -9.92930  -9.92850
 Alpha  occ. eigenvalues --   -9.92822  -9.92440  -9.92388  -9.92376  -9.92369
 Alpha  occ. eigenvalues --   -9.92357  -9.92193  -9.92082  -9.92038  -9.91903
 Alpha  occ. eigenvalues --   -9.91845  -9.91766  -9.91685  -9.91614  -9.91472
 Alpha  occ. eigenvalues --   -9.91054  -9.91012  -9.90943  -9.90845  -9.90802
 Alpha  occ. eigenvalues --   -9.90780  -9.90620  -9.90609  -9.90598  -9.90473
 Alpha  occ. eigenvalues --   -9.90368  -2.91717  -1.72149  -1.71568  -1.71453
 Alpha  occ. eigenvalues --   -0.98090  -0.97122  -0.92249  -0.92215  -0.90700
 Alpha  occ. eigenvalues --   -0.89951  -0.86226  -0.85485  -0.85020  -0.84118
 Alpha  occ. eigenvalues --   -0.74908  -0.73561  -0.72696  -0.72343  -0.72040
 Alpha  occ. eigenvalues --   -0.71549  -0.71194  -0.70570  -0.70354  -0.69840
 Alpha  occ. eigenvalues --   -0.69408  -0.68700  -0.68033  -0.67640  -0.66777
 Alpha  occ. eigenvalues --   -0.66396  -0.66001  -0.65211  -0.64897  -0.64251
 Alpha  occ. eigenvalues --   -0.63468  -0.62486  -0.62082  -0.62016  -0.60926
 Alpha  occ. eigenvalues --   -0.60450  -0.59895  -0.59816  -0.59231  -0.58784
 Alpha  occ. eigenvalues --   -0.58444  -0.57530  -0.56839  -0.55474  -0.55121
 Alpha  occ. eigenvalues --   -0.53991  -0.53179  -0.52825  -0.52268  -0.51396
 Alpha  occ. eigenvalues --   -0.51091  -0.50792  -0.50758  -0.50322  -0.50020
 Alpha  occ. eigenvalues --   -0.49719  -0.48948  -0.48872  -0.48504  -0.46591
 Alpha  occ. eigenvalues --   -0.46176  -0.45772  -0.45366  -0.45075  -0.44642
 Alpha  occ. eigenvalues --   -0.43727  -0.43294  -0.42987  -0.42506  -0.42367
 Alpha  occ. eigenvalues --   -0.41905  -0.41739  -0.41402  -0.41263  -0.41227
 Alpha  occ. eigenvalues --   -0.40967  -0.40594  -0.40181  -0.40098  -0.39976
 Alpha  occ. eigenvalues --   -0.39574  -0.39415  -0.39278  -0.39158  -0.38886
 Alpha  occ. eigenvalues --   -0.38876  -0.38640  -0.38511  -0.38190  -0.37915
 Alpha  occ. eigenvalues --   -0.37788  -0.37480  -0.37368  -0.37030  -0.36937
 Alpha  occ. eigenvalues --   -0.36849  -0.36686  -0.36620  -0.36528  -0.36476
 Alpha  occ. eigenvalues --   -0.36370  -0.36103  -0.36055  -0.35976  -0.35741
 Alpha  occ. eigenvalues --   -0.35470  -0.35393  -0.35141  -0.34844  -0.34518
 Alpha  occ. eigenvalues --   -0.34432  -0.34126  -0.34005  -0.33632  -0.33601
 Alpha  occ. eigenvalues --   -0.33467  -0.33274  -0.33191  -0.33129  -0.32963
 Alpha  occ. eigenvalues --   -0.32906  -0.32833  -0.32636  -0.32356  -0.32223
 Alpha  occ. eigenvalues --   -0.32044  -0.31883  -0.31529  -0.31504  -0.31173
 Alpha  occ. eigenvalues --   -0.31087  -0.31006  -0.30982  -0.30934  -0.30791
 Alpha  occ. eigenvalues --   -0.30550  -0.30433  -0.30070  -0.29948  -0.29880
 Alpha  occ. eigenvalues --   -0.29783  -0.29321  -0.29275  -0.29139  -0.29068
 Alpha  occ. eigenvalues --   -0.28771  -0.28448  -0.28364  -0.27982  -0.27802
 Alpha  occ. eigenvalues --   -0.27212  -0.27102  -0.26857  -0.26584  -0.26484
 Alpha  occ. eigenvalues --   -0.26206  -0.25994  -0.25837  -0.25693  -0.25428
 Alpha  occ. eigenvalues --   -0.25124  -0.24665  -0.24606  -0.23887  -0.23355
 Alpha  occ. eigenvalues --   -0.22762  -0.22208  -0.22027  -0.21837  -0.20928
 Alpha  occ. eigenvalues --   -0.20459  -0.19968  -0.18740  -0.18667  -0.17354
 Alpha  occ. eigenvalues --   -0.15776
 Alpha virt. eigenvalues --   -0.11395  -0.06916  -0.05946  -0.04427  -0.02929
 Alpha virt. eigenvalues --   -0.02776  -0.02455  -0.02068  -0.01474   0.00601
 Alpha virt. eigenvalues --    0.00979   0.01991   0.02372   0.02456   0.02817

 Mulliken charges:
               1
     1  Mg   0.684690
     2  C    0.064296
     3  C   -0.067638
     4  C   -0.036784
     5  C   -0.083643
     6  N   -0.241648
     7  C   -0.076386
     8  C    0.040049
     9  C   -0.053318
    10  C    0.061340
    11  C    0.110672
    12  C    0.133254
    13  C    0.092718
    14  C    0.086762
    15  O   -0.164713
    16  O   -0.306128
    17  N   -0.304285
    18  C    0.152436
    19  C   -0.161666
    20  C    0.074371
    21  C    0.124881
    22  C    0.179422
    23  C   -0.105815
    24  O   -0.141544
    25  C    0.093758
    26  N   -0.211948
    27  C   -0.023459
    28  C   -0.042619
    29  C    0.056255
    30  C    0.059010
    31  C    0.146069
    32  C    0.109369
    33  C    0.053235
    34  N   -0.235752
    35  C    0.124350
    36  C   -0.238174
    37  C    0.117238
    38  C   -0.007726
    39  C    0.193906
    40  C   -0.075970
    41  O   -0.119542
    42  C    0.055778
    43  C    0.135287
    44  O   -0.176011
    45  O   -0.259445
    46  C    0.197304
    47  C    0.308128
    48  C   -0.091899
    49  C   -0.145679
    50  C    0.120665
    51  C    0.138931
    52  C    0.077936
    53  C    0.147378
    54  C   -0.074971
    55  C    0.075137
    56  C    0.121309
    57  C    0.096049
    58  C    0.028493
    59  C   -0.098875
    60  C    0.096318
    61  C    0.167450
    62  C    0.031567
    63  C    0.132943
    64  C   -0.088731
    65  C    0.106339
    66  C    0.055810
    67  H   -0.057248
    68  H   -0.045402
    69  H   -0.052345
    70  H   -0.032422
    71  H   -0.022505
    72  H   -0.010492
    73  H   -0.000013
    74  H    0.001803
    75  H   -0.018007
    76  H    0.004179
    77  H    0.005096
    78  H    0.001989
    79  H   -0.014868
    80  H    0.026815
    81  H   -0.002897
    82  H   -0.000143
    83  H    0.009390
    84  H   -0.003089
    85  H   -0.036662
    86  H   -0.043850
    87  H   -0.013280
    88  H    0.007214
    89  H   -0.004344
    90  H   -0.019099
    91  H   -0.022803
    92  H   -0.009225
    93  H   -0.012614
    94  H    0.012877
    95  H   -0.004287
    96  H   -0.020986
    97  H    0.023324
    98  H    0.007704
    99  H    0.024361
   100  H    0.017365
   101  H    0.035173
   102  H    0.009424
   103  H   -0.003400
   104  H   -0.029973
   105  H   -0.031920
   106  H    0.017611
   107  H   -0.015155
   108  H   -0.044768
   109  H   -0.017198
   110  H   -0.025579
   111  H   -0.029679
   112  H   -0.036360
   113  H   -0.036515
   114  H   -0.019992
   115  H   -0.014386
   116  H   -0.032957
   117  H   -0.018818
   118  H   -0.018891
   119  H   -0.033257
   120  H   -0.023343
   121  H   -0.026206
   122  H   -0.039126
   123  H   -0.038923
   124  H   -0.033987
   125  H   -0.018885
   126  H   -0.019160
   127  H   -0.007467
   128  H   -0.041628
   129  H   -0.042303
   130  H   -0.033732
   131  H   -0.050247
   132  H   -0.024197
   133  H   -0.032481
   134  H   -0.024634
   135  H   -0.021566
   136  H   -0.019845
   137  H   -0.012656
   138  H   -0.024754
   139  H   -0.014058
   140  H   -0.016238
 Sum of Mulliken charges =  -0.00000

 Dipole moment (field-independent basis, Debye):
    X=             -2.8840    Y=              0.3983    Z=             -2.6219  Tot=              3.9180
 Quadrupole moment (field-independent basis, Debye-Ang):
   XX=           -376.2214   YY=           -418.8755   ZZ=           -405.8253
   XY=              1.1842   XZ=              6.3804   YZ=             -3.8761

 Normal termination of Gaussian 16 at Fri Apr 29 19:58:17 2022.
