 Gaussian 16, Revision A.03,
 Gaussian 16:  ES64L-G16RevA.03 25-Dec-2016

 -----------------------------------
 #p cam-b3lyp/Def2SVP td=(nstates=5)
 -----------------------------------

 ------------------------------------------------------
 step_451_chromophore_1 TDDFT with cam-b3lyp functional
 ------------------------------------------------------
 Symbolic Z-matrix:
 Charge =  0 Multiplicity = 1

                         Standard orientation:
 ---------------------------------------------------------------------
 Center     Atomic      Atomic             Coordinates (Angstroms)
 Number     Number       Type             X           Y           Z
 ---------------------------------------------------------------------
      1         12           0        6.019418    0.514674    0.098178
      2          6           0        4.043879   -2.291602   -0.498244
      3          6           0        3.717550    2.571666   -1.453237
      4          6           0        8.173300    3.111286    0.339550
      5          6           0        8.751013   -1.649897    0.785613
      6          7           0        4.144486    0.148122   -0.904903
      7          6           0        3.438134   -1.067288   -0.930959
      8          6           0        2.043783   -0.800083   -1.444056
      9          6           0        2.151864    0.663084   -2.121042
     10          6           0        3.471120    1.187907   -1.455967
     11          6           0        2.113877    0.589288   -3.757914
     12          6           0        0.899579   -0.919287   -0.356173
     13          6           0       -0.367532   -1.667281   -0.809439
     14          6           0       -1.543604   -1.698426    0.146948
     15          8           0       -1.605467   -1.152639    1.226203
     16          8           0       -2.550854   -2.532378   -0.342226
     17          7           0        5.894811    2.566211   -0.371305
     18          6           0        4.812073    3.241859   -0.920340
     19          6           0        5.141981    4.665948   -1.015135
     20          6           0        6.395386    4.825503   -0.383418
     21          6           0        6.900946    3.479013   -0.084184
     22          6           0        4.167516    5.644358   -1.805066
     23          6           0        7.128269    6.109651   -0.153146
     24          8           0        8.264609    6.205250    0.250568
     25          6           0        6.335376    7.472889   -0.412427
     26          7           0        8.167275    0.731745    0.514478
     27          6           0        8.809687    1.899632    0.618245
     28          6           0       10.302206    1.634372    0.828897
     29          6           0       10.325309    0.158646    1.376034
     30          6           0        8.970773   -0.324534    0.920284
     31          6           0       11.257134    1.988260   -0.405888
     32          6           0       10.710038    0.156455    2.867656
     33          6           0        9.604544    0.456520    3.942623
     34          7           0        6.358899   -1.573130    0.212679
     35          6           0        7.508892   -2.262843    0.553867
     36          6           0        7.233924   -3.691326    0.354295
     37          6           0        5.885948   -3.806758    0.015929
     38          6           0        5.403041   -2.444966   -0.090161
     39          6           0        8.234719   -4.860702    0.375907
     40          6           0        4.705566   -4.651157   -0.263195
     41          8           0        4.577711   -5.850029   -0.274723
     42          6           0        3.567795   -3.769323   -0.659165
     43          6           0        2.367831   -4.206047    0.120657
     44          8           0        2.177221   -3.751320    1.240928
     45          8           0        1.599111   -4.954459   -0.708918
     46          6           0        0.404979   -5.640710   -0.148206
     47          6           0       -3.730258   -2.862663    0.449306
     48          6           0       -4.961487   -2.142215   -0.152300
     49          6           0       -6.200436   -2.666054   -0.364969
     50          6           0       -6.527381   -4.170273   -0.179553
     51          6           0       -7.362865   -1.950759   -1.008252
     52          6           0       -8.163687   -0.980298   -0.120752
     53          6           0       -8.069826    0.479034   -0.508074
     54          6           0       -9.423661    1.104996   -0.806263
     55          6           0       -9.391189    1.952801   -2.102697
     56          6           0       -9.984346    2.089319    0.344066
     57          6           0      -11.450197    1.735104    0.775635
     58          6           0      -11.657029    1.754954    2.216702
     59          6           0      -13.107293    2.327833    2.775773
     60          6           0      -12.881801    2.620770    4.307506
     61          6           0      -14.219567    1.302398    2.570953
     62          6           0      -14.992736    1.480836    1.264708
     63          6           0      -14.930243    0.306869    0.281175
     64          6           0      -14.944703    0.814215   -1.190595
     65          6           0      -16.262942    0.523344   -1.939064
     66          6           0      -13.655150    0.385453   -2.078854
     67          1           0        2.894677    3.156838   -1.869514
     68          1           0        8.858659    3.911234    0.627705
     69          1           0        9.586838   -2.283315    1.090599
     70          1           0        1.951619   -1.562033   -2.217752
     71          1           0        1.317437    1.308639   -1.846271
     72          1           0        2.117477   -0.470555   -4.010853
     73          1           0        3.019350    1.040088   -4.163467
     74          1           0        1.207927    1.045321   -4.157591
     75          1           0        0.672973    0.087701   -0.006670
     76          1           0        1.317144   -1.419899    0.517138
     77          1           0       -0.204724   -2.723473   -1.020516
     78          1           0       -0.652508   -1.157652   -1.729357
     79          1           0        3.315554    4.995026   -2.005176
     80          1           0        4.712886    6.117817   -2.621779
     81          1           0        3.833778    6.431957   -1.129993
     82          1           0        7.050811    8.236902   -0.107152
     83          1           0        5.413290    7.493868    0.167945
     84          1           0        6.050532    7.505739   -1.463351
     85          1           0       10.636006    2.319148    1.608263
     86          1           0       11.093364   -0.243283    0.715611
     87          1           0       10.552077    2.521499   -1.043068
     88          1           0       11.678391    1.093607   -0.863914
     89          1           0       11.939575    2.793938   -0.135159
     90          1           0       11.501536    0.901411    2.948883
     91          1           0       11.122858   -0.823202    3.109956
     92          1           0        9.830547    1.425722    4.387221
     93          1           0        9.653666   -0.201857    4.809891
     94          1           0        8.579685    0.412272    3.574379
     95          1           0        8.379233   -5.115018    1.425692
     96          1           0        9.220142   -4.459520    0.134045
     97          1           0        7.913583   -5.676700   -0.271696
     98          1           0        3.431640   -3.946002   -1.726824
     99          1           0        0.467522   -6.709426   -0.352412
    100          1           0       -0.422770   -5.293150   -0.766174
    101          1           0        0.123094   -5.487536    0.893274
    102          1           0       -3.681736   -2.495414    1.474660
    103          1           0       -3.793313   -3.950413    0.433521
    104          1           0       -4.653436   -1.268921   -0.726791
    105          1           0       -5.772739   -4.709061    0.393156
    106          1           0       -6.760914   -4.660164   -1.125433
    107          1           0       -7.351671   -4.320483    0.517178
    108          1           0       -8.075574   -2.708141   -1.333839
    109          1           0       -6.948728   -1.439066   -1.877362
    110          1           0       -7.858744   -1.047617    0.923391
    111          1           0       -9.179516   -1.368076   -0.191508
    112          1           0       -7.375452    0.681217   -1.323433
    113          1           0       -7.644084    0.952111    0.376397
    114          1           0      -10.162417    0.340968   -1.045946
    115          1           0      -10.390956    2.149673   -2.487717
    116          1           0       -8.880351    1.463223   -2.932009
    117          1           0       -8.817256    2.871400   -1.981192
    118          1           0      -10.001848    3.161253    0.143407
    119          1           0       -9.362475    1.913690    1.221711
    120          1           0      -11.688319    0.715006    0.475060
    121          1           0      -12.244287    2.334725    0.331114
    122          1           0      -10.981371    2.386414    2.793956
    123          1           0      -11.559299    0.755143    2.641707
    124          1           0      -13.281190    3.262728    2.242946
    125          1           0      -13.619721    3.279935    4.765485
    126          1           0      -11.934853    3.160315    4.310645
    127          1           0      -12.900712    1.693094    4.880610
    128          1           0      -14.890274    1.343261    3.428657
    129          1           0      -13.847702    0.281127    2.488152
    130          1           0      -14.830840    2.467625    0.832299
    131          1           0      -16.064484    1.523700    1.456797
    132          1           0      -15.784839   -0.340995    0.473660
    133          1           0      -13.971951   -0.167311    0.493500
    134          1           0      -14.887802    1.901891   -1.239857
    135          1           0      -16.057912    0.202654   -2.960277
    136          1           0      -16.764504    1.488615   -2.013653
    137          1           0      -16.910863   -0.195299   -1.439073
    138          1           0      -13.631020   -0.602744   -2.538807
    139          1           0      -12.678030    0.401784   -1.597540
    140          1           0      -13.713222    1.055285   -2.936494
 ---------------------------------------------------------------------

 SCF Done:  E(RCAM-B3LYP) =  -3007.16639462     A.U. after   18 cycles

 Excitation energies and oscillator strengths:

 Excited State   1:      Singlet-A      1.7385 eV  713.18 nm  f=0.3769  <S**2>=0.000
     245 -> 248        0.18374
     246 -> 247        0.68478
     245 <- 248        0.10765
 This state for optimization and/or second-order correction.
 Total Energy, E(TD-HF/TD-DFT) =  -3007.10250705
 Copying the excited state density for this state as the 1-particle RhoCI density.

 Excited State   2:      Singlet-A      2.2657 eV  547.22 nm  f=0.0761  <S**2>=0.000
     245 -> 247        0.62416
     246 -> 248       -0.32195

 Excited State   3:      Singlet-A      3.4555 eV  358.80 nm  f=0.3388  <S**2>=0.000
     239 -> 247        0.12263
     242 -> 247        0.40429
     244 -> 247       -0.23530
     245 -> 247        0.20513
     246 -> 248        0.45515

 Excited State   4:      Singlet-A      3.5376 eV  350.48 nm  f=0.2158  <S**2>=0.000
     242 -> 247       -0.12999
     244 -> 247        0.56129
     245 -> 247        0.17108
     246 -> 248        0.34863

 Excited State   5:      Singlet-A      3.6036 eV  344.05 nm  f=0.0476  <S**2>=0.000
     240 -> 247        0.53849
     240 -> 248       -0.10178
     240 -> 249       -0.29617
     240 -> 250        0.17098
     242 -> 247       -0.11360
     244 -> 247       -0.11968
     246 -> 248        0.11244

 The electronic state is 1-A.
 Alpha  occ. eigenvalues --  -46.88749 -19.26461 -19.24218 -19.19952 -19.19888
 Alpha  occ. eigenvalues --  -19.19457 -19.18292 -14.42316 -14.41557 -14.39670
 Alpha  occ. eigenvalues --  -14.39053 -10.39655 -10.39473 -10.35386 -10.34331
 Alpha  occ. eigenvalues --  -10.32449 -10.32127 -10.31622 -10.31501 -10.30791
 Alpha  occ. eigenvalues --  -10.30580 -10.30412 -10.29622 -10.29505 -10.29107
 Alpha  occ. eigenvalues --  -10.28833 -10.28467 -10.28399 -10.28316 -10.28273
 Alpha  occ. eigenvalues --  -10.27827 -10.27654 -10.27635 -10.27499 -10.27470
 Alpha  occ. eigenvalues --  -10.27228 -10.27215 -10.26880 -10.26841 -10.26618
 Alpha  occ. eigenvalues --  -10.26544 -10.26260 -10.26182 -10.26155 -10.26116
 Alpha  occ. eigenvalues --  -10.26084 -10.26051 -10.25930 -10.25925 -10.25847
 Alpha  occ. eigenvalues --  -10.25823 -10.25575 -10.25365 -10.25321 -10.25067
 Alpha  occ. eigenvalues --  -10.24714 -10.24693 -10.24614 -10.24535 -10.24411
 Alpha  occ. eigenvalues --  -10.24392 -10.24245 -10.24217 -10.24208 -10.24168
 Alpha  occ. eigenvalues --  -10.23985  -3.17172  -1.92083  -1.91596  -1.91492
 Alpha  occ. eigenvalues --   -1.16476  -1.15529  -1.11026  -1.10457  -1.08553
 Alpha  occ. eigenvalues --   -1.07744  -1.03828  -1.02987  -1.02676  -1.01738
 Alpha  occ. eigenvalues --   -0.91824  -0.90390  -0.89489  -0.89043  -0.88707
 Alpha  occ. eigenvalues --   -0.88204  -0.87806  -0.87092  -0.86895  -0.86786
 Alpha  occ. eigenvalues --   -0.85739  -0.84968  -0.84279  -0.83710  -0.82854
 Alpha  occ. eigenvalues --   -0.82399  -0.81792  -0.81181  -0.80835  -0.80073
 Alpha  occ. eigenvalues --   -0.79622  -0.78393  -0.77659  -0.77502  -0.76262
 Alpha  occ. eigenvalues --   -0.75785  -0.75169  -0.75155  -0.74515  -0.73904
 Alpha  occ. eigenvalues --   -0.73548  -0.72438  -0.71738  -0.70226  -0.69731
 Alpha  occ. eigenvalues --   -0.68573  -0.67655  -0.67439  -0.66639  -0.65413
 Alpha  occ. eigenvalues --   -0.65324  -0.64897  -0.64675  -0.64299  -0.64020
 Alpha  occ. eigenvalues --   -0.63753  -0.62563  -0.62484  -0.62389  -0.60079
 Alpha  occ. eigenvalues --   -0.59920  -0.59316  -0.58923  -0.58486  -0.58075
 Alpha  occ. eigenvalues --   -0.57030  -0.56671  -0.56225  -0.55644  -0.55443
 Alpha  occ. eigenvalues --   -0.54844  -0.54610  -0.54413  -0.54274  -0.54103
 Alpha  occ. eigenvalues --   -0.53739  -0.53470  -0.53277  -0.52957  -0.52742
 Alpha  occ. eigenvalues --   -0.52210  -0.52130  -0.51876  -0.51674  -0.51558
 Alpha  occ. eigenvalues --   -0.51281  -0.51243  -0.51045  -0.50592  -0.50385
 Alpha  occ. eigenvalues --   -0.50221  -0.49940  -0.49682  -0.49461  -0.49427
 Alpha  occ. eigenvalues --   -0.49134  -0.49085  -0.48858  -0.48692  -0.48621
 Alpha  occ. eigenvalues --   -0.48504  -0.48450  -0.48161  -0.48075  -0.48015
 Alpha  occ. eigenvalues --   -0.47721  -0.47481  -0.47397  -0.46929  -0.46731
 Alpha  occ. eigenvalues --   -0.46251  -0.45942  -0.45802  -0.45321  -0.45294
 Alpha  occ. eigenvalues --   -0.45168  -0.45139  -0.45071  -0.45025  -0.44669
 Alpha  occ. eigenvalues --   -0.44575  -0.44494  -0.44361  -0.43999  -0.43889
 Alpha  occ. eigenvalues --   -0.43587  -0.43371  -0.43280  -0.43028  -0.42806
 Alpha  occ. eigenvalues --   -0.42622  -0.42541  -0.42499  -0.42323  -0.42222
 Alpha  occ. eigenvalues --   -0.41896  -0.41850  -0.41490  -0.41233  -0.41038
 Alpha  occ. eigenvalues --   -0.40920  -0.40636  -0.40518  -0.40395  -0.40214
 Alpha  occ. eigenvalues --   -0.39830  -0.39427  -0.39315  -0.38850  -0.38784
 Alpha  occ. eigenvalues --   -0.38064  -0.37940  -0.37648  -0.37536  -0.37290
 Alpha  occ. eigenvalues --   -0.37167  -0.37074  -0.36945  -0.36646  -0.36025
 Alpha  occ. eigenvalues --   -0.35916  -0.35627  -0.35168  -0.34426  -0.34188
 Alpha  occ. eigenvalues --   -0.34001  -0.33181  -0.32949  -0.31441  -0.31013
 Alpha  occ. eigenvalues --   -0.30685  -0.30338  -0.29569  -0.29526  -0.24179
 Alpha  occ. eigenvalues --   -0.21029
 Alpha virt. eigenvalues --   -0.08381  -0.01850   0.00580   0.02614   0.02667
 Alpha virt. eigenvalues --    0.04732   0.05142   0.05558   0.05973   0.06644
 Alpha virt. eigenvalues --    0.08162   0.08557   0.08701   0.09103   0.09150

 Mulliken charges:
               1
     1  Mg   0.814616
     2  C    0.045737
     3  C   -0.089436
     4  C   -0.063312
     5  C   -0.080807
     6  N   -0.314389
     7  C   -0.031689
     8  C   -0.011263
     9  C   -0.103002
    10  C    0.082971
    11  C    0.057485
    12  C    0.077150
    13  C    0.026549
    14  C    0.173000
    15  O   -0.205623
    16  O   -0.371874
    17  N   -0.392021
    18  C    0.164297
    19  C   -0.164294
    20  C    0.002197
    21  C    0.155092
    22  C    0.130873
    23  C   -0.025791
    24  O   -0.181034
    25  C    0.022212
    26  N   -0.278173
    27  C    0.001862
    28  C   -0.090054
    29  C   -0.004623
    30  C    0.063190
    31  C    0.087189
    32  C    0.055211
    33  C   -0.006944
    34  N   -0.322824
    35  C    0.123332
    36  C   -0.230422
    37  C    0.033527
    38  C    0.022811
    39  C    0.141218
    40  C    0.027064
    41  O   -0.160206
    42  C   -0.020670
    43  C    0.216879
    44  O   -0.214305
    45  O   -0.323922
    46  C    0.161875
    47  C    0.271357
    48  C   -0.106457
    49  C   -0.168447
    50  C    0.057887
    51  C    0.077768
    52  C    0.025421
    53  C    0.088149
    54  C   -0.131822
    55  C    0.023849
    56  C    0.067058
    57  C    0.044652
    58  C   -0.016046
    59  C   -0.152998
    60  C    0.038558
    61  C    0.107388
    62  C   -0.023128
    63  C    0.078571
    64  C   -0.148998
    65  C    0.047803
    66  C    0.010802
    67  H   -0.023173
    68  H   -0.005662
    69  H   -0.018334
    70  H    0.001516
    71  H    0.010801
    72  H    0.013847
    73  H    0.024942
    74  H    0.024980
    75  H    0.012679
    76  H    0.036264
    77  H    0.031379
    78  H    0.031368
    79  H    0.012652
    80  H    0.052386
    81  H    0.024079
    82  H    0.034985
    83  H    0.036088
    84  H    0.022574
    85  H   -0.001895
    86  H   -0.006523
    87  H    0.012324
    88  H    0.030759
    89  H    0.020499
    90  H    0.007999
    91  H    0.005222
    92  H    0.012977
    93  H    0.012536
    94  H    0.033594
    95  H    0.021312
    96  H    0.002225
    97  H    0.047722
    98  H    0.049854
    99  H    0.047187
   100  H    0.036256
   101  H    0.059639
   102  H    0.042307
   103  H    0.023158
   104  H    0.001375
   105  H   -0.007108
   106  H    0.041156
   107  H    0.009549
   108  H   -0.011460
   109  H    0.011509
   110  H    0.004358
   111  H   -0.002144
   112  H   -0.007045
   113  H   -0.005894
   114  H    0.006995
   115  H    0.008219
   116  H   -0.008101
   117  H    0.004446
   118  H    0.009447
   119  H   -0.004186
   120  H   -0.001136
   121  H   -0.001370
   122  H   -0.011464
   123  H   -0.011023
   124  H   -0.003040
   125  H    0.006939
   126  H    0.004546
   127  H    0.015319
   128  H   -0.009618
   129  H   -0.013500
   130  H   -0.006421
   131  H   -0.019026
   132  H    0.004303
   133  H   -0.007125
   134  H    0.005733
   135  H    0.003487
   136  H    0.004125
   137  H    0.010585
   138  H   -0.000604
   139  H    0.000733
   140  H    0.005886
 Sum of Mulliken charges =  -0.00000

 Dipole moment (field-independent basis, Debye):
    X=             -3.0368    Y=              1.6241    Z=             -2.9394  Tot=              4.5277
 Quadrupole moment (field-independent basis, Debye-Ang):
   XX=           -376.2619   YY=           -412.4084   ZZ=           -405.5841
   XY=              8.6350   XZ=              6.1549   YZ=             -4.9349

 Normal termination of Gaussian 16 at Fri Apr 29 18:34:18 2022.
