 Gaussian 16, Revision A.03,
 Gaussian 16:  ES64L-G16RevA.03 25-Dec-2016

 ---------------------------------
 #p PBE1PBE/Def2SVP td=(nstates=5)
 ---------------------------------

 ----------------------------------------------------
 step_451_chromophore_1 TDDFT with PBE1PBE functional
 ----------------------------------------------------
 Symbolic Z-matrix:
 Charge =  0 Multiplicity = 1

                         Standard orientation:
 ---------------------------------------------------------------------
 Center     Atomic      Atomic             Coordinates (Angstroms)
 Number     Number       Type             X           Y           Z
 ---------------------------------------------------------------------
      1         12           0        6.019418    0.514674    0.098178
      2          6           0        4.043879   -2.291602   -0.498244
      3          6           0        3.717550    2.571666   -1.453237
      4          6           0        8.173300    3.111286    0.339550
      5          6           0        8.751013   -1.649897    0.785613
      6          7           0        4.144486    0.148122   -0.904903
      7          6           0        3.438134   -1.067288   -0.930959
      8          6           0        2.043783   -0.800083   -1.444056
      9          6           0        2.151864    0.663084   -2.121042
     10          6           0        3.471120    1.187907   -1.455967
     11          6           0        2.113877    0.589288   -3.757914
     12          6           0        0.899579   -0.919287   -0.356173
     13          6           0       -0.367532   -1.667281   -0.809439
     14          6           0       -1.543604   -1.698426    0.146948
     15          8           0       -1.605467   -1.152639    1.226203
     16          8           0       -2.550854   -2.532378   -0.342226
     17          7           0        5.894811    2.566211   -0.371305
     18          6           0        4.812073    3.241859   -0.920340
     19          6           0        5.141981    4.665948   -1.015135
     20          6           0        6.395386    4.825503   -0.383418
     21          6           0        6.900946    3.479013   -0.084184
     22          6           0        4.167516    5.644358   -1.805066
     23          6           0        7.128269    6.109651   -0.153146
     24          8           0        8.264609    6.205250    0.250568
     25          6           0        6.335376    7.472889   -0.412427
     26          7           0        8.167275    0.731745    0.514478
     27          6           0        8.809687    1.899632    0.618245
     28          6           0       10.302206    1.634372    0.828897
     29          6           0       10.325309    0.158646    1.376034
     30          6           0        8.970773   -0.324534    0.920284
     31          6           0       11.257134    1.988260   -0.405888
     32          6           0       10.710038    0.156455    2.867656
     33          6           0        9.604544    0.456520    3.942623
     34          7           0        6.358899   -1.573130    0.212679
     35          6           0        7.508892   -2.262843    0.553867
     36          6           0        7.233924   -3.691326    0.354295
     37          6           0        5.885948   -3.806758    0.015929
     38          6           0        5.403041   -2.444966   -0.090161
     39          6           0        8.234719   -4.860702    0.375907
     40          6           0        4.705566   -4.651157   -0.263195
     41          8           0        4.577711   -5.850029   -0.274723
     42          6           0        3.567795   -3.769323   -0.659165
     43          6           0        2.367831   -4.206047    0.120657
     44          8           0        2.177221   -3.751320    1.240928
     45          8           0        1.599111   -4.954459   -0.708918
     46          6           0        0.404979   -5.640710   -0.148206
     47          6           0       -3.730258   -2.862663    0.449306
     48          6           0       -4.961487   -2.142215   -0.152300
     49          6           0       -6.200436   -2.666054   -0.364969
     50          6           0       -6.527381   -4.170273   -0.179553
     51          6           0       -7.362865   -1.950759   -1.008252
     52          6           0       -8.163687   -0.980298   -0.120752
     53          6           0       -8.069826    0.479034   -0.508074
     54          6           0       -9.423661    1.104996   -0.806263
     55          6           0       -9.391189    1.952801   -2.102697
     56          6           0       -9.984346    2.089319    0.344066
     57          6           0      -11.450197    1.735104    0.775635
     58          6           0      -11.657029    1.754954    2.216702
     59          6           0      -13.107293    2.327833    2.775773
     60          6           0      -12.881801    2.620770    4.307506
     61          6           0      -14.219567    1.302398    2.570953
     62          6           0      -14.992736    1.480836    1.264708
     63          6           0      -14.930243    0.306869    0.281175
     64          6           0      -14.944703    0.814215   -1.190595
     65          6           0      -16.262942    0.523344   -1.939064
     66          6           0      -13.655150    0.385453   -2.078854
     67          1           0        2.894677    3.156838   -1.869514
     68          1           0        8.858659    3.911234    0.627705
     69          1           0        9.586838   -2.283315    1.090599
     70          1           0        1.951619   -1.562033   -2.217752
     71          1           0        1.317437    1.308639   -1.846271
     72          1           0        2.117477   -0.470555   -4.010853
     73          1           0        3.019350    1.040088   -4.163467
     74          1           0        1.207927    1.045321   -4.157591
     75          1           0        0.672973    0.087701   -0.006670
     76          1           0        1.317144   -1.419899    0.517138
     77          1           0       -0.204724   -2.723473   -1.020516
     78          1           0       -0.652508   -1.157652   -1.729357
     79          1           0        3.315554    4.995026   -2.005176
     80          1           0        4.712886    6.117817   -2.621779
     81          1           0        3.833778    6.431957   -1.129993
     82          1           0        7.050811    8.236902   -0.107152
     83          1           0        5.413290    7.493868    0.167945
     84          1           0        6.050532    7.505739   -1.463351
     85          1           0       10.636006    2.319148    1.608263
     86          1           0       11.093364   -0.243283    0.715611
     87          1           0       10.552077    2.521499   -1.043068
     88          1           0       11.678391    1.093607   -0.863914
     89          1           0       11.939575    2.793938   -0.135159
     90          1           0       11.501536    0.901411    2.948883
     91          1           0       11.122858   -0.823202    3.109956
     92          1           0        9.830547    1.425722    4.387221
     93          1           0        9.653666   -0.201857    4.809891
     94          1           0        8.579685    0.412272    3.574379
     95          1           0        8.379233   -5.115018    1.425692
     96          1           0        9.220142   -4.459520    0.134045
     97          1           0        7.913583   -5.676700   -0.271696
     98          1           0        3.431640   -3.946002   -1.726824
     99          1           0        0.467522   -6.709426   -0.352412
    100          1           0       -0.422770   -5.293150   -0.766174
    101          1           0        0.123094   -5.487536    0.893274
    102          1           0       -3.681736   -2.495414    1.474660
    103          1           0       -3.793313   -3.950413    0.433521
    104          1           0       -4.653436   -1.268921   -0.726791
    105          1           0       -5.772739   -4.709061    0.393156
    106          1           0       -6.760914   -4.660164   -1.125433
    107          1           0       -7.351671   -4.320483    0.517178
    108          1           0       -8.075574   -2.708141   -1.333839
    109          1           0       -6.948728   -1.439066   -1.877362
    110          1           0       -7.858744   -1.047617    0.923391
    111          1           0       -9.179516   -1.368076   -0.191508
    112          1           0       -7.375452    0.681217   -1.323433
    113          1           0       -7.644084    0.952111    0.376397
    114          1           0      -10.162417    0.340968   -1.045946
    115          1           0      -10.390956    2.149673   -2.487717
    116          1           0       -8.880351    1.463223   -2.932009
    117          1           0       -8.817256    2.871400   -1.981192
    118          1           0      -10.001848    3.161253    0.143407
    119          1           0       -9.362475    1.913690    1.221711
    120          1           0      -11.688319    0.715006    0.475060
    121          1           0      -12.244287    2.334725    0.331114
    122          1           0      -10.981371    2.386414    2.793956
    123          1           0      -11.559299    0.755143    2.641707
    124          1           0      -13.281190    3.262728    2.242946
    125          1           0      -13.619721    3.279935    4.765485
    126          1           0      -11.934853    3.160315    4.310645
    127          1           0      -12.900712    1.693094    4.880610
    128          1           0      -14.890274    1.343261    3.428657
    129          1           0      -13.847702    0.281127    2.488152
    130          1           0      -14.830840    2.467625    0.832299
    131          1           0      -16.064484    1.523700    1.456797
    132          1           0      -15.784839   -0.340995    0.473660
    133          1           0      -13.971951   -0.167311    0.493500
    134          1           0      -14.887802    1.901891   -1.239857
    135          1           0      -16.057912    0.202654   -2.960277
    136          1           0      -16.764504    1.488615   -2.013653
    137          1           0      -16.910863   -0.195299   -1.439073
    138          1           0      -13.631020   -0.602744   -2.538807
    139          1           0      -12.678030    0.401784   -1.597540
    140          1           0      -13.713222    1.055285   -2.936494
 ---------------------------------------------------------------------

 SCF Done:  E(RPBE1PBE) =  -3005.35296559     A.U. after   15 cycles

 Excitation energies and oscillator strengths:

 Excited State   1:      Singlet-A      1.8760 eV  660.91 nm  f=0.3684  <S**2>=0.000
     245 -> 248        0.17922
     246 -> 247        0.69133
     246 <- 247       -0.10184
 This state for optimization and/or second-order correction.
 Total Energy, E(TD-HF/TD-DFT) =  -3005.28402516
 Copying the excited state density for this state as the 1-particle RhoCI density.

 Excited State   2:      Singlet-A      2.2698 eV  546.23 nm  f=0.0778  <S**2>=0.000
     245 -> 247        0.63781
     246 -> 248       -0.29708

 Excited State   3:      Singlet-A      3.0721 eV  403.58 nm  f=0.0004  <S**2>=0.000
     241 -> 247        0.15817
     242 -> 247        0.62175
     242 -> 249       -0.14084
     243 -> 247        0.19417

 Excited State   4:      Singlet-A      3.1208 eV  397.28 nm  f=0.0010  <S**2>=0.000
     240 -> 247       -0.14680
     241 -> 247        0.24000
     241 -> 249        0.10496
     242 -> 247       -0.21375
     243 -> 247        0.59275

 Excited State   5:      Singlet-A      3.1849 eV  389.28 nm  f=0.0006  <S**2>=0.000
     241 -> 247        0.61288
     243 -> 247       -0.28555

 The electronic state is 1-A.
 Alpha  occ. eigenvalues --  -46.92147 -19.27214 -19.24976 -19.20285 -19.20172
 Alpha  occ. eigenvalues --  -19.19436 -19.18698 -14.41873 -14.41048 -14.39263
 Alpha  occ. eigenvalues --  -14.38826 -10.36753 -10.36530 -10.32318 -10.31649
 Alpha  occ. eigenvalues --  -10.29734 -10.29573 -10.29448 -10.29165 -10.28242
 Alpha  occ. eigenvalues --  -10.28126 -10.27803 -10.27446 -10.27193 -10.27029
 Alpha  occ. eigenvalues --  -10.26663 -10.26406 -10.26359 -10.26222 -10.25649
 Alpha  occ. eigenvalues --  -10.25521 -10.25350 -10.25232 -10.25165 -10.25066
 Alpha  occ. eigenvalues --  -10.25044 -10.24816 -10.24782 -10.24311 -10.24295
 Alpha  occ. eigenvalues --  -10.24236 -10.23942 -10.23882 -10.23661 -10.23622
 Alpha  occ. eigenvalues --  -10.23576 -10.23564 -10.23529 -10.23483 -10.23449
 Alpha  occ. eigenvalues --  -10.23267 -10.23130 -10.22915 -10.22811 -10.22635
 Alpha  occ. eigenvalues --  -10.22621 -10.22258 -10.22113 -10.22092 -10.21828
 Alpha  occ. eigenvalues --  -10.21781 -10.21772 -10.21735 -10.21702 -10.21606
 Alpha  occ. eigenvalues --  -10.21517  -3.14154  -1.87005  -1.86495  -1.86396
 Alpha  occ. eigenvalues --   -1.11338  -1.10368  -1.05558  -1.05388  -1.03460
 Alpha  occ. eigenvalues --   -1.02658  -0.98510  -0.97705  -0.97271  -0.96312
 Alpha  occ. eigenvalues --   -0.86314  -0.84510  -0.83566  -0.83376  -0.82941
 Alpha  occ. eigenvalues --   -0.82350  -0.82087  -0.81435  -0.81011  -0.80859
 Alpha  occ. eigenvalues --   -0.80222  -0.79211  -0.78492  -0.78051  -0.77096
 Alpha  occ. eigenvalues --   -0.76605  -0.76138  -0.75440  -0.74996  -0.74225
 Alpha  occ. eigenvalues --   -0.73727  -0.72527  -0.71999  -0.71844  -0.70640
 Alpha  occ. eigenvalues --   -0.69947  -0.69507  -0.69234  -0.68671  -0.68156
 Alpha  occ. eigenvalues --   -0.67805  -0.66935  -0.66192  -0.64574  -0.64093
 Alpha  occ. eigenvalues --   -0.63069  -0.61968  -0.61785  -0.60892  -0.59930
 Alpha  occ. eigenvalues --   -0.59496  -0.59420  -0.59186  -0.58914  -0.58184
 Alpha  occ. eigenvalues --   -0.57856  -0.57228  -0.57053  -0.56590  -0.54423
 Alpha  occ. eigenvalues --   -0.54373  -0.53931  -0.53453  -0.53044  -0.52676
 Alpha  occ. eigenvalues --   -0.51702  -0.51155  -0.50694  -0.50213  -0.50023
 Alpha  occ. eigenvalues --   -0.49397  -0.49110  -0.48987  -0.48846  -0.48473
 Alpha  occ. eigenvalues --   -0.48311  -0.47939  -0.47791  -0.47600  -0.47259
 Alpha  occ. eigenvalues --   -0.46771  -0.46666  -0.46379  -0.46273  -0.46042
 Alpha  occ. eigenvalues --   -0.45863  -0.45742  -0.45570  -0.45178  -0.44933
 Alpha  occ. eigenvalues --   -0.44770  -0.44367  -0.44162  -0.44048  -0.44002
 Alpha  occ. eigenvalues --   -0.43683  -0.43596  -0.43493  -0.43341  -0.43289
 Alpha  occ. eigenvalues --   -0.43091  -0.43004  -0.42813  -0.42656  -0.42602
 Alpha  occ. eigenvalues --   -0.42289  -0.42077  -0.42025  -0.41621  -0.41529
 Alpha  occ. eigenvalues --   -0.40913  -0.40658  -0.40576  -0.40087  -0.39920
 Alpha  occ. eigenvalues --   -0.39895  -0.39847  -0.39757  -0.39725  -0.39319
 Alpha  occ. eigenvalues --   -0.39238  -0.39201  -0.39145  -0.38795  -0.38738
 Alpha  occ. eigenvalues --   -0.38299  -0.38138  -0.38039  -0.37760  -0.37558
 Alpha  occ. eigenvalues --   -0.37418  -0.37365  -0.37223  -0.37137  -0.36975
 Alpha  occ. eigenvalues --   -0.36904  -0.36762  -0.36386  -0.36188  -0.35879
 Alpha  occ. eigenvalues --   -0.35778  -0.35511  -0.35420  -0.35188  -0.35135
 Alpha  occ. eigenvalues --   -0.34657  -0.34368  -0.34071  -0.33765  -0.33614
 Alpha  occ. eigenvalues --   -0.32851  -0.32692  -0.32681  -0.32544  -0.32233
 Alpha  occ. eigenvalues --   -0.32165  -0.32079  -0.31842  -0.31439  -0.31002
 Alpha  occ. eigenvalues --   -0.30917  -0.30616  -0.30092  -0.29527  -0.29220
 Alpha  occ. eigenvalues --   -0.28951  -0.28699  -0.27965  -0.26989  -0.25996
 Alpha  occ. eigenvalues --   -0.25705  -0.25551  -0.25319  -0.24859  -0.21072
 Alpha  occ. eigenvalues --   -0.18687
 Alpha virt. eigenvalues --   -0.10931  -0.05335  -0.03643  -0.01831  -0.00194
 Alpha virt. eigenvalues --    0.00216   0.00428   0.01233   0.01291   0.03423
 Alpha virt. eigenvalues --    0.03859   0.05001   0.05267   0.05384   0.05778

 Mulliken charges:
               1
     1  Mg   0.957330
     2  C    0.047927
     3  C   -0.085658
     4  C   -0.066530
     5  C   -0.068855
     6  N   -0.419353
     7  C    0.039577
     8  C   -0.082829
     9  C   -0.171419
    10  C    0.116386
    11  C   -0.000404
    12  C    0.027252
    13  C   -0.059822
    14  C    0.246298
    15  O   -0.240225
    16  O   -0.403012
    17  N   -0.501734
    18  C    0.188649
    19  C   -0.184571
    20  C   -0.054878
    21  C    0.186428
    22  C    0.065412
    23  C    0.031606
    24  O   -0.220260
    25  C   -0.054447
    26  N   -0.379194
    27  C    0.042957
    28  C   -0.155924
    29  C   -0.087010
    30  C    0.101174
    31  C    0.025264
    32  C   -0.009550
    33  C   -0.077264
    34  N   -0.449886
    35  C    0.147887
    36  C   -0.244417
    37  C   -0.013710
    38  C    0.071126
    39  C    0.085245
    40  C    0.126716
    41  O   -0.205486
    42  C   -0.134342
    43  C    0.306433
    44  O   -0.249021
    45  O   -0.357362
    46  C    0.107768
    47  C    0.228937
    48  C   -0.115253
    49  C   -0.209990
    50  C   -0.008542
    51  C    0.013472
    52  C   -0.033569
    53  C    0.035463
    54  C   -0.224095
    55  C   -0.036064
    56  C    0.014038
    57  C   -0.023137
    58  C   -0.063848
    59  C   -0.240973
    60  C   -0.023915
    61  C    0.053386
    62  C   -0.079769
    63  C    0.016943
    64  C   -0.237755
    65  C   -0.010347
    66  C   -0.058800
    67  H    0.008126
    68  H    0.026591
    69  H    0.012115
    70  H    0.039856
    71  H    0.045709
    72  H    0.040605
    73  H    0.052611
    74  H    0.051350
    75  H    0.045427
    76  H    0.070487
    77  H    0.068765
    78  H    0.064468
    79  H    0.041888
    80  H    0.078162
    81  H    0.051654
    82  H    0.061507
    83  H    0.062605
    84  H    0.050035
    85  H    0.036354
    86  H    0.032593
    87  H    0.042729
    88  H    0.056195
    89  H    0.047669
    90  H    0.041611
    91  H    0.037841
    92  H    0.040717
    93  H    0.040236
    94  H    0.062523
    95  H    0.051512
    96  H    0.031258
    97  H    0.074585
    98  H    0.087425
    99  H    0.069146
   100  H    0.056823
   101  H    0.079714
   102  H    0.069718
   103  H    0.048624
   104  H    0.031016
   105  H    0.020168
   106  H    0.068217
   107  H    0.038511
   108  H    0.021201
   109  H    0.043274
   110  H    0.036713
   111  H    0.028929
   112  H    0.023856
   113  H    0.027060
   114  H    0.046067
   115  H    0.037139
   116  H    0.020456
   117  H    0.032572
   118  H    0.040672
   119  H    0.029008
   120  H    0.032109
   121  H    0.033039
   122  H    0.020267
   123  H    0.021811
   124  H    0.034226
   125  H    0.035652
   126  H    0.032254
   127  H    0.042728
   128  H    0.023513
   129  H    0.018732
   130  H    0.022846
   131  H    0.015902
   132  H    0.036272
   133  H    0.026739
   134  H    0.042999
   135  H    0.030809
   136  H    0.031651
   137  H    0.037044
   138  H    0.027197
   139  H    0.036133
   140  H    0.033531
 Sum of Mulliken charges =  -0.00000

 Dipole moment (field-independent basis, Debye):
    X=             -2.9571    Y=              1.0228    Z=             -2.8570  Tot=              4.2371
 Quadrupole moment (field-independent basis, Debye-Ang):
   XX=           -369.6528   YY=           -410.8769   ZZ=           -402.7689
   XY=              4.7217   XZ=              7.6109   YZ=             -4.8073

 Normal termination of Gaussian 16 at Fri Apr 29 18:59:13 2022.
