 Gaussian 16, Revision A.03,
 Gaussian 16:  ES64L-G16RevA.03 25-Dec-2016

 --------------------------------
 #p wB97XD/Def2SVP td=(nstates=5)
 --------------------------------

 ---------------------------------------------------
 step_451_chromophore_1 TDDFT with wB97XD functional
 ---------------------------------------------------
 Symbolic Z-matrix:
 Charge =  0 Multiplicity = 1

                         Standard orientation:
 ---------------------------------------------------------------------
 Center     Atomic      Atomic             Coordinates (Angstroms)
 Number     Number       Type             X           Y           Z
 ---------------------------------------------------------------------
      1         12           0        6.019418    0.514674    0.098178
      2          6           0        4.043879   -2.291602   -0.498244
      3          6           0        3.717550    2.571666   -1.453237
      4          6           0        8.173300    3.111286    0.339550
      5          6           0        8.751013   -1.649897    0.785613
      6          7           0        4.144486    0.148122   -0.904903
      7          6           0        3.438134   -1.067288   -0.930959
      8          6           0        2.043783   -0.800083   -1.444056
      9          6           0        2.151864    0.663084   -2.121042
     10          6           0        3.471120    1.187907   -1.455967
     11          6           0        2.113877    0.589288   -3.757914
     12          6           0        0.899579   -0.919287   -0.356173
     13          6           0       -0.367532   -1.667281   -0.809439
     14          6           0       -1.543604   -1.698426    0.146948
     15          8           0       -1.605467   -1.152639    1.226203
     16          8           0       -2.550854   -2.532378   -0.342226
     17          7           0        5.894811    2.566211   -0.371305
     18          6           0        4.812073    3.241859   -0.920340
     19          6           0        5.141981    4.665948   -1.015135
     20          6           0        6.395386    4.825503   -0.383418
     21          6           0        6.900946    3.479013   -0.084184
     22          6           0        4.167516    5.644358   -1.805066
     23          6           0        7.128269    6.109651   -0.153146
     24          8           0        8.264609    6.205250    0.250568
     25          6           0        6.335376    7.472889   -0.412427
     26          7           0        8.167275    0.731745    0.514478
     27          6           0        8.809687    1.899632    0.618245
     28          6           0       10.302206    1.634372    0.828897
     29          6           0       10.325309    0.158646    1.376034
     30          6           0        8.970773   -0.324534    0.920284
     31          6           0       11.257134    1.988260   -0.405888
     32          6           0       10.710038    0.156455    2.867656
     33          6           0        9.604544    0.456520    3.942623
     34          7           0        6.358899   -1.573130    0.212679
     35          6           0        7.508892   -2.262843    0.553867
     36          6           0        7.233924   -3.691326    0.354295
     37          6           0        5.885948   -3.806758    0.015929
     38          6           0        5.403041   -2.444966   -0.090161
     39          6           0        8.234719   -4.860702    0.375907
     40          6           0        4.705566   -4.651157   -0.263195
     41          8           0        4.577711   -5.850029   -0.274723
     42          6           0        3.567795   -3.769323   -0.659165
     43          6           0        2.367831   -4.206047    0.120657
     44          8           0        2.177221   -3.751320    1.240928
     45          8           0        1.599111   -4.954459   -0.708918
     46          6           0        0.404979   -5.640710   -0.148206
     47          6           0       -3.730258   -2.862663    0.449306
     48          6           0       -4.961487   -2.142215   -0.152300
     49          6           0       -6.200436   -2.666054   -0.364969
     50          6           0       -6.527381   -4.170273   -0.179553
     51          6           0       -7.362865   -1.950759   -1.008252
     52          6           0       -8.163687   -0.980298   -0.120752
     53          6           0       -8.069826    0.479034   -0.508074
     54          6           0       -9.423661    1.104996   -0.806263
     55          6           0       -9.391189    1.952801   -2.102697
     56          6           0       -9.984346    2.089319    0.344066
     57          6           0      -11.450197    1.735104    0.775635
     58          6           0      -11.657029    1.754954    2.216702
     59          6           0      -13.107293    2.327833    2.775773
     60          6           0      -12.881801    2.620770    4.307506
     61          6           0      -14.219567    1.302398    2.570953
     62          6           0      -14.992736    1.480836    1.264708
     63          6           0      -14.930243    0.306869    0.281175
     64          6           0      -14.944703    0.814215   -1.190595
     65          6           0      -16.262942    0.523344   -1.939064
     66          6           0      -13.655150    0.385453   -2.078854
     67          1           0        2.894677    3.156838   -1.869514
     68          1           0        8.858659    3.911234    0.627705
     69          1           0        9.586838   -2.283315    1.090599
     70          1           0        1.951619   -1.562033   -2.217752
     71          1           0        1.317437    1.308639   -1.846271
     72          1           0        2.117477   -0.470555   -4.010853
     73          1           0        3.019350    1.040088   -4.163467
     74          1           0        1.207927    1.045321   -4.157591
     75          1           0        0.672973    0.087701   -0.006670
     76          1           0        1.317144   -1.419899    0.517138
     77          1           0       -0.204724   -2.723473   -1.020516
     78          1           0       -0.652508   -1.157652   -1.729357
     79          1           0        3.315554    4.995026   -2.005176
     80          1           0        4.712886    6.117817   -2.621779
     81          1           0        3.833778    6.431957   -1.129993
     82          1           0        7.050811    8.236902   -0.107152
     83          1           0        5.413290    7.493868    0.167945
     84          1           0        6.050532    7.505739   -1.463351
     85          1           0       10.636006    2.319148    1.608263
     86          1           0       11.093364   -0.243283    0.715611
     87          1           0       10.552077    2.521499   -1.043068
     88          1           0       11.678391    1.093607   -0.863914
     89          1           0       11.939575    2.793938   -0.135159
     90          1           0       11.501536    0.901411    2.948883
     91          1           0       11.122858   -0.823202    3.109956
     92          1           0        9.830547    1.425722    4.387221
     93          1           0        9.653666   -0.201857    4.809891
     94          1           0        8.579685    0.412272    3.574379
     95          1           0        8.379233   -5.115018    1.425692
     96          1           0        9.220142   -4.459520    0.134045
     97          1           0        7.913583   -5.676700   -0.271696
     98          1           0        3.431640   -3.946002   -1.726824
     99          1           0        0.467522   -6.709426   -0.352412
    100          1           0       -0.422770   -5.293150   -0.766174
    101          1           0        0.123094   -5.487536    0.893274
    102          1           0       -3.681736   -2.495414    1.474660
    103          1           0       -3.793313   -3.950413    0.433521
    104          1           0       -4.653436   -1.268921   -0.726791
    105          1           0       -5.772739   -4.709061    0.393156
    106          1           0       -6.760914   -4.660164   -1.125433
    107          1           0       -7.351671   -4.320483    0.517178
    108          1           0       -8.075574   -2.708141   -1.333839
    109          1           0       -6.948728   -1.439066   -1.877362
    110          1           0       -7.858744   -1.047617    0.923391
    111          1           0       -9.179516   -1.368076   -0.191508
    112          1           0       -7.375452    0.681217   -1.323433
    113          1           0       -7.644084    0.952111    0.376397
    114          1           0      -10.162417    0.340968   -1.045946
    115          1           0      -10.390956    2.149673   -2.487717
    116          1           0       -8.880351    1.463223   -2.932009
    117          1           0       -8.817256    2.871400   -1.981192
    118          1           0      -10.001848    3.161253    0.143407
    119          1           0       -9.362475    1.913690    1.221711
    120          1           0      -11.688319    0.715006    0.475060
    121          1           0      -12.244287    2.334725    0.331114
    122          1           0      -10.981371    2.386414    2.793956
    123          1           0      -11.559299    0.755143    2.641707
    124          1           0      -13.281190    3.262728    2.242946
    125          1           0      -13.619721    3.279935    4.765485
    126          1           0      -11.934853    3.160315    4.310645
    127          1           0      -12.900712    1.693094    4.880610
    128          1           0      -14.890274    1.343261    3.428657
    129          1           0      -13.847702    0.281127    2.488152
    130          1           0      -14.830840    2.467625    0.832299
    131          1           0      -16.064484    1.523700    1.456797
    132          1           0      -15.784839   -0.340995    0.473660
    133          1           0      -13.971951   -0.167311    0.493500
    134          1           0      -14.887802    1.901891   -1.239857
    135          1           0      -16.057912    0.202654   -2.960277
    136          1           0      -16.764504    1.488615   -2.013653
    137          1           0      -16.910863   -0.195299   -1.439073
    138          1           0      -13.631020   -0.602744   -2.538807
    139          1           0      -12.678030    0.401784   -1.597540
    140          1           0      -13.713222    1.055285   -2.936494
 ---------------------------------------------------------------------

 SCF Done:  E(RwB97XD) =  -3007.86428648     A.U. after   19 cycles

 Excitation energies and oscillator strengths:

 Excited State   1:      Singlet-A      1.6918 eV  732.84 nm  f=0.3749  <S**2>=0.000
     245 -> 248        0.18807
     246 -> 247        0.68267
     245 <- 248        0.11589
 This state for optimization and/or second-order correction.
 Total Energy, E(TD-HF/TD-DFT) =  -3007.80211310
 Copying the excited state density for this state as the 1-particle RhoCI density.

 Excited State   2:      Singlet-A      2.2112 eV  560.71 nm  f=0.0745  <S**2>=0.000
     245 -> 247        0.62267
     246 -> 248       -0.32248

 Excited State   3:      Singlet-A      3.4553 eV  358.83 nm  f=0.3551  <S**2>=0.000
     239 -> 247        0.13515
     241 -> 247       -0.23138
     242 -> 247        0.35045
     243 -> 247       -0.17446
     245 -> 247        0.20456
     246 -> 248        0.46866

 Excited State   4:      Singlet-A      3.5697 eV  347.32 nm  f=0.2407  <S**2>=0.000
     241 -> 247        0.12700
     242 -> 247       -0.17841
     243 -> 247        0.52509
     245 -> 247        0.17926
     246 -> 248        0.34540

 Excited State   5:      Singlet-A      3.6087 eV  343.57 nm  f=0.0191  <S**2>=0.000
     240 -> 247        0.53017
     240 -> 249       -0.31004
     240 -> 250       -0.16962
     243 -> 247       -0.16858

 The electronic state is 1-A.
 Alpha  occ. eigenvalues --  -46.95095 -19.31677 -19.29484 -19.24894 -19.24811
 Alpha  occ. eigenvalues --  -19.24522 -19.23276 -14.46925 -14.46159 -14.44326
 Alpha  occ. eigenvalues --  -14.43598 -10.43500 -10.43278 -10.39411 -10.38276
 Alpha  occ. eigenvalues --  -10.36182 -10.36029 -10.35713 -10.35525 -10.34914
 Alpha  occ. eigenvalues --  -10.34636 -10.34537 -10.33877 -10.33458 -10.33043
 Alpha  occ. eigenvalues --  -10.32930 -10.32599 -10.32396 -10.32342 -10.32289
 Alpha  occ. eigenvalues --  -10.31824 -10.31739 -10.31688 -10.31505 -10.31482
 Alpha  occ. eigenvalues --  -10.31298 -10.31275 -10.30916 -10.30723 -10.30609
 Alpha  occ. eigenvalues --  -10.30470 -10.30236 -10.30155 -10.30076 -10.30012
 Alpha  occ. eigenvalues --  -10.29991 -10.29964 -10.29959 -10.29933 -10.29837
 Alpha  occ. eigenvalues --  -10.29646 -10.29495 -10.29278 -10.29170 -10.28973
 Alpha  occ. eigenvalues --  -10.28623 -10.28605 -10.28542 -10.28451 -10.28252
 Alpha  occ. eigenvalues --  -10.28194 -10.28147 -10.28131 -10.28095 -10.28047
 Alpha  occ. eigenvalues --  -10.27880  -3.20968  -1.94566  -1.94056  -1.93957
 Alpha  occ. eigenvalues --   -1.18647  -1.17706  -1.13292  -1.12639  -1.10732
 Alpha  occ. eigenvalues --   -1.09957  -1.05815  -1.04979  -1.04718  -1.03796
 Alpha  occ. eigenvalues --   -0.93768  -0.92173  -0.91243  -0.90971  -0.90553
 Alpha  occ. eigenvalues --   -0.90007  -0.89712  -0.89023  -0.88798  -0.88672
 Alpha  occ. eigenvalues --   -0.87643  -0.86837  -0.86125  -0.85630  -0.84724
 Alpha  occ. eigenvalues --   -0.84240  -0.83696  -0.83133  -0.82676  -0.81952
 Alpha  occ. eigenvalues --   -0.81560  -0.80381  -0.79579  -0.79396  -0.78169
 Alpha  occ. eigenvalues --   -0.77618  -0.77115  -0.76941  -0.76336  -0.75782
 Alpha  occ. eigenvalues --   -0.75440  -0.74408  -0.73727  -0.72167  -0.71633
 Alpha  occ. eigenvalues --   -0.70573  -0.69575  -0.69428  -0.68509  -0.67378
 Alpha  occ. eigenvalues --   -0.67155  -0.66915  -0.66625  -0.66298  -0.65841
 Alpha  occ. eigenvalues --   -0.65542  -0.64534  -0.64467  -0.64227  -0.61961
 Alpha  occ. eigenvalues --   -0.61955  -0.61306  -0.60866  -0.60433  -0.60031
 Alpha  occ. eigenvalues --   -0.59038  -0.58599  -0.58119  -0.57626  -0.57371
 Alpha  occ. eigenvalues --   -0.56783  -0.56535  -0.56373  -0.56200  -0.55935
 Alpha  occ. eigenvalues --   -0.55661  -0.55344  -0.55255  -0.54902  -0.54639
 Alpha  occ. eigenvalues --   -0.54143  -0.54048  -0.53750  -0.53578  -0.53510
 Alpha  occ. eigenvalues --   -0.53188  -0.53130  -0.52915  -0.52478  -0.52265
 Alpha  occ. eigenvalues --   -0.52124  -0.51909  -0.51527  -0.51423  -0.51329
 Alpha  occ. eigenvalues --   -0.51117  -0.50996  -0.50778  -0.50580  -0.50509
 Alpha  occ. eigenvalues --   -0.50433  -0.50314  -0.50082  -0.49982  -0.49913
 Alpha  occ. eigenvalues --   -0.49659  -0.49443  -0.49294  -0.48868  -0.48634
 Alpha  occ. eigenvalues --   -0.48141  -0.47836  -0.47698  -0.47231  -0.47145
 Alpha  occ. eigenvalues --   -0.47085  -0.47023  -0.46959  -0.46942  -0.46623
 Alpha  occ. eigenvalues --   -0.46441  -0.46372  -0.46286  -0.45935  -0.45820
 Alpha  occ. eigenvalues --   -0.45471  -0.45287  -0.45195  -0.45030  -0.44757
 Alpha  occ. eigenvalues --   -0.44594  -0.44437  -0.44384  -0.44227  -0.44086
 Alpha  occ. eigenvalues --   -0.43816  -0.43781  -0.43392  -0.43174  -0.42897
 Alpha  occ. eigenvalues --   -0.42840  -0.42547  -0.42402  -0.42248  -0.42145
 Alpha  occ. eigenvalues --   -0.41695  -0.41348  -0.41153  -0.40714  -0.40681
 Alpha  occ. eigenvalues --   -0.39909  -0.39767  -0.39634  -0.39477  -0.39196
 Alpha  occ. eigenvalues --   -0.39143  -0.39049  -0.38825  -0.38511  -0.37904
 Alpha  occ. eigenvalues --   -0.37848  -0.37534  -0.37013  -0.36395  -0.36124
 Alpha  occ. eigenvalues --   -0.35968  -0.35401  -0.34799  -0.33670  -0.33025
 Alpha  occ. eigenvalues --   -0.32633  -0.32522  -0.31642  -0.31593  -0.26124
 Alpha  occ. eigenvalues --   -0.22848
 Alpha virt. eigenvalues --   -0.06719   0.00050   0.02627   0.04730   0.05788
 Alpha virt. eigenvalues --    0.06953   0.07343   0.07910   0.08217   0.09585
 Alpha virt. eigenvalues --    0.10654   0.11796   0.11996   0.12009   0.12440

 Mulliken charges:
               1
     1  Mg   0.947708
     2  C    0.036936
     3  C   -0.103722
     4  C   -0.080530
     5  C   -0.082720
     6  N   -0.386297
     7  C    0.009183
     8  C   -0.053769
     9  C   -0.149902
    10  C    0.104892
    11  C    0.011705
    12  C    0.037433
    13  C   -0.033628
    14  C    0.233866
    15  O   -0.237235
    16  O   -0.401633
    17  N   -0.472381
    18  C    0.183710
    19  C   -0.178969
    20  C   -0.044044
    21  C    0.180904
    22  C    0.082323
    23  C    0.024057
    24  O   -0.213216
    25  C   -0.036769
    26  N   -0.345014
    27  C    0.028903
    28  C   -0.135341
    29  C   -0.054424
    30  C    0.078808
    31  C    0.038957
    32  C    0.005009
    33  C   -0.060460
    34  N   -0.410012
    35  C    0.134628
    36  C   -0.242756
    37  C   -0.011888
    38  C    0.054467
    39  C    0.097121
    40  C    0.106417
    41  O   -0.198368
    42  C   -0.089001
    43  C    0.278059
    44  O   -0.242372
    45  O   -0.354923
    46  C    0.122386
    47  C    0.242573
    48  C   -0.126205
    49  C   -0.197175
    50  C    0.007744
    51  C    0.031669
    52  C   -0.018954
    53  C    0.047682
    54  C   -0.189554
    55  C   -0.021726
    56  C    0.028385
    57  C    0.004813
    58  C   -0.048676
    59  C   -0.209897
    60  C   -0.010046
    61  C    0.065959
    62  C   -0.065074
    63  C    0.037177
    64  C   -0.209711
    65  C    0.000221
    66  C   -0.033431
    67  H    0.001607
    68  H    0.021804
    69  H    0.007476
    70  H    0.024958
    71  H    0.036164
    72  H    0.034828
    73  H    0.046684
    74  H    0.046727
    75  H    0.037856
    76  H    0.060815
    77  H    0.055403
    78  H    0.056776
    79  H    0.037755
    80  H    0.074755
    81  H    0.046643
    82  H    0.060992
    83  H    0.056862
    84  H    0.043026
    85  H    0.023979
    86  H    0.020763
    87  H    0.033563
    88  H    0.052012
    89  H    0.043025
    90  H    0.032246
    91  H    0.030813
    92  H    0.034270
    93  H    0.035365
    94  H    0.053512
    95  H    0.044818
    96  H    0.023186
    97  H    0.070904
    98  H    0.080118
    99  H    0.065690
   100  H    0.053022
   101  H    0.076663
   102  H    0.065609
   103  H    0.043616
   104  H    0.027383
   105  H    0.013570
   106  H    0.063073
   107  H    0.031705
   108  H    0.014495
   109  H    0.034835
   110  H    0.029233
   111  H    0.020944
   112  H    0.014758
   113  H    0.019008
   114  H    0.028837
   115  H    0.030797
   116  H    0.013791
   117  H    0.025444
   118  H    0.033955
   119  H    0.017669
   120  H    0.013816
   121  H    0.019213
   122  H    0.008489
   123  H    0.012376
   124  H    0.022642
   125  H    0.030422
   126  H    0.025331
   127  H    0.036203
   128  H    0.016655
   129  H    0.007608
   130  H    0.011959
   131  H    0.007868
   132  H    0.028903
   133  H    0.012297
   134  H    0.030063
   135  H    0.025015
   136  H    0.026088
   137  H    0.031268
   138  H    0.021186
   139  H    0.018289
   140  H    0.026637
 Sum of Mulliken charges =  -0.00000

 Dipole moment (field-independent basis, Debye):
    X=             -3.0622    Y=              1.8332    Z=             -3.0062  Tot=              4.6663
 Quadrupole moment (field-independent basis, Debye-Ang):
   XX=           -371.4432   YY=           -407.8117   ZZ=           -402.3668
   XY=              9.8390   XZ=              6.7446   YZ=             -5.1802

 Normal termination of Gaussian 16 at Fri Apr 29 19:38:32 2022.
