 Gaussian 16, Revision A.03,
 Gaussian 16:  ES64L-G16RevA.03 25-Dec-2016

 --------------------
 #p ZINDO=(nstates=5)
 --------------------

 ----------------------------
 step_451_chromophore_1 ZINDO
 ----------------------------
 Symbolic Z-matrix:
 Charge =  0 Multiplicity = 1

                         Standard orientation:
 ---------------------------------------------------------------------
 Center     Atomic      Atomic             Coordinates (Angstroms)
 Number     Number       Type             X           Y           Z
 ---------------------------------------------------------------------
      1         12           0        6.019418    0.514674    0.098178
      2          6           0        4.043879   -2.291602   -0.498244
      3          6           0        3.717550    2.571666   -1.453237
      4          6           0        8.173300    3.111286    0.339550
      5          6           0        8.751013   -1.649897    0.785613
      6          7           0        4.144486    0.148122   -0.904903
      7          6           0        3.438134   -1.067288   -0.930959
      8          6           0        2.043783   -0.800083   -1.444056
      9          6           0        2.151864    0.663084   -2.121042
     10          6           0        3.471120    1.187907   -1.455967
     11          6           0        2.113877    0.589288   -3.757914
     12          6           0        0.899579   -0.919287   -0.356173
     13          6           0       -0.367532   -1.667281   -0.809439
     14          6           0       -1.543604   -1.698426    0.146948
     15          8           0       -1.605467   -1.152639    1.226203
     16          8           0       -2.550854   -2.532378   -0.342226
     17          7           0        5.894811    2.566211   -0.371305
     18          6           0        4.812073    3.241859   -0.920340
     19          6           0        5.141981    4.665948   -1.015135
     20          6           0        6.395386    4.825503   -0.383418
     21          6           0        6.900946    3.479013   -0.084184
     22          6           0        4.167516    5.644358   -1.805066
     23          6           0        7.128269    6.109651   -0.153146
     24          8           0        8.264609    6.205250    0.250568
     25          6           0        6.335376    7.472889   -0.412427
     26          7           0        8.167275    0.731745    0.514478
     27          6           0        8.809687    1.899632    0.618245
     28          6           0       10.302206    1.634372    0.828897
     29          6           0       10.325309    0.158646    1.376034
     30          6           0        8.970773   -0.324534    0.920284
     31          6           0       11.257134    1.988260   -0.405888
     32          6           0       10.710038    0.156455    2.867656
     33          6           0        9.604544    0.456520    3.942623
     34          7           0        6.358899   -1.573130    0.212679
     35          6           0        7.508892   -2.262843    0.553867
     36          6           0        7.233924   -3.691326    0.354295
     37          6           0        5.885948   -3.806758    0.015929
     38          6           0        5.403041   -2.444966   -0.090161
     39          6           0        8.234719   -4.860702    0.375907
     40          6           0        4.705566   -4.651157   -0.263195
     41          8           0        4.577711   -5.850029   -0.274723
     42          6           0        3.567795   -3.769323   -0.659165
     43          6           0        2.367831   -4.206047    0.120657
     44          8           0        2.177221   -3.751320    1.240928
     45          8           0        1.599111   -4.954459   -0.708918
     46          6           0        0.404979   -5.640710   -0.148206
     47          6           0       -3.730258   -2.862663    0.449306
     48          6           0       -4.961487   -2.142215   -0.152300
     49          6           0       -6.200436   -2.666054   -0.364969
     50          6           0       -6.527381   -4.170273   -0.179553
     51          6           0       -7.362865   -1.950759   -1.008252
     52          6           0       -8.163687   -0.980298   -0.120752
     53          6           0       -8.069826    0.479034   -0.508074
     54          6           0       -9.423661    1.104996   -0.806263
     55          6           0       -9.391189    1.952801   -2.102697
     56          6           0       -9.984346    2.089319    0.344066
     57          6           0      -11.450197    1.735104    0.775635
     58          6           0      -11.657029    1.754954    2.216702
     59          6           0      -13.107293    2.327833    2.775773
     60          6           0      -12.881801    2.620770    4.307506
     61          6           0      -14.219567    1.302398    2.570953
     62          6           0      -14.992736    1.480836    1.264708
     63          6           0      -14.930243    0.306869    0.281175
     64          6           0      -14.944703    0.814215   -1.190595
     65          6           0      -16.262942    0.523344   -1.939064
     66          6           0      -13.655150    0.385453   -2.078854
     67          1           0        2.894677    3.156838   -1.869514
     68          1           0        8.858659    3.911234    0.627705
     69          1           0        9.586838   -2.283315    1.090599
     70          1           0        1.951619   -1.562033   -2.217752
     71          1           0        1.317437    1.308639   -1.846271
     72          1           0        2.117477   -0.470555   -4.010853
     73          1           0        3.019350    1.040088   -4.163467
     74          1           0        1.207927    1.045321   -4.157591
     75          1           0        0.672973    0.087701   -0.006670
     76          1           0        1.317144   -1.419899    0.517138
     77          1           0       -0.204724   -2.723473   -1.020516
     78          1           0       -0.652508   -1.157652   -1.729357
     79          1           0        3.315554    4.995026   -2.005176
     80          1           0        4.712886    6.117817   -2.621779
     81          1           0        3.833778    6.431957   -1.129993
     82          1           0        7.050811    8.236902   -0.107152
     83          1           0        5.413290    7.493868    0.167945
     84          1           0        6.050532    7.505739   -1.463351
     85          1           0       10.636006    2.319148    1.608263
     86          1           0       11.093364   -0.243283    0.715611
     87          1           0       10.552077    2.521499   -1.043068
     88          1           0       11.678391    1.093607   -0.863914
     89          1           0       11.939575    2.793938   -0.135159
     90          1           0       11.501536    0.901411    2.948883
     91          1           0       11.122858   -0.823202    3.109956
     92          1           0        9.830547    1.425722    4.387221
     93          1           0        9.653666   -0.201857    4.809891
     94          1           0        8.579685    0.412272    3.574379
     95          1           0        8.379233   -5.115018    1.425692
     96          1           0        9.220142   -4.459520    0.134045
     97          1           0        7.913583   -5.676700   -0.271696
     98          1           0        3.431640   -3.946002   -1.726824
     99          1           0        0.467522   -6.709426   -0.352412
    100          1           0       -0.422770   -5.293150   -0.766174
    101          1           0        0.123094   -5.487536    0.893274
    102          1           0       -3.681736   -2.495414    1.474660
    103          1           0       -3.793313   -3.950413    0.433521
    104          1           0       -4.653436   -1.268921   -0.726791
    105          1           0       -5.772739   -4.709061    0.393156
    106          1           0       -6.760914   -4.660164   -1.125433
    107          1           0       -7.351671   -4.320483    0.517178
    108          1           0       -8.075574   -2.708141   -1.333839
    109          1           0       -6.948728   -1.439066   -1.877362
    110          1           0       -7.858744   -1.047617    0.923391
    111          1           0       -9.179516   -1.368076   -0.191508
    112          1           0       -7.375452    0.681217   -1.323433
    113          1           0       -7.644084    0.952111    0.376397
    114          1           0      -10.162417    0.340968   -1.045946
    115          1           0      -10.390956    2.149673   -2.487717
    116          1           0       -8.880351    1.463223   -2.932009
    117          1           0       -8.817256    2.871400   -1.981192
    118          1           0      -10.001848    3.161253    0.143407
    119          1           0       -9.362475    1.913690    1.221711
    120          1           0      -11.688319    0.715006    0.475060
    121          1           0      -12.244287    2.334725    0.331114
    122          1           0      -10.981371    2.386414    2.793956
    123          1           0      -11.559299    0.755143    2.641707
    124          1           0      -13.281190    3.262728    2.242946
    125          1           0      -13.619721    3.279935    4.765485
    126          1           0      -11.934853    3.160315    4.310645
    127          1           0      -12.900712    1.693094    4.880610
    128          1           0      -14.890274    1.343261    3.428657
    129          1           0      -13.847702    0.281127    2.488152
    130          1           0      -14.830840    2.467625    0.832299
    131          1           0      -16.064484    1.523700    1.456797
    132          1           0      -15.784839   -0.340995    0.473660
    133          1           0      -13.971951   -0.167311    0.493500
    134          1           0      -14.887802    1.901891   -1.239857
    135          1           0      -16.057912    0.202654   -2.960277
    136          1           0      -16.764504    1.488615   -2.013653
    137          1           0      -16.910863   -0.195299   -1.439073
    138          1           0      -13.631020   -0.602744   -2.538807
    139          1           0      -12.678030    0.401784   -1.597540
    140          1           0      -13.713222    1.055285   -2.936494
 ---------------------------------------------------------------------

 SCF Done:  E(RZINDO/S) =  -474.006992366     A.U. after   19 cycles

 Excitation energies and oscillator strengths:

 Excited State   1:      Singlet-A      1.3032 eV  951.41 nm  f=0.5799  <S**2>=0.000
     175 ->178         0.18058
     176 ->177         0.66741
 This state for optimization and/or second-order correction.
 Total Energy, E(CIS/TDA) =  -473.959101975
 Copying the excited state density for this state as the 1-particle RhoCI density.

 Excited State   2:      Singlet-A      1.9583 eV  633.13 nm  f=0.0141  <S**2>=0.000
     175 ->177         0.51559
     176 ->178        -0.45944

 Excited State   3:      Singlet-A      2.9900 eV  414.66 nm  f=0.0354  <S**2>=0.000
     167 ->177         0.11467
     167 ->179        -0.17625
     168 ->177         0.30620
     168 ->179        -0.39062
     168 ->180         0.19888
     168 ->186        -0.21002
     168 ->188         0.10060

 Excited State   4:      Singlet-A      3.0164 eV  411.03 nm  f=0.7921  <S**2>=0.000
     175 ->177         0.35524
     176 ->178         0.42038
     176 ->179        -0.31378
     176 ->180        -0.17801
     176 ->183        -0.11293

 Excited State   5:      Singlet-A      3.0849 eV  401.91 nm  f=0.4951  <S**2>=0.000
     175 ->177         0.23445
     176 ->178         0.26570
     176 ->179         0.53936
     176 ->180         0.10815

 The electronic state is 1-A.
 Alpha  occ. eigenvalues --   -1.82506  -1.80336  -1.78641  -1.71645  -1.71085
 Alpha  occ. eigenvalues --   -1.69228  -1.65105  -1.60355  -1.59039  -1.58624
 Alpha  occ. eigenvalues --   -1.53172  -1.50830  -1.49067  -1.47802  -1.45230
 Alpha  occ. eigenvalues --   -1.43294  -1.41845  -1.38913  -1.38863  -1.37296
 Alpha  occ. eigenvalues --   -1.34616  -1.33341  -1.32203  -1.31632  -1.29535
 Alpha  occ. eigenvalues --   -1.29114  -1.24702  -1.21887  -1.20174  -1.18293
 Alpha  occ. eigenvalues --   -1.16792  -1.15276  -1.14732  -1.13554  -1.13231
 Alpha  occ. eigenvalues --   -1.11880  -1.11806  -1.09700  -1.05153  -1.04216
 Alpha  occ. eigenvalues --   -1.03402  -1.00473  -0.98332  -0.97541  -0.97066
 Alpha  occ. eigenvalues --   -0.95053  -0.94740  -0.93593  -0.92956  -0.92599
 Alpha  occ. eigenvalues --   -0.91452  -0.90492  -0.89224  -0.87372  -0.86564
 Alpha  occ. eigenvalues --   -0.85061  -0.83198  -0.82513  -0.81152  -0.80810
 Alpha  occ. eigenvalues --   -0.79756  -0.79117  -0.77320  -0.76291  -0.75875
 Alpha  occ. eigenvalues --   -0.75484  -0.75098  -0.74067  -0.73987  -0.73028
 Alpha  occ. eigenvalues --   -0.72441  -0.72150  -0.71655  -0.71451  -0.70443
 Alpha  occ. eigenvalues --   -0.69493  -0.69351  -0.68948  -0.68299  -0.67673
 Alpha  occ. eigenvalues --   -0.67450  -0.66972  -0.66759  -0.66415  -0.65946
 Alpha  occ. eigenvalues --   -0.64888  -0.64410  -0.64316  -0.63466  -0.63168
 Alpha  occ. eigenvalues --   -0.62778  -0.62351  -0.61937  -0.61600  -0.61456
 Alpha  occ. eigenvalues --   -0.61404  -0.61074  -0.60524  -0.59921  -0.59791
 Alpha  occ. eigenvalues --   -0.59659  -0.59100  -0.58546  -0.58410  -0.58309
 Alpha  occ. eigenvalues --   -0.57898  -0.57595  -0.57294  -0.56767  -0.56562
 Alpha  occ. eigenvalues --   -0.56247  -0.55512  -0.55256  -0.54576  -0.54319
 Alpha  occ. eigenvalues --   -0.53909  -0.53704  -0.53109  -0.52923  -0.52768
 Alpha  occ. eigenvalues --   -0.52553  -0.52087  -0.51815  -0.51624  -0.51455
 Alpha  occ. eigenvalues --   -0.51277  -0.51014  -0.50864  -0.50517  -0.50488
 Alpha  occ. eigenvalues --   -0.50314  -0.49962  -0.49378  -0.49134  -0.48988
 Alpha  occ. eigenvalues --   -0.48802  -0.48627  -0.48402  -0.48320  -0.47904
 Alpha  occ. eigenvalues --   -0.47418  -0.47296  -0.47029  -0.46987  -0.46605
 Alpha  occ. eigenvalues --   -0.46517  -0.45695  -0.45654  -0.45568  -0.44986
 Alpha  occ. eigenvalues --   -0.44531  -0.44429  -0.44210  -0.44100  -0.43801
 Alpha  occ. eigenvalues --   -0.43442  -0.43137  -0.42982  -0.42306  -0.42074
 Alpha  occ. eigenvalues --   -0.41475  -0.41256  -0.40929  -0.39007  -0.38679
 Alpha  occ. eigenvalues --   -0.37855  -0.36681  -0.35819  -0.34866  -0.34297
 Alpha  occ. eigenvalues --   -0.34090  -0.32381  -0.31841  -0.31777  -0.26824
 Alpha  occ. eigenvalues --   -0.21533
 Alpha virt. eigenvalues --   -0.08034  -0.02019  -0.00307   0.01497   0.01970
 Alpha virt. eigenvalues --    0.02566   0.02781   0.03078   0.03870   0.05121
 Alpha virt. eigenvalues --    0.06503   0.06707   0.07323   0.07576   0.08300

 Mulliken charges:
               1
     1  Mg   0.423080
     2  C   -0.045715
     3  C   -0.081816
     4  C   -0.062513
     5  C   -0.047453
     6  N   -0.278387
     7  C    0.100129
     8  C    0.002620
     9  C   -0.016572
    10  C    0.160340
    11  C   -0.056239
    12  C   -0.020284
    13  C    0.011881
    14  C    0.468901
    15  O   -0.503537
    16  O   -0.293172
    17  N   -0.344537
    18  C    0.130020
    19  C    0.008170
    20  C   -0.022123
    21  C    0.152649
    22  C   -0.048994
    23  C    0.318277
    24  O   -0.502780
    25  C   -0.041118
    26  N   -0.272916
    27  C    0.170217
    28  C   -0.007296
    29  C   -0.002953
    30  C    0.094792
    31  C   -0.058846
    32  C   -0.019390
    33  C   -0.056760
    34  N   -0.302126
    35  C    0.060678
    36  C    0.017203
    37  C   -0.076597
    38  C    0.101343
    39  C   -0.044704
    40  C    0.350065
    41  O   -0.529500
    42  C    0.058102
    43  C    0.500408
    44  O   -0.520969
    45  O   -0.256178
    46  C    0.071621
    47  C    0.105658
    48  C   -0.094943
    49  C   -0.003644
    50  C   -0.048862
    51  C   -0.019176
    52  C   -0.026025
    53  C   -0.024625
    54  C   -0.011651
    55  C   -0.060671
    56  C   -0.039025
    57  C   -0.032569
    58  C   -0.040186
    59  C   -0.025112
    60  C   -0.064507
    61  C   -0.028757
    62  C   -0.043641
    63  C   -0.028904
    64  C   -0.015870
    65  C   -0.057180
    66  C   -0.071349
    67  H    0.027598
    68  H    0.032683
    69  H    0.025239
    70  H    0.024396
    71  H    0.028607
    72  H    0.022886
    73  H    0.027256
    74  H    0.026841
    75  H    0.030781
    76  H    0.039845
    77  H    0.047340
    78  H    0.037302
    79  H    0.038003
    80  H    0.044098
    81  H    0.029152
    82  H    0.043518
    83  H    0.035333
    84  H    0.036223
    85  H    0.020350
    86  H    0.027473
    87  H    0.021923
    88  H    0.037488
    89  H    0.029460
    90  H    0.020500
    91  H    0.015407
    92  H    0.016609
    93  H    0.018109
    94  H    0.031949
    95  H    0.032079
    96  H    0.018251
    97  H    0.043328
    98  H    0.049525
    99  H    0.040266
   100  H    0.025292
   101  H    0.059412
   102  H    0.057972
   103  H    0.041601
   104  H    0.037757
   105  H    0.015917
   106  H    0.036753
   107  H    0.019279
   108  H    0.016816
   109  H    0.024372
   110  H    0.021695
   111  H    0.017816
   112  H    0.024371
   113  H    0.015983
   114  H    0.026518
   115  H    0.015955
   116  H    0.005735
   117  H    0.017282
   118  H    0.030238
   119  H    0.018785
   120  H    0.014475
   121  H    0.021804
   122  H    0.015213
   123  H    0.014595
   124  H    0.026686
   125  H    0.014367
   126  H    0.018677
   127  H    0.024929
   128  H    0.016627
   129  H    0.021185
   130  H    0.023015
   131  H    0.003697
   132  H    0.027920
   133  H    0.021735
   134  H    0.019950
   135  H    0.018529
   136  H    0.015136
   137  H    0.023928
   138  H    0.015917
   139  H    0.023048
   140  H    0.013222
 Sum of Mulliken charges =  -0.00000

 Dipole moment (field-independent basis, Debye):
    X=             -3.9708    Y=              4.8511    Z=             -6.1439  Tot=              8.7777
 N-N= 4.217181807934D+03 E-N= 0.000000000000D+00  KE=-9.108959077121D+03
 Leave Link  601 at Fri Apr 29 19:58:25 2022, MaxMem=  6710886400 cpu:               0.7 elap:               0.0
 (Enter /sw/apps/gaussian-16.0/g16/l9999.exe)
 1\1\GINC-BP1-COMPUTE137\SP\RZINDO CIS\STO-3G\C55H74Mg1N4O6\OF15641\29-
 Apr-2022\0\\#p ZINDO=(nstates=5)\\step_451_chromophore_1 ZINDO\\0,1\Mg
 ,0,-2.361,17.201,27.\C,0,-2.669,14.946,29.637\C,0,-3.248,19.843,29.042
 \C,0,-2.45,19.252,24.312\C,0,-2.416,14.455,24.747\N,0,-2.947,17.34,29.
 072\C,0,-2.887,16.308,30.025\C,0,-3.065,16.912,31.397\C,0,-3.664,18.38
 3,31.1\C,0,-3.276,18.549,29.59\C,0,-5.254,18.49,31.483\C,0,-1.761,16.9
 21,32.295\C,0,-1.967,16.505,33.763\C,0,-0.779,16.62,34.698\O,0,0.317,1

 Normal termination of Gaussian 16 at Fri Apr 29 19:58:25 2022.
