 Gaussian 16, Revision A.03,
 Gaussian 16:  ES64L-G16RevA.03 25-Dec-2016

 ------------------------------
 #p blyp/Def2SVP td=(nstates=5)
 ------------------------------

 ---------------------------------------------------
 step_1001_chromophore_21 TDDFT with blyp functional
 ---------------------------------------------------
 Symbolic Z-matrix:
 Charge =  0 Multiplicity = 1

                         Standard orientation:
 ---------------------------------------------------------------------
 Center     Atomic      Atomic             Coordinates (Angstroms)
 Number     Number       Type             X           Y           Z
 ---------------------------------------------------------------------
      1         12           0        5.195765    1.196757    0.259218
      2          6           0        4.964167   -2.362262    0.165895
      3          6           0        1.837735    1.298830   -0.480493
      4          6           0        5.461559    4.561928    0.166780
      5          6           0        8.603005    0.929350    0.146485
      6          7           0        3.608121   -0.349865   -0.004363
      7          6           0        3.715686   -1.762712    0.099311
      8          6           0        2.301861   -2.358966    0.179329
      9          6           0        1.390056   -1.162880   -0.334289
     10          6           0        2.329960    0.003739   -0.275006
     11          6           0        0.787647   -1.326229   -1.708043
     12          6           0        2.068650   -2.892830    1.576646
     13          6           0        0.940461   -3.940572    1.852380
     14          6           0        0.064432   -4.401336    0.664218
     15          8           0        0.341286   -5.313601   -0.143228
     16          8           0       -1.088268   -3.697519    0.644627
     17          7           0        3.820763    2.739731    0.004072
     18          6           0        2.543041    2.588579   -0.405954
     19          6           0        1.884546    3.816308   -0.635055
     20          6           0        2.930878    4.769292   -0.561194
     21          6           0        4.132556    4.042734   -0.097792
     22          6           0        0.448197    3.960313   -0.985058
     23          6           0        2.969761    6.254676   -0.910910
     24          8           0        3.877686    7.051011   -0.713945
     25          6           0        1.709718    6.841819   -1.576123
     26          7           0        6.790122    2.564859    0.274247
     27          6           0        6.626615    3.899726    0.369539
     28          6           0        7.944288    4.572210    0.814377
     29          6           0        9.006616    3.390596    0.623112
     30          6           0        8.121115    2.234001    0.254778
     31          6           0        8.473610    5.829541    0.065577
     32          6           0       10.042962    3.113404    1.742276
     33          6           0       11.463206    3.448069    1.504385
     34          7           0        6.523456   -0.399962    0.249271
     35          6           0        7.877065   -0.342090    0.172673
     36          6           0        8.414965   -1.693815    0.111315
     37          6           0        7.315065   -2.541051    0.078243
     38          6           0        6.185082   -1.704744    0.165793
     39          6           0        9.895877   -2.024705   -0.042009
     40          6           0        6.888117   -3.863063   -0.066640
     41          8           0        7.520554   -4.895213   -0.145960
     42          6           0        5.326905   -3.827271    0.051102
     43          6           0        4.873188   -4.383162   -1.163688
     44          8           0        4.786349   -3.864275   -2.240198
     45          8           0        4.458017   -5.675280   -0.871206
     46          6           0        3.854722   -6.546007   -1.870228
     47          6           0       -2.040192   -4.106030   -0.450500
     48          6           0       -3.251993   -3.152691   -0.305894
     49          6           0       -4.403294   -3.143998   -0.944496
     50          6           0       -4.729539   -4.031502   -2.127759
     51          6           0       -5.345956   -1.993864   -0.617135
     52          6           0       -6.716723   -2.415225    0.069713
     53          6           0       -7.004769   -1.916465    1.523614
     54          6           0       -8.140586   -0.847629    1.555065
     55          6           0       -7.842215    0.162393    2.664750
     56          6           0       -9.498855   -1.500601    1.759476
     57          6           0      -10.623538   -1.000603    0.754133
     58          6           0      -12.015763   -0.945144    1.385756
     59          6           0      -12.666872    0.409557    1.054972
     60          6           0      -12.577953    1.288176    2.249279
     61          6           0      -14.109040    0.278016    0.375929
     62          6           0      -14.165966    1.252231   -0.831251
     63          6           0      -15.586214    1.818570   -1.005832
     64          6           0      -15.739315    3.358996   -1.401267
     65          6           0      -14.682069    3.734490   -2.534713
     66          6           0      -15.912528    4.212714   -0.117779
     67          1           0        0.784398    1.260671   -0.765167
     68          1           0        5.637290    5.635802    0.259029
     69          1           0        9.692207    0.860427    0.165180
     70          1           0        2.183346   -3.237608   -0.455293
     71          1           0        0.619893   -0.984722    0.415678
     72          1           0       -0.276272   -1.483667   -1.532083
     73          1           0        1.328804   -2.143291   -2.185582
     74          1           0        1.018373   -0.399344   -2.232390
     75          1           0        1.867470   -2.046297    2.233139
     76          1           0        3.029454   -3.344733    1.824954
     77          1           0        0.361503   -3.561583    2.695087
     78          1           0        1.536090   -4.814251    2.116592
     79          1           0       -0.077660    3.140484   -0.494803
     80          1           0        0.276243    3.979556   -2.061682
     81          1           0       -0.020198    4.831176   -0.527223
     82          1           0        1.633444    6.146490   -2.411590
     83          1           0        2.064737    7.738235   -2.085215
     84          1           0        0.880037    6.776679   -0.873320
     85          1           0        7.876701    4.856047    1.864327
     86          1           0        9.546020    3.501195   -0.318058
     87          1           0        9.499198    5.712470   -0.283038
     88          1           0        8.484529    6.673447    0.755792
     89          1           0        7.857703    6.003334   -0.816455
     90          1           0        9.896001    2.147798    2.226558
     91          1           0        9.822486    3.802189    2.557733
     92          1           0       11.837534    4.211455    2.185377
     93          1           0       11.620446    3.892529    0.522250
     94          1           0       12.150882    2.602136    1.543061
     95          1           0       10.417637   -1.687416    0.853279
     96          1           0       10.287403   -1.491933   -0.908003
     97          1           0        9.936887   -3.100399   -0.216910
     98          1           0        5.096119   -4.449575    0.916123
     99          1           0        3.580309   -7.537025   -1.507598
    100          1           0        4.548835   -6.652092   -2.703537
    101          1           0        2.921518   -6.166945   -2.287129
    102          1           0       -2.206837   -5.172610   -0.306964
    103          1           0       -1.540417   -4.069015   -1.418181
    104          1           0       -3.035472   -2.360461    0.410904
    105          1           0       -5.007514   -3.371581   -2.949264
    106          1           0       -5.541768   -4.739453   -1.968213
    107          1           0       -3.801623   -4.453454   -2.515483
    108          1           0       -5.626805   -1.512222   -1.554193
    109          1           0       -4.858158   -1.285012    0.051188
    110          1           0       -6.860669   -3.493974    0.020125
    111          1           0       -7.463374   -2.016209   -0.617680
    112          1           0       -6.068766   -1.459191    1.846971
    113          1           0       -7.212489   -2.706866    2.244370
    114          1           0       -8.113009   -0.318643    0.603130
    115          1           0       -8.808882    0.363017    3.124437
    116          1           0       -7.432922    1.107167    2.305881
    117          1           0       -7.183738   -0.183430    3.461374
    118          1           0       -9.865533   -1.320002    2.769799
    119          1           0       -9.459716   -2.582019    1.631774
    120          1           0      -10.749795   -1.778321    0.001018
    121          1           0      -10.300688   -0.077765    0.273201
    122          1           0      -11.880345   -1.135591    2.449320
    123          1           0      -12.727501   -1.729853    1.130091
    124          1           0      -12.108216    1.090476    0.414589
    125          1           0      -11.729033    1.036214    2.885761
    126          1           0      -13.534839    1.235080    2.768117
    127          1           0      -12.390891    2.292662    1.868719
    128          1           0      -14.955910    0.591819    0.986805
    129          1           0      -14.381386   -0.710412    0.006268
    130          1           0      -13.915404    0.667234   -1.715939
    131          1           0      -13.539535    2.125013   -0.649218
    132          1           0      -16.149328    1.708392   -0.078898
    133          1           0      -16.081988    1.224848   -1.773645
    134          1           0      -16.753967    3.331150   -1.797059
    135          1           0      -13.897992    4.390952   -2.157961
    136          1           0      -15.207256    4.211985   -3.361104
    137          1           0      -14.293107    2.821753   -2.985265
    138          1           0      -16.966580    4.062770    0.115796
    139          1           0      -15.726032    5.283266   -0.205680
    140          1           0      -15.292903    3.878780    0.715316
 ---------------------------------------------------------------------

 SCF Done:  E(RB-LYP) =  -3007.36779145     A.U. after   20 cycles

 Excitation energies and oscillator strengths:

 Excited State   1:      Singlet-A      1.6941 eV  731.85 nm  f=0.0031  <S**2>=0.000
     244 -> 247        0.67903
     245 -> 247       -0.19464
 This state for optimization and/or second-order correction.
 Total Energy, E(TD-HF/TD-DFT) =  -3007.30553356
 Copying the excited state density for this state as the 1-particle RhoCI density.

 Excited State   2:      Singlet-A      1.7920 eV  691.88 nm  f=0.3111  <S**2>=0.000
     245 -> 248        0.18013
     246 -> 247        0.69715
     246 <- 247       -0.16392

 Excited State   3:      Singlet-A      1.9654 eV  630.82 nm  f=0.0105  <S**2>=0.000
     243 -> 247        0.67166
     245 -> 247        0.19883

 Excited State   4:      Singlet-A      2.0269 eV  611.71 nm  f=0.1094  <S**2>=0.000
     243 -> 247       -0.21675
     244 -> 247        0.17853
     245 -> 247        0.60552
     246 -> 248       -0.20320

 Excited State   5:      Singlet-A      2.6180 eV  473.59 nm  f=0.0003  <S**2>=0.000
     240 -> 247       -0.48332
     241 -> 247       -0.10965
     242 -> 247        0.49826

 The electronic state is 1-A.
 Alpha  occ. eigenvalues --  -46.26911 -18.83407 -18.80162 -18.77342 -18.75956
 Alpha  occ. eigenvalues --  -18.75713 -18.75350 -14.03219 -14.02639 -14.01323
 Alpha  occ. eigenvalues --  -14.00922 -10.04888 -10.02634  -9.99439  -9.99213
 Alpha  occ. eigenvalues --   -9.98937  -9.96740  -9.96395  -9.96269  -9.95974
 Alpha  occ. eigenvalues --   -9.95957  -9.95806  -9.95768  -9.95626  -9.94224
 Alpha  occ. eigenvalues --   -9.94108  -9.94057  -9.93943  -9.93691  -9.93644
 Alpha  occ. eigenvalues --   -9.93494  -9.93372  -9.93364  -9.93311  -9.93262
 Alpha  occ. eigenvalues --   -9.93136  -9.93084  -9.93058  -9.92849  -9.92845
 Alpha  occ. eigenvalues --   -9.92669  -9.92574  -9.92561  -9.92396  -9.92351
 Alpha  occ. eigenvalues --   -9.92233  -9.92026  -9.92016  -9.91992  -9.91987
 Alpha  occ. eigenvalues --   -9.91795  -9.91727  -9.91646  -9.91307  -9.91283
 Alpha  occ. eigenvalues --   -9.91261  -9.91244  -9.91150  -9.91145  -9.91074
 Alpha  occ. eigenvalues --   -9.90932  -9.90896  -9.90682  -9.90647  -9.90630
 Alpha  occ. eigenvalues --   -9.90488  -2.91557  -1.72002  -1.71400  -1.71293
 Alpha  occ. eigenvalues --   -0.98348  -0.96702  -0.91936  -0.91115  -0.89449
 Alpha  occ. eigenvalues --   -0.89334  -0.86943  -0.86577  -0.85747  -0.84831
 Alpha  occ. eigenvalues --   -0.76518  -0.74051  -0.73327  -0.73030  -0.72807
 Alpha  occ. eigenvalues --   -0.72210  -0.71843  -0.71214  -0.70722  -0.70669
 Alpha  occ. eigenvalues --   -0.69819  -0.68956  -0.67983  -0.67878  -0.67434
 Alpha  occ. eigenvalues --   -0.66769  -0.66071  -0.65332  -0.65005  -0.64601
 Alpha  occ. eigenvalues --   -0.64225  -0.62902  -0.62449  -0.61938  -0.61267
 Alpha  occ. eigenvalues --   -0.60610  -0.60514  -0.59956  -0.59541  -0.58726
 Alpha  occ. eigenvalues --   -0.58359  -0.57994  -0.56481  -0.55669  -0.54762
 Alpha  occ. eigenvalues --   -0.54433  -0.53497  -0.52730  -0.52283  -0.51875
 Alpha  occ. eigenvalues --   -0.51505  -0.51360  -0.50872  -0.50376  -0.50320
 Alpha  occ. eigenvalues --   -0.50191  -0.49250  -0.47914  -0.47060  -0.46786
 Alpha  occ. eigenvalues --   -0.46586  -0.46038  -0.45756  -0.45101  -0.44975
 Alpha  occ. eigenvalues --   -0.44075  -0.43265  -0.43044  -0.42497  -0.42292
 Alpha  occ. eigenvalues --   -0.42234  -0.42125  -0.41540  -0.41511  -0.41242
 Alpha  occ. eigenvalues --   -0.41078  -0.40729  -0.40349  -0.40216  -0.39949
 Alpha  occ. eigenvalues --   -0.39914  -0.39838  -0.39611  -0.39278  -0.39015
 Alpha  occ. eigenvalues --   -0.38941  -0.38739  -0.38563  -0.38523  -0.38338
 Alpha  occ. eigenvalues --   -0.38050  -0.38025  -0.37985  -0.37538  -0.37285
 Alpha  occ. eigenvalues --   -0.37017  -0.36871  -0.36571  -0.36499  -0.36430
 Alpha  occ. eigenvalues --   -0.36316  -0.36106  -0.35885  -0.35857  -0.35722
 Alpha  occ. eigenvalues --   -0.35635  -0.35403  -0.35291  -0.35140  -0.34854
 Alpha  occ. eigenvalues --   -0.34754  -0.34571  -0.34293  -0.34229  -0.34007
 Alpha  occ. eigenvalues --   -0.33961  -0.33862  -0.33655  -0.33606  -0.33275
 Alpha  occ. eigenvalues --   -0.33173  -0.33049  -0.32767  -0.32483  -0.32459
 Alpha  occ. eigenvalues --   -0.32047  -0.31801  -0.31668  -0.31463  -0.31381
 Alpha  occ. eigenvalues --   -0.31228  -0.31212  -0.31050  -0.30868  -0.30618
 Alpha  occ. eigenvalues --   -0.30529  -0.30201  -0.30112  -0.29994  -0.29927
 Alpha  occ. eigenvalues --   -0.29767  -0.29418  -0.29367  -0.29112  -0.29033
 Alpha  occ. eigenvalues --   -0.28887  -0.28571  -0.28105  -0.27958  -0.27823
 Alpha  occ. eigenvalues --   -0.27703  -0.27255  -0.27218  -0.26841  -0.26518
 Alpha  occ. eigenvalues --   -0.26191  -0.26133  -0.26044  -0.25729  -0.25439
 Alpha  occ. eigenvalues --   -0.25411  -0.24217  -0.23842  -0.23571  -0.23240
 Alpha  occ. eigenvalues --   -0.22950  -0.22359  -0.22139  -0.21492  -0.21454
 Alpha  occ. eigenvalues --   -0.21115  -0.20875  -0.18968  -0.18016  -0.17243
 Alpha  occ. eigenvalues --   -0.15905
 Alpha virt. eigenvalues --   -0.11827  -0.06379  -0.06139  -0.04348  -0.03853
 Alpha virt. eigenvalues --   -0.02253  -0.01869  -0.01116  -0.00887   0.00762
 Alpha virt. eigenvalues --    0.01255   0.01495   0.02039   0.02491   0.02676

 Mulliken charges:
               1
     1  Mg   0.701784
     2  C    0.021728
     3  C   -0.077024
     4  C   -0.025089
     5  C   -0.077022
     6  N   -0.223442
     7  C   -0.080073
     8  C    0.013288
     9  C   -0.017040
    10  C    0.003200
    11  C    0.163138
    12  C    0.085392
    13  C    0.204483
    14  C    0.061724
    15  O   -0.225487
    16  O   -0.268590
    17  N   -0.246883
    18  C    0.140629
    19  C   -0.157430
    20  C    0.032219
    21  C    0.087181
    22  C    0.185751
    23  C   -0.106685
    24  O   -0.159385
    25  C    0.143512
    26  N   -0.240962
    27  C    0.021098
    28  C    0.003514
    29  C    0.063668
    30  C   -0.003045
    31  C    0.120571
    32  C    0.116182
    33  C    0.062616
    34  N   -0.229549
    35  C    0.104512
    36  C   -0.219699
    37  C    0.173665
    38  C    0.051637
    39  C    0.182987
    40  C   -0.138737
    41  O   -0.114708
    42  C    0.074211
    43  C    0.110632
    44  O   -0.155768
    45  O   -0.291858
    46  C    0.230363
    47  C    0.280325
    48  C   -0.109039
    49  C   -0.114577
    50  C    0.158004
    51  C    0.135221
    52  C    0.053002
    53  C    0.109796
    54  C   -0.082200
    55  C    0.115601
    56  C    0.113206
    57  C    0.055710
    58  C    0.131721
    59  C   -0.094374
    60  C    0.111050
    61  C    0.110479
    62  C    0.050873
    63  C    0.030672
    64  C   -0.071868
    65  C    0.113199
    66  C    0.090049
    67  H   -0.062819
    68  H   -0.048182
    69  H   -0.066026
    70  H   -0.013664
    71  H   -0.030546
    72  H    0.004426
    73  H    0.006908
    74  H   -0.010760
    75  H   -0.026673
    76  H   -0.017460
    77  H   -0.004231
    78  H   -0.007803
    79  H   -0.009848
    80  H    0.016038
    81  H   -0.015778
    82  H   -0.016683
    83  H   -0.009926
    84  H    0.026660
    85  H   -0.008913
    86  H   -0.021114
    87  H   -0.010191
    88  H   -0.007958
    89  H    0.004763
    90  H   -0.015519
    91  H   -0.038130
    92  H   -0.012150
    93  H   -0.020553
    94  H   -0.007830
    95  H    0.000686
    96  H    0.002614
    97  H    0.010931
    98  H    0.005040
    99  H    0.012272
   100  H    0.003530
   101  H    0.004996
   102  H    0.008071
   103  H    0.015586
   104  H   -0.025201
   105  H   -0.014279
   106  H    0.015219
   107  H   -0.016683
   108  H   -0.028723
   109  H   -0.030921
   110  H   -0.031038
   111  H   -0.031599
   112  H   -0.044503
   113  H   -0.028053
   114  H   -0.036044
   115  H   -0.028066
   116  H   -0.019031
   117  H   -0.014636
   118  H   -0.033962
   119  H   -0.035958
   120  H   -0.026371
   121  H   -0.015778
   122  H   -0.046005
   123  H   -0.046187
   124  H   -0.024410
   125  H   -0.012604
   126  H   -0.016568
   127  H   -0.030016
   128  H   -0.040198
   129  H   -0.032677
   130  H   -0.017910
   131  H   -0.020054
   132  H   -0.040659
   133  H   -0.038763
   134  H   -0.037625
   135  H   -0.006104
   136  H   -0.018901
   137  H   -0.013916
   138  H   -0.011024
   139  H   -0.018604
   140  H   -0.009971
 Sum of Mulliken charges =  -0.00000

 Dipole moment (field-independent basis, Debye):
    X=             -4.5013    Y=              1.5766    Z=              1.7204  Tot=              5.0703
 Quadrupole moment (field-independent basis, Debye-Ang):
   XX=           -383.4881   YY=           -443.6035   ZZ=           -402.2929
   XY=             34.2125   XZ=             24.9779   YZ=              0.6127

 Normal termination of Gaussian 16 at Tue May  3 16:53:21 2022.
