 Gaussian 16, Revision A.03,
 Gaussian 16:  ES64L-G16RevA.03 25-Dec-2016

 -----------------------------------
 #p cam-b3lyp/Def2SVP td=(nstates=5)
 -----------------------------------

 --------------------------------------------------------
 step_1001_chromophore_21 TDDFT with cam-b3lyp functional
 --------------------------------------------------------
 Symbolic Z-matrix:
 Charge =  0 Multiplicity = 1

                         Standard orientation:
 ---------------------------------------------------------------------
 Center     Atomic      Atomic             Coordinates (Angstroms)
 Number     Number       Type             X           Y           Z
 ---------------------------------------------------------------------
      1         12           0        5.195765    1.196757    0.259218
      2          6           0        4.964167   -2.362262    0.165895
      3          6           0        1.837735    1.298830   -0.480493
      4          6           0        5.461559    4.561928    0.166780
      5          6           0        8.603005    0.929350    0.146485
      6          7           0        3.608121   -0.349865   -0.004363
      7          6           0        3.715686   -1.762712    0.099311
      8          6           0        2.301861   -2.358966    0.179329
      9          6           0        1.390056   -1.162880   -0.334289
     10          6           0        2.329960    0.003739   -0.275006
     11          6           0        0.787647   -1.326229   -1.708043
     12          6           0        2.068650   -2.892830    1.576646
     13          6           0        0.940461   -3.940572    1.852380
     14          6           0        0.064432   -4.401336    0.664218
     15          8           0        0.341286   -5.313601   -0.143228
     16          8           0       -1.088268   -3.697519    0.644627
     17          7           0        3.820763    2.739731    0.004072
     18          6           0        2.543041    2.588579   -0.405954
     19          6           0        1.884546    3.816308   -0.635055
     20          6           0        2.930878    4.769292   -0.561194
     21          6           0        4.132556    4.042734   -0.097792
     22          6           0        0.448197    3.960313   -0.985058
     23          6           0        2.969761    6.254676   -0.910910
     24          8           0        3.877686    7.051011   -0.713945
     25          6           0        1.709718    6.841819   -1.576123
     26          7           0        6.790122    2.564859    0.274247
     27          6           0        6.626615    3.899726    0.369539
     28          6           0        7.944288    4.572210    0.814377
     29          6           0        9.006616    3.390596    0.623112
     30          6           0        8.121115    2.234001    0.254778
     31          6           0        8.473610    5.829541    0.065577
     32          6           0       10.042962    3.113404    1.742276
     33          6           0       11.463206    3.448069    1.504385
     34          7           0        6.523456   -0.399962    0.249271
     35          6           0        7.877065   -0.342090    0.172673
     36          6           0        8.414965   -1.693815    0.111315
     37          6           0        7.315065   -2.541051    0.078243
     38          6           0        6.185082   -1.704744    0.165793
     39          6           0        9.895877   -2.024705   -0.042009
     40          6           0        6.888117   -3.863063   -0.066640
     41          8           0        7.520554   -4.895213   -0.145960
     42          6           0        5.326905   -3.827271    0.051102
     43          6           0        4.873188   -4.383162   -1.163688
     44          8           0        4.786349   -3.864275   -2.240198
     45          8           0        4.458017   -5.675280   -0.871206
     46          6           0        3.854722   -6.546007   -1.870228
     47          6           0       -2.040192   -4.106030   -0.450500
     48          6           0       -3.251993   -3.152691   -0.305894
     49          6           0       -4.403294   -3.143998   -0.944496
     50          6           0       -4.729539   -4.031502   -2.127759
     51          6           0       -5.345956   -1.993864   -0.617135
     52          6           0       -6.716723   -2.415225    0.069713
     53          6           0       -7.004769   -1.916465    1.523614
     54          6           0       -8.140586   -0.847629    1.555065
     55          6           0       -7.842215    0.162393    2.664750
     56          6           0       -9.498855   -1.500601    1.759476
     57          6           0      -10.623538   -1.000603    0.754133
     58          6           0      -12.015763   -0.945144    1.385756
     59          6           0      -12.666872    0.409557    1.054972
     60          6           0      -12.577953    1.288176    2.249279
     61          6           0      -14.109040    0.278016    0.375929
     62          6           0      -14.165966    1.252231   -0.831251
     63          6           0      -15.586214    1.818570   -1.005832
     64          6           0      -15.739315    3.358996   -1.401267
     65          6           0      -14.682069    3.734490   -2.534713
     66          6           0      -15.912528    4.212714   -0.117779
     67          1           0        0.784398    1.260671   -0.765167
     68          1           0        5.637290    5.635802    0.259029
     69          1           0        9.692207    0.860427    0.165180
     70          1           0        2.183346   -3.237608   -0.455293
     71          1           0        0.619893   -0.984722    0.415678
     72          1           0       -0.276272   -1.483667   -1.532083
     73          1           0        1.328804   -2.143291   -2.185582
     74          1           0        1.018373   -0.399344   -2.232390
     75          1           0        1.867470   -2.046297    2.233139
     76          1           0        3.029454   -3.344733    1.824954
     77          1           0        0.361503   -3.561583    2.695087
     78          1           0        1.536090   -4.814251    2.116592
     79          1           0       -0.077660    3.140484   -0.494803
     80          1           0        0.276243    3.979556   -2.061682
     81          1           0       -0.020198    4.831176   -0.527223
     82          1           0        1.633444    6.146490   -2.411590
     83          1           0        2.064737    7.738235   -2.085215
     84          1           0        0.880037    6.776679   -0.873320
     85          1           0        7.876701    4.856047    1.864327
     86          1           0        9.546020    3.501195   -0.318058
     87          1           0        9.499198    5.712470   -0.283038
     88          1           0        8.484529    6.673447    0.755792
     89          1           0        7.857703    6.003334   -0.816455
     90          1           0        9.896001    2.147798    2.226558
     91          1           0        9.822486    3.802189    2.557733
     92          1           0       11.837534    4.211455    2.185377
     93          1           0       11.620446    3.892529    0.522250
     94          1           0       12.150882    2.602136    1.543061
     95          1           0       10.417637   -1.687416    0.853279
     96          1           0       10.287403   -1.491933   -0.908003
     97          1           0        9.936887   -3.100399   -0.216910
     98          1           0        5.096119   -4.449575    0.916123
     99          1           0        3.580309   -7.537025   -1.507598
    100          1           0        4.548835   -6.652092   -2.703537
    101          1           0        2.921518   -6.166945   -2.287129
    102          1           0       -2.206837   -5.172610   -0.306964
    103          1           0       -1.540417   -4.069015   -1.418181
    104          1           0       -3.035472   -2.360461    0.410904
    105          1           0       -5.007514   -3.371581   -2.949264
    106          1           0       -5.541768   -4.739453   -1.968213
    107          1           0       -3.801623   -4.453454   -2.515483
    108          1           0       -5.626805   -1.512222   -1.554193
    109          1           0       -4.858158   -1.285012    0.051188
    110          1           0       -6.860669   -3.493974    0.020125
    111          1           0       -7.463374   -2.016209   -0.617680
    112          1           0       -6.068766   -1.459191    1.846971
    113          1           0       -7.212489   -2.706866    2.244370
    114          1           0       -8.113009   -0.318643    0.603130
    115          1           0       -8.808882    0.363017    3.124437
    116          1           0       -7.432922    1.107167    2.305881
    117          1           0       -7.183738   -0.183430    3.461374
    118          1           0       -9.865533   -1.320002    2.769799
    119          1           0       -9.459716   -2.582019    1.631774
    120          1           0      -10.749795   -1.778321    0.001018
    121          1           0      -10.300688   -0.077765    0.273201
    122          1           0      -11.880345   -1.135591    2.449320
    123          1           0      -12.727501   -1.729853    1.130091
    124          1           0      -12.108216    1.090476    0.414589
    125          1           0      -11.729033    1.036214    2.885761
    126          1           0      -13.534839    1.235080    2.768117
    127          1           0      -12.390891    2.292662    1.868719
    128          1           0      -14.955910    0.591819    0.986805
    129          1           0      -14.381386   -0.710412    0.006268
    130          1           0      -13.915404    0.667234   -1.715939
    131          1           0      -13.539535    2.125013   -0.649218
    132          1           0      -16.149328    1.708392   -0.078898
    133          1           0      -16.081988    1.224848   -1.773645
    134          1           0      -16.753967    3.331150   -1.797059
    135          1           0      -13.897992    4.390952   -2.157961
    136          1           0      -15.207256    4.211985   -3.361104
    137          1           0      -14.293107    2.821753   -2.985265
    138          1           0      -16.966580    4.062770    0.115796
    139          1           0      -15.726032    5.283266   -0.205680
    140          1           0      -15.292903    3.878780    0.715316
 ---------------------------------------------------------------------

 SCF Done:  E(RCAM-B3LYP) =  -3007.16872228     A.U. after   17 cycles

 Excitation energies and oscillator strengths:

 Excited State   1:      Singlet-A      1.6579 eV  747.84 nm  f=0.3982  <S**2>=0.000
     245 -> 248        0.16615
     246 -> 247        0.69029
     245 <- 248        0.10713
 This state for optimization and/or second-order correction.
 Total Energy, E(TD-HF/TD-DFT) =  -3007.10779566
 Copying the excited state density for this state as the 1-particle RhoCI density.

 Excited State   2:      Singlet-A      2.1907 eV  565.95 nm  f=0.1809  <S**2>=0.000
     245 -> 247        0.66168
     246 -> 248       -0.24059

 Excited State   3:      Singlet-A      3.4043 eV  364.20 nm  f=0.0029  <S**2>=0.000
     242 -> 247        0.15302
     243 -> 247       -0.28856
     244 -> 247        0.57060
     244 -> 249        0.16040
     244 -> 250        0.13810

 Excited State   4:      Singlet-A      3.4616 eV  358.17 nm  f=0.0013  <S**2>=0.000
     242 -> 247       -0.20158
     243 -> 247        0.56503
     244 -> 247        0.23771
     244 -> 249        0.14691
     244 -> 250        0.16176

 Excited State   5:      Singlet-A      3.5195 eV  352.28 nm  f=0.0011  <S**2>=0.000
     241 -> 247        0.54117
     241 -> 248       -0.10794
     241 -> 249       -0.31230
     241 -> 250        0.13506
     242 -> 247       -0.22708

 The electronic state is 1-A.
 Alpha  occ. eigenvalues --  -46.88434 -19.26315 -19.23127 -19.20311 -19.19178
 Alpha  occ. eigenvalues --  -19.18932 -19.18530 -14.42271 -14.41337 -14.39805
 Alpha  occ. eigenvalues --  -14.39365 -10.40249 -10.38147 -10.34636 -10.34548
 Alpha  occ. eigenvalues --  -10.33130 -10.31328 -10.30652 -10.30415 -10.30400
 Alpha  occ. eigenvalues --  -10.30378 -10.30161 -10.30060 -10.29938 -10.28487
 Alpha  occ. eigenvalues --  -10.28058 -10.28033 -10.28005 -10.27951 -10.27945
 Alpha  occ. eigenvalues --  -10.27723 -10.27575 -10.27533 -10.27381 -10.27359
 Alpha  occ. eigenvalues --  -10.27267 -10.27179 -10.27076 -10.26948 -10.26832
 Alpha  occ. eigenvalues --  -10.26776 -10.26453 -10.26419 -10.26172 -10.26169
 Alpha  occ. eigenvalues --  -10.25962 -10.25723 -10.25723 -10.25715 -10.25687
 Alpha  occ. eigenvalues --  -10.25622 -10.25399 -10.25341 -10.25277 -10.24960
 Alpha  occ. eigenvalues --  -10.24945 -10.24906 -10.24842 -10.24808 -10.24769
 Alpha  occ. eigenvalues --  -10.24689 -10.24570 -10.24519 -10.24380 -10.24339
 Alpha  occ. eigenvalues --  -10.24057  -3.16986  -1.91908  -1.91406  -1.91318
 Alpha  occ. eigenvalues --   -1.16777  -1.15408  -1.10400  -1.09498  -1.07450
 Alpha  occ. eigenvalues --   -1.07175  -1.04664  -1.04230  -1.03337  -1.02477
 Alpha  occ. eigenvalues --   -0.93782  -0.90965  -0.90156  -0.89835  -0.89482
 Alpha  occ. eigenvalues --   -0.88930  -0.88538  -0.87882  -0.87316  -0.87272
 Alpha  occ. eigenvalues --   -0.86340  -0.85334  -0.84236  -0.84055  -0.83603
 Alpha  occ. eigenvalues --   -0.82845  -0.82181  -0.81279  -0.80904  -0.80417
 Alpha  occ. eigenvalues --   -0.80188  -0.78622  -0.78204  -0.77400  -0.76681
 Alpha  occ. eigenvalues --   -0.76023  -0.75916  -0.75228  -0.74835  -0.73895
 Alpha  occ. eigenvalues --   -0.73528  -0.73075  -0.71369  -0.70484  -0.69308
 Alpha  occ. eigenvalues --   -0.69131  -0.68069  -0.67223  -0.66679  -0.65993
 Alpha  occ. eigenvalues --   -0.65736  -0.65598  -0.64798  -0.64410  -0.64340
 Alpha  occ. eigenvalues --   -0.64171  -0.63213  -0.61649  -0.60811  -0.60343
 Alpha  occ. eigenvalues --   -0.60202  -0.59629  -0.59264  -0.58823  -0.58260
 Alpha  occ. eigenvalues --   -0.57366  -0.56528  -0.56225  -0.55768  -0.55529
 Alpha  occ. eigenvalues --   -0.55288  -0.54928  -0.54632  -0.54259  -0.54127
 Alpha  occ. eigenvalues --   -0.53960  -0.53671  -0.53161  -0.53032  -0.52840
 Alpha  occ. eigenvalues --   -0.52680  -0.52511  -0.52277  -0.52136  -0.51584
 Alpha  occ. eigenvalues --   -0.51406  -0.51178  -0.51117  -0.51103  -0.50845
 Alpha  occ. eigenvalues --   -0.50689  -0.50534  -0.50203  -0.49916  -0.49499
 Alpha  occ. eigenvalues --   -0.49430  -0.49284  -0.49126  -0.48830  -0.48662
 Alpha  occ. eigenvalues --   -0.48481  -0.48442  -0.48363  -0.47950  -0.47877
 Alpha  occ. eigenvalues --   -0.47794  -0.47420  -0.47336  -0.47161  -0.47128
 Alpha  occ. eigenvalues --   -0.46790  -0.46279  -0.46197  -0.46043  -0.45989
 Alpha  occ. eigenvalues --   -0.45829  -0.45677  -0.45422  -0.45287  -0.45231
 Alpha  occ. eigenvalues --   -0.45042  -0.44814  -0.44599  -0.44325  -0.44070
 Alpha  occ. eigenvalues --   -0.43766  -0.43437  -0.43352  -0.42922  -0.42855
 Alpha  occ. eigenvalues --   -0.42668  -0.42614  -0.42588  -0.42405  -0.42032
 Alpha  occ. eigenvalues --   -0.41814  -0.41580  -0.41521  -0.41312  -0.41099
 Alpha  occ. eigenvalues --   -0.40879  -0.40857  -0.40551  -0.40438  -0.40120
 Alpha  occ. eigenvalues --   -0.40024  -0.39815  -0.39548  -0.39017  -0.38833
 Alpha  occ. eigenvalues --   -0.38565  -0.38225  -0.38094  -0.37929  -0.37650
 Alpha  occ. eigenvalues --   -0.37596  -0.36822  -0.36522  -0.36411  -0.36340
 Alpha  occ. eigenvalues --   -0.36037  -0.35477  -0.34814  -0.34465  -0.34403
 Alpha  occ. eigenvalues --   -0.33947  -0.33310  -0.32611  -0.31588  -0.31203
 Alpha  occ. eigenvalues --   -0.30999  -0.30562  -0.30234  -0.29988  -0.23972
 Alpha  occ. eigenvalues --   -0.21279
 Alpha virt. eigenvalues --   -0.09167  -0.01011   0.00384   0.02620   0.03045
 Alpha virt. eigenvalues --    0.03849   0.05471   0.05584   0.06554   0.06824
 Alpha virt. eigenvalues --    0.08114   0.08181   0.08685   0.08991   0.09129

 Mulliken charges:
               1
     1  Mg   0.835988
     2  C   -0.005683
     3  C   -0.084645
     4  C   -0.045084
     5  C   -0.088500
     6  N   -0.289797
     7  C   -0.044078
     8  C   -0.033124
     9  C   -0.071396
    10  C    0.018605
    11  C    0.103864
    12  C    0.043700
    13  C    0.132153
    14  C    0.137650
    15  O   -0.268092
    16  O   -0.332050
    17  N   -0.335291
    18  C    0.147088
    19  C   -0.160784
    20  C   -0.042512
    21  C    0.112614
    22  C    0.126149
    23  C   -0.022755
    24  O   -0.200241
    25  C    0.062100
    26  N   -0.320354
    27  C    0.042073
    28  C   -0.046498
    29  C    0.002167
    30  C    0.029123
    31  C    0.061948
    32  C    0.049669
    33  C    0.001984
    34  N   -0.319687
    35  C    0.110432
    36  C   -0.206473
    37  C    0.085414
    38  C    0.090732
    39  C    0.131482
    40  C   -0.039995
    41  O   -0.152998
    42  C   -0.005840
    43  C    0.202475
    44  O   -0.190394
    45  O   -0.357270
    46  C    0.191959
    47  C    0.252581
    48  C   -0.131734
    49  C   -0.137698
    50  C    0.097105
    51  C    0.078179
    52  C   -0.000743
    53  C    0.056294
    54  C   -0.141091
    55  C    0.058859
    56  C    0.059394
    57  C    0.003386
    58  C    0.074575
    59  C   -0.152389
    60  C    0.060534
    61  C    0.061040
    62  C   -0.005215
    63  C   -0.016507
    64  C   -0.130230
    65  C    0.048387
    66  C    0.032616
    67  H   -0.027016
    68  H   -0.007839
    69  H   -0.031077
    70  H    0.017453
    71  H    0.005806
    72  H    0.025760
    73  H    0.032189
    74  H    0.016346
    75  H    0.003402
    76  H    0.010958
    77  H    0.030429
    78  H    0.025991
    79  H    0.017635
    80  H    0.043242
    81  H    0.012057
    82  H    0.010496
    83  H    0.025572
    84  H    0.051209
    85  H    0.024627
    86  H    0.013338
    87  H    0.013433
    88  H    0.016866
    89  H    0.029697
    90  H    0.016573
    91  H   -0.007218
    92  H    0.012339
    93  H    0.002583
    94  H    0.015791
    95  H    0.025416
    96  H    0.027954
    97  H    0.038456
    98  H    0.050164
    99  H    0.035969
   100  H    0.027060
   101  H    0.027032
   102  H    0.037663
   103  H    0.041333
   104  H    0.008553
   105  H    0.010715
   106  H    0.038727
   107  H    0.007823
   108  H    0.000944
   109  H   -0.002016
   110  H   -0.002963
   111  H   -0.004089
   112  H   -0.015245
   113  H    0.001488
   114  H   -0.004180
   115  H   -0.006133
   116  H    0.005965
   117  H    0.009736
   118  H   -0.006853
   119  H   -0.006202
   120  H    0.001988
   121  H    0.010096
   122  H   -0.015879
   123  H   -0.015427
   124  H    0.006140
   125  H    0.008729
   126  H    0.006764
   127  H   -0.007062
   128  H   -0.012520
   129  H   -0.003581
   130  H    0.009301
   131  H    0.004269
   132  H   -0.012944
   133  H   -0.009171
   134  H   -0.004676
   135  H    0.016671
   136  H    0.006661
   137  H    0.010433
   138  H    0.012044
   139  H    0.006741
   140  H    0.010293
 Sum of Mulliken charges =  -0.00000

 Dipole moment (field-independent basis, Debye):
    X=             -4.9317    Y=              1.7469    Z=              1.6742  Tot=              5.4933
 Quadrupole moment (field-independent basis, Debye-Ang):
   XX=           -383.1945   YY=           -441.4057   ZZ=           -401.8125
   XY=             34.2034   XZ=             25.4891   YZ=             -0.0300

 Normal termination of Gaussian 16 at Tue May  3 15:23:31 2022.
