 Gaussian 16, Revision A.03,
 Gaussian 16:  ES64L-G16RevA.03 25-Dec-2016

 ---------------------------------
 #p PBE1PBE/Def2SVP td=(nstates=5)
 ---------------------------------

 ------------------------------------------------------
 step_1001_chromophore_21 TDDFT with PBE1PBE functional
 ------------------------------------------------------
 Symbolic Z-matrix:
 Charge =  0 Multiplicity = 1

                         Standard orientation:
 ---------------------------------------------------------------------
 Center     Atomic      Atomic             Coordinates (Angstroms)
 Number     Number       Type             X           Y           Z
 ---------------------------------------------------------------------
      1         12           0        5.195765    1.196757    0.259218
      2          6           0        4.964167   -2.362262    0.165895
      3          6           0        1.837735    1.298830   -0.480493
      4          6           0        5.461559    4.561928    0.166780
      5          6           0        8.603005    0.929350    0.146485
      6          7           0        3.608121   -0.349865   -0.004363
      7          6           0        3.715686   -1.762712    0.099311
      8          6           0        2.301861   -2.358966    0.179329
      9          6           0        1.390056   -1.162880   -0.334289
     10          6           0        2.329960    0.003739   -0.275006
     11          6           0        0.787647   -1.326229   -1.708043
     12          6           0        2.068650   -2.892830    1.576646
     13          6           0        0.940461   -3.940572    1.852380
     14          6           0        0.064432   -4.401336    0.664218
     15          8           0        0.341286   -5.313601   -0.143228
     16          8           0       -1.088268   -3.697519    0.644627
     17          7           0        3.820763    2.739731    0.004072
     18          6           0        2.543041    2.588579   -0.405954
     19          6           0        1.884546    3.816308   -0.635055
     20          6           0        2.930878    4.769292   -0.561194
     21          6           0        4.132556    4.042734   -0.097792
     22          6           0        0.448197    3.960313   -0.985058
     23          6           0        2.969761    6.254676   -0.910910
     24          8           0        3.877686    7.051011   -0.713945
     25          6           0        1.709718    6.841819   -1.576123
     26          7           0        6.790122    2.564859    0.274247
     27          6           0        6.626615    3.899726    0.369539
     28          6           0        7.944288    4.572210    0.814377
     29          6           0        9.006616    3.390596    0.623112
     30          6           0        8.121115    2.234001    0.254778
     31          6           0        8.473610    5.829541    0.065577
     32          6           0       10.042962    3.113404    1.742276
     33          6           0       11.463206    3.448069    1.504385
     34          7           0        6.523456   -0.399962    0.249271
     35          6           0        7.877065   -0.342090    0.172673
     36          6           0        8.414965   -1.693815    0.111315
     37          6           0        7.315065   -2.541051    0.078243
     38          6           0        6.185082   -1.704744    0.165793
     39          6           0        9.895877   -2.024705   -0.042009
     40          6           0        6.888117   -3.863063   -0.066640
     41          8           0        7.520554   -4.895213   -0.145960
     42          6           0        5.326905   -3.827271    0.051102
     43          6           0        4.873188   -4.383162   -1.163688
     44          8           0        4.786349   -3.864275   -2.240198
     45          8           0        4.458017   -5.675280   -0.871206
     46          6           0        3.854722   -6.546007   -1.870228
     47          6           0       -2.040192   -4.106030   -0.450500
     48          6           0       -3.251993   -3.152691   -0.305894
     49          6           0       -4.403294   -3.143998   -0.944496
     50          6           0       -4.729539   -4.031502   -2.127759
     51          6           0       -5.345956   -1.993864   -0.617135
     52          6           0       -6.716723   -2.415225    0.069713
     53          6           0       -7.004769   -1.916465    1.523614
     54          6           0       -8.140586   -0.847629    1.555065
     55          6           0       -7.842215    0.162393    2.664750
     56          6           0       -9.498855   -1.500601    1.759476
     57          6           0      -10.623538   -1.000603    0.754133
     58          6           0      -12.015763   -0.945144    1.385756
     59          6           0      -12.666872    0.409557    1.054972
     60          6           0      -12.577953    1.288176    2.249279
     61          6           0      -14.109040    0.278016    0.375929
     62          6           0      -14.165966    1.252231   -0.831251
     63          6           0      -15.586214    1.818570   -1.005832
     64          6           0      -15.739315    3.358996   -1.401267
     65          6           0      -14.682069    3.734490   -2.534713
     66          6           0      -15.912528    4.212714   -0.117779
     67          1           0        0.784398    1.260671   -0.765167
     68          1           0        5.637290    5.635802    0.259029
     69          1           0        9.692207    0.860427    0.165180
     70          1           0        2.183346   -3.237608   -0.455293
     71          1           0        0.619893   -0.984722    0.415678
     72          1           0       -0.276272   -1.483667   -1.532083
     73          1           0        1.328804   -2.143291   -2.185582
     74          1           0        1.018373   -0.399344   -2.232390
     75          1           0        1.867470   -2.046297    2.233139
     76          1           0        3.029454   -3.344733    1.824954
     77          1           0        0.361503   -3.561583    2.695087
     78          1           0        1.536090   -4.814251    2.116592
     79          1           0       -0.077660    3.140484   -0.494803
     80          1           0        0.276243    3.979556   -2.061682
     81          1           0       -0.020198    4.831176   -0.527223
     82          1           0        1.633444    6.146490   -2.411590
     83          1           0        2.064737    7.738235   -2.085215
     84          1           0        0.880037    6.776679   -0.873320
     85          1           0        7.876701    4.856047    1.864327
     86          1           0        9.546020    3.501195   -0.318058
     87          1           0        9.499198    5.712470   -0.283038
     88          1           0        8.484529    6.673447    0.755792
     89          1           0        7.857703    6.003334   -0.816455
     90          1           0        9.896001    2.147798    2.226558
     91          1           0        9.822486    3.802189    2.557733
     92          1           0       11.837534    4.211455    2.185377
     93          1           0       11.620446    3.892529    0.522250
     94          1           0       12.150882    2.602136    1.543061
     95          1           0       10.417637   -1.687416    0.853279
     96          1           0       10.287403   -1.491933   -0.908003
     97          1           0        9.936887   -3.100399   -0.216910
     98          1           0        5.096119   -4.449575    0.916123
     99          1           0        3.580309   -7.537025   -1.507598
    100          1           0        4.548835   -6.652092   -2.703537
    101          1           0        2.921518   -6.166945   -2.287129
    102          1           0       -2.206837   -5.172610   -0.306964
    103          1           0       -1.540417   -4.069015   -1.418181
    104          1           0       -3.035472   -2.360461    0.410904
    105          1           0       -5.007514   -3.371581   -2.949264
    106          1           0       -5.541768   -4.739453   -1.968213
    107          1           0       -3.801623   -4.453454   -2.515483
    108          1           0       -5.626805   -1.512222   -1.554193
    109          1           0       -4.858158   -1.285012    0.051188
    110          1           0       -6.860669   -3.493974    0.020125
    111          1           0       -7.463374   -2.016209   -0.617680
    112          1           0       -6.068766   -1.459191    1.846971
    113          1           0       -7.212489   -2.706866    2.244370
    114          1           0       -8.113009   -0.318643    0.603130
    115          1           0       -8.808882    0.363017    3.124437
    116          1           0       -7.432922    1.107167    2.305881
    117          1           0       -7.183738   -0.183430    3.461374
    118          1           0       -9.865533   -1.320002    2.769799
    119          1           0       -9.459716   -2.582019    1.631774
    120          1           0      -10.749795   -1.778321    0.001018
    121          1           0      -10.300688   -0.077765    0.273201
    122          1           0      -11.880345   -1.135591    2.449320
    123          1           0      -12.727501   -1.729853    1.130091
    124          1           0      -12.108216    1.090476    0.414589
    125          1           0      -11.729033    1.036214    2.885761
    126          1           0      -13.534839    1.235080    2.768117
    127          1           0      -12.390891    2.292662    1.868719
    128          1           0      -14.955910    0.591819    0.986805
    129          1           0      -14.381386   -0.710412    0.006268
    130          1           0      -13.915404    0.667234   -1.715939
    131          1           0      -13.539535    2.125013   -0.649218
    132          1           0      -16.149328    1.708392   -0.078898
    133          1           0      -16.081988    1.224848   -1.773645
    134          1           0      -16.753967    3.331150   -1.797059
    135          1           0      -13.897992    4.390952   -2.157961
    136          1           0      -15.207256    4.211985   -3.361104
    137          1           0      -14.293107    2.821753   -2.985265
    138          1           0      -16.966580    4.062770    0.115796
    139          1           0      -15.726032    5.283266   -0.205680
    140          1           0      -15.292903    3.878780    0.715316
 ---------------------------------------------------------------------

 SCF Done:  E(RPBE1PBE) =  -3005.35733499     A.U. after   15 cycles

 Excitation energies and oscillator strengths:

 Excited State   1:      Singlet-A      1.8243 eV  679.61 nm  f=0.3822  <S**2>=0.000
     245 -> 248        0.16123
     246 -> 247        0.69846
     246 <- 247       -0.12075
 This state for optimization and/or second-order correction.
 Total Energy, E(TD-HF/TD-DFT) =  -3005.29029165
 Copying the excited state density for this state as the 1-particle RhoCI density.

 Excited State   2:      Singlet-A      2.2075 eV  561.66 nm  f=0.1670  <S**2>=0.000
     245 -> 247        0.66862
     246 -> 248       -0.22189

 Excited State   3:      Singlet-A      2.8028 eV  442.35 nm  f=0.0001  <S**2>=0.000
     244 -> 247        0.68758
     244 -> 249        0.11555

 Excited State   4:      Singlet-A      3.0043 eV  412.69 nm  f=0.0004  <S**2>=0.000
     242 -> 247        0.38290
     242 -> 249       -0.10664
     243 -> 247        0.55402
     243 -> 249       -0.12520

 Excited State   5:      Singlet-A      3.1237 eV  396.92 nm  f=0.0003  <S**2>=0.000
     241 -> 247       -0.17431
     242 -> 247        0.56828
     243 -> 247       -0.37316

 The electronic state is 1-A.
 Alpha  occ. eigenvalues --  -46.91836 -19.27002 -19.23754 -19.20632 -19.19293
 Alpha  occ. eigenvalues --  -19.19148 -19.18748 -14.41719 -14.40930 -14.39425
 Alpha  occ. eigenvalues --  -14.39007 -10.37319 -10.35037 -10.31785 -10.31666
 Alpha  occ. eigenvalues --  -10.30540 -10.29107 -10.28390 -10.28093 -10.28086
 Alpha  occ. eigenvalues --  -10.27855 -10.27807 -10.27633 -10.27554 -10.26192
 Alpha  occ. eigenvalues --  -10.25862 -10.25814 -10.25658 -10.25566 -10.25562
 Alpha  occ. eigenvalues --  -10.25450 -10.25427 -10.25183 -10.25019 -10.25017
 Alpha  occ. eigenvalues --  -10.24968 -10.24767 -10.24688 -10.24576 -10.24469
 Alpha  occ. eigenvalues --  -10.24142 -10.24026 -10.23962 -10.23871 -10.23828
 Alpha  occ. eigenvalues --  -10.23442 -10.23422 -10.23406 -10.23288 -10.23126
 Alpha  occ. eigenvalues --  -10.23118 -10.22926 -10.22716 -10.22681 -10.22677
 Alpha  occ. eigenvalues --  -10.22502 -10.22416 -10.22409 -10.22380 -10.22296
 Alpha  occ. eigenvalues --  -10.22145 -10.22116 -10.21964 -10.21918 -10.21911
 Alpha  occ. eigenvalues --  -10.21422  -3.13968  -1.86831  -1.86307  -1.86222
 Alpha  occ. eigenvalues --   -1.11595  -1.10080  -1.05140  -1.04233  -1.02223
 Alpha  occ. eigenvalues --   -1.02038  -0.99329  -0.98938  -0.97981  -0.97050
 Alpha  occ. eigenvalues --   -0.88150  -0.85106  -0.84276  -0.84039  -0.83796
 Alpha  occ. eigenvalues --   -0.83045  -0.82831  -0.82179  -0.81641  -0.81365
 Alpha  occ. eigenvalues --   -0.80667  -0.79592  -0.78480  -0.78329  -0.77852
 Alpha  occ. eigenvalues --   -0.77058  -0.76408  -0.75483  -0.75214  -0.74596
 Alpha  occ. eigenvalues --   -0.74466  -0.72883  -0.72459  -0.71743  -0.70855
 Alpha  occ. eigenvalues --   -0.70219  -0.70090  -0.69606  -0.68987  -0.68126
 Alpha  occ. eigenvalues --   -0.67780  -0.67485  -0.65756  -0.64842  -0.63744
 Alpha  occ. eigenvalues --   -0.63559  -0.62283  -0.61633  -0.60935  -0.60430
 Alpha  occ. eigenvalues --   -0.60145  -0.59837  -0.59391  -0.58886  -0.58602
 Alpha  occ. eigenvalues --   -0.58535  -0.57393  -0.56184  -0.55086  -0.54789
 Alpha  occ. eigenvalues --   -0.54719  -0.54209  -0.53785  -0.53188  -0.52904
 Alpha  occ. eigenvalues --   -0.52011  -0.51058  -0.50799  -0.50126  -0.50045
 Alpha  occ. eigenvalues --   -0.49807  -0.49264  -0.49232  -0.48668  -0.48617
 Alpha  occ. eigenvalues --   -0.48493  -0.48219  -0.47612  -0.47467  -0.47434
 Alpha  occ. eigenvalues --   -0.47200  -0.47078  -0.46825  -0.46675  -0.46174
 Alpha  occ. eigenvalues --   -0.45926  -0.45702  -0.45659  -0.45622  -0.45321
 Alpha  occ. eigenvalues --   -0.45253  -0.45149  -0.44733  -0.44625  -0.44082
 Alpha  occ. eigenvalues --   -0.43960  -0.43867  -0.43668  -0.43455  -0.43310
 Alpha  occ. eigenvalues --   -0.43089  -0.43036  -0.42994  -0.42618  -0.42525
 Alpha  occ. eigenvalues --   -0.42433  -0.42080  -0.41953  -0.41817  -0.41758
 Alpha  occ. eigenvalues --   -0.41468  -0.40959  -0.40908  -0.40732  -0.40659
 Alpha  occ. eigenvalues --   -0.40573  -0.40262  -0.40190  -0.40003  -0.39927
 Alpha  occ. eigenvalues --   -0.39792  -0.39480  -0.39335  -0.39119  -0.38815
 Alpha  occ. eigenvalues --   -0.38545  -0.38213  -0.38123  -0.37718  -0.37667
 Alpha  occ. eigenvalues --   -0.37473  -0.37426  -0.37304  -0.37250  -0.36813
 Alpha  occ. eigenvalues --   -0.36585  -0.36461  -0.36339  -0.36062  -0.36014
 Alpha  occ. eigenvalues --   -0.35711  -0.35671  -0.35303  -0.35269  -0.34872
 Alpha  occ. eigenvalues --   -0.34861  -0.34761  -0.34360  -0.33820  -0.33735
 Alpha  occ. eigenvalues --   -0.33359  -0.33206  -0.32917  -0.32910  -0.32585
 Alpha  occ. eigenvalues --   -0.32441  -0.31670  -0.31638  -0.31393  -0.31255
 Alpha  occ. eigenvalues --   -0.30947  -0.30331  -0.29661  -0.29647  -0.29229
 Alpha  occ. eigenvalues --   -0.28655  -0.28285  -0.28246  -0.27236  -0.26476
 Alpha  occ. eigenvalues --   -0.26157  -0.25910  -0.25807  -0.24825  -0.20930
 Alpha  occ. eigenvalues --   -0.18885
 Alpha virt. eigenvalues --   -0.11529  -0.04623  -0.03856  -0.01785  -0.00717
 Alpha virt. eigenvalues --    0.00176   0.01130   0.01639   0.02029   0.03467
 Alpha virt. eigenvalues --    0.04151   0.04480   0.04936   0.05602   0.05659

 Mulliken charges:
               1
     1  Mg   0.986943
     2  C   -0.031386
     3  C   -0.069310
     4  C   -0.038724
     5  C   -0.080633
     6  N   -0.393759
     7  C    0.028111
     8  C   -0.101367
     9  C   -0.145185
    10  C    0.054943
    11  C    0.043546
    12  C   -0.004224
    13  C    0.056322
    14  C    0.199430
    15  O   -0.299542
    16  O   -0.361572
    17  N   -0.454934
    18  C    0.168534
    19  C   -0.181848
    20  C   -0.097295
    21  C    0.151891
    22  C    0.064794
    23  C    0.033695
    24  O   -0.237659
    25  C   -0.017428
    26  N   -0.428061
    27  C    0.075401
    28  C   -0.122052
    29  C   -0.074853
    30  C    0.071708
    31  C    0.003723
    32  C   -0.014931
    33  C   -0.066594
    34  N   -0.450555
    35  C    0.134288
    36  C   -0.213526
    37  C    0.031308
    38  C    0.148001
    39  C    0.075403
    40  C    0.052921
    41  O   -0.200809
    42  C   -0.117546
    43  C    0.304414
    44  O   -0.228979
    45  O   -0.392472
    46  C    0.137701
    47  C    0.218086
    48  C   -0.142432
    49  C   -0.185024
    50  C    0.035306
    51  C    0.011566
    52  C   -0.056480
    53  C    0.000808
    54  C   -0.231790
    55  C   -0.001178
    56  C    0.007921
    57  C   -0.057906
    58  C    0.017815
    59  C   -0.239143
    60  C    0.003513
    61  C    0.012494
    62  C   -0.074968
    63  C   -0.067668
    64  C   -0.219415
    65  C   -0.018267
    66  C   -0.029940
    67  H    0.003112
    68  H    0.024768
    69  H    0.002759
    70  H    0.059138
    71  H    0.042849
    72  H    0.054843
    73  H    0.059489
    74  H    0.045106
    75  H    0.035833
    76  H    0.048071
    77  H    0.061549
    78  H    0.059295
    79  H    0.044534
    80  H    0.070206
    81  H    0.040668
    82  H    0.039999
    83  H    0.053383
    84  H    0.077315
    85  H    0.061190
    86  H    0.051786
    87  H    0.041177
    88  H    0.044174
    89  H    0.056834
    90  H    0.048594
    91  H    0.027300
    92  H    0.039707
    93  H    0.029866
    94  H    0.043127
    95  H    0.053051
    96  H    0.055517
    97  H    0.066663
    98  H    0.085050
    99  H    0.057521
   100  H    0.049025
   101  H    0.048361
   102  H    0.063674
   103  H    0.065512
   104  H    0.037520
   105  H    0.038207
   106  H    0.064632
   107  H    0.035717
   108  H    0.034173
   109  H    0.028669
   110  H    0.029929
   111  H    0.028016
   112  H    0.018602
   113  H    0.033328
   114  H    0.033335
   115  H    0.023603
   116  H    0.034007
   117  H    0.036574
   118  H    0.023843
   119  H    0.026796
   120  H    0.036167
   121  H    0.040587
   122  H    0.016327
   123  H    0.016569
   124  H    0.042925
   125  H    0.037949
   126  H    0.034216
   127  H    0.020432
   128  H    0.019413
   129  H    0.027985
   130  H    0.042265
   131  H    0.039036
   132  H    0.018706
   133  H    0.024371
   134  H    0.034240
   135  H    0.043461
   136  H    0.035154
   137  H    0.038604
   138  H    0.039396
   139  H    0.034880
   140  H    0.038191
 Sum of Mulliken charges =  -0.00000

 Dipole moment (field-independent basis, Debye):
    X=             -4.7960    Y=              1.8197    Z=              1.7269  Tot=              5.4125
 Quadrupole moment (field-independent basis, Debye-Ang):
   XX=           -376.0796   YY=           -438.6310   ZZ=           -399.3417
   XY=             35.7359   XZ=             26.2891   YZ=              0.3775

 Normal termination of Gaussian 16 at Tue May  3 15:49:02 2022.
