 Gaussian 16, Revision A.03,
 Gaussian 16:  ES64L-G16RevA.03 25-Dec-2016

 --------------------------------
 #p wB97XD/Def2SVP td=(nstates=5)
 --------------------------------

 -----------------------------------------------------
 step_1001_chromophore_21 TDDFT with wB97XD functional
 -----------------------------------------------------
 Symbolic Z-matrix:
 Charge =  0 Multiplicity = 1

                         Standard orientation:
 ---------------------------------------------------------------------
 Center     Atomic      Atomic             Coordinates (Angstroms)
 Number     Number       Type             X           Y           Z
 ---------------------------------------------------------------------
      1         12           0        5.195765    1.196757    0.259218
      2          6           0        4.964167   -2.362262    0.165895
      3          6           0        1.837735    1.298830   -0.480493
      4          6           0        5.461559    4.561928    0.166780
      5          6           0        8.603005    0.929350    0.146485
      6          7           0        3.608121   -0.349865   -0.004363
      7          6           0        3.715686   -1.762712    0.099311
      8          6           0        2.301861   -2.358966    0.179329
      9          6           0        1.390056   -1.162880   -0.334289
     10          6           0        2.329960    0.003739   -0.275006
     11          6           0        0.787647   -1.326229   -1.708043
     12          6           0        2.068650   -2.892830    1.576646
     13          6           0        0.940461   -3.940572    1.852380
     14          6           0        0.064432   -4.401336    0.664218
     15          8           0        0.341286   -5.313601   -0.143228
     16          8           0       -1.088268   -3.697519    0.644627
     17          7           0        3.820763    2.739731    0.004072
     18          6           0        2.543041    2.588579   -0.405954
     19          6           0        1.884546    3.816308   -0.635055
     20          6           0        2.930878    4.769292   -0.561194
     21          6           0        4.132556    4.042734   -0.097792
     22          6           0        0.448197    3.960313   -0.985058
     23          6           0        2.969761    6.254676   -0.910910
     24          8           0        3.877686    7.051011   -0.713945
     25          6           0        1.709718    6.841819   -1.576123
     26          7           0        6.790122    2.564859    0.274247
     27          6           0        6.626615    3.899726    0.369539
     28          6           0        7.944288    4.572210    0.814377
     29          6           0        9.006616    3.390596    0.623112
     30          6           0        8.121115    2.234001    0.254778
     31          6           0        8.473610    5.829541    0.065577
     32          6           0       10.042962    3.113404    1.742276
     33          6           0       11.463206    3.448069    1.504385
     34          7           0        6.523456   -0.399962    0.249271
     35          6           0        7.877065   -0.342090    0.172673
     36          6           0        8.414965   -1.693815    0.111315
     37          6           0        7.315065   -2.541051    0.078243
     38          6           0        6.185082   -1.704744    0.165793
     39          6           0        9.895877   -2.024705   -0.042009
     40          6           0        6.888117   -3.863063   -0.066640
     41          8           0        7.520554   -4.895213   -0.145960
     42          6           0        5.326905   -3.827271    0.051102
     43          6           0        4.873188   -4.383162   -1.163688
     44          8           0        4.786349   -3.864275   -2.240198
     45          8           0        4.458017   -5.675280   -0.871206
     46          6           0        3.854722   -6.546007   -1.870228
     47          6           0       -2.040192   -4.106030   -0.450500
     48          6           0       -3.251993   -3.152691   -0.305894
     49          6           0       -4.403294   -3.143998   -0.944496
     50          6           0       -4.729539   -4.031502   -2.127759
     51          6           0       -5.345956   -1.993864   -0.617135
     52          6           0       -6.716723   -2.415225    0.069713
     53          6           0       -7.004769   -1.916465    1.523614
     54          6           0       -8.140586   -0.847629    1.555065
     55          6           0       -7.842215    0.162393    2.664750
     56          6           0       -9.498855   -1.500601    1.759476
     57          6           0      -10.623538   -1.000603    0.754133
     58          6           0      -12.015763   -0.945144    1.385756
     59          6           0      -12.666872    0.409557    1.054972
     60          6           0      -12.577953    1.288176    2.249279
     61          6           0      -14.109040    0.278016    0.375929
     62          6           0      -14.165966    1.252231   -0.831251
     63          6           0      -15.586214    1.818570   -1.005832
     64          6           0      -15.739315    3.358996   -1.401267
     65          6           0      -14.682069    3.734490   -2.534713
     66          6           0      -15.912528    4.212714   -0.117779
     67          1           0        0.784398    1.260671   -0.765167
     68          1           0        5.637290    5.635802    0.259029
     69          1           0        9.692207    0.860427    0.165180
     70          1           0        2.183346   -3.237608   -0.455293
     71          1           0        0.619893   -0.984722    0.415678
     72          1           0       -0.276272   -1.483667   -1.532083
     73          1           0        1.328804   -2.143291   -2.185582
     74          1           0        1.018373   -0.399344   -2.232390
     75          1           0        1.867470   -2.046297    2.233139
     76          1           0        3.029454   -3.344733    1.824954
     77          1           0        0.361503   -3.561583    2.695087
     78          1           0        1.536090   -4.814251    2.116592
     79          1           0       -0.077660    3.140484   -0.494803
     80          1           0        0.276243    3.979556   -2.061682
     81          1           0       -0.020198    4.831176   -0.527223
     82          1           0        1.633444    6.146490   -2.411590
     83          1           0        2.064737    7.738235   -2.085215
     84          1           0        0.880037    6.776679   -0.873320
     85          1           0        7.876701    4.856047    1.864327
     86          1           0        9.546020    3.501195   -0.318058
     87          1           0        9.499198    5.712470   -0.283038
     88          1           0        8.484529    6.673447    0.755792
     89          1           0        7.857703    6.003334   -0.816455
     90          1           0        9.896001    2.147798    2.226558
     91          1           0        9.822486    3.802189    2.557733
     92          1           0       11.837534    4.211455    2.185377
     93          1           0       11.620446    3.892529    0.522250
     94          1           0       12.150882    2.602136    1.543061
     95          1           0       10.417637   -1.687416    0.853279
     96          1           0       10.287403   -1.491933   -0.908003
     97          1           0        9.936887   -3.100399   -0.216910
     98          1           0        5.096119   -4.449575    0.916123
     99          1           0        3.580309   -7.537025   -1.507598
    100          1           0        4.548835   -6.652092   -2.703537
    101          1           0        2.921518   -6.166945   -2.287129
    102          1           0       -2.206837   -5.172610   -0.306964
    103          1           0       -1.540417   -4.069015   -1.418181
    104          1           0       -3.035472   -2.360461    0.410904
    105          1           0       -5.007514   -3.371581   -2.949264
    106          1           0       -5.541768   -4.739453   -1.968213
    107          1           0       -3.801623   -4.453454   -2.515483
    108          1           0       -5.626805   -1.512222   -1.554193
    109          1           0       -4.858158   -1.285012    0.051188
    110          1           0       -6.860669   -3.493974    0.020125
    111          1           0       -7.463374   -2.016209   -0.617680
    112          1           0       -6.068766   -1.459191    1.846971
    113          1           0       -7.212489   -2.706866    2.244370
    114          1           0       -8.113009   -0.318643    0.603130
    115          1           0       -8.808882    0.363017    3.124437
    116          1           0       -7.432922    1.107167    2.305881
    117          1           0       -7.183738   -0.183430    3.461374
    118          1           0       -9.865533   -1.320002    2.769799
    119          1           0       -9.459716   -2.582019    1.631774
    120          1           0      -10.749795   -1.778321    0.001018
    121          1           0      -10.300688   -0.077765    0.273201
    122          1           0      -11.880345   -1.135591    2.449320
    123          1           0      -12.727501   -1.729853    1.130091
    124          1           0      -12.108216    1.090476    0.414589
    125          1           0      -11.729033    1.036214    2.885761
    126          1           0      -13.534839    1.235080    2.768117
    127          1           0      -12.390891    2.292662    1.868719
    128          1           0      -14.955910    0.591819    0.986805
    129          1           0      -14.381386   -0.710412    0.006268
    130          1           0      -13.915404    0.667234   -1.715939
    131          1           0      -13.539535    2.125013   -0.649218
    132          1           0      -16.149328    1.708392   -0.078898
    133          1           0      -16.081988    1.224848   -1.773645
    134          1           0      -16.753967    3.331150   -1.797059
    135          1           0      -13.897992    4.390952   -2.157961
    136          1           0      -15.207256    4.211985   -3.361104
    137          1           0      -14.293107    2.821753   -2.985265
    138          1           0      -16.966580    4.062770    0.115796
    139          1           0      -15.726032    5.283266   -0.205680
    140          1           0      -15.292903    3.878780    0.715316
 ---------------------------------------------------------------------

 SCF Done:  E(RwB97XD) =  -3007.86448356     A.U. after   17 cycles

 Excitation energies and oscillator strengths:

 Excited State   1:      Singlet-A      1.5978 eV  775.98 nm  f=0.3979  <S**2>=0.000
     245 -> 248        0.17175
     246 -> 247        0.68781
     245 <- 248        0.11613
 This state for optimization and/or second-order correction.
 Total Energy, E(TD-HF/TD-DFT) =  -3007.80576676
 Copying the excited state density for this state as the 1-particle RhoCI density.

 Excited State   2:      Singlet-A      2.1358 eV  580.51 nm  f=0.1762  <S**2>=0.000
     245 -> 247        0.65959
     246 -> 248       -0.24392

 Excited State   3:      Singlet-A      3.4362 eV  360.82 nm  f=0.0027  <S**2>=0.000
     242 -> 247        0.20811
     243 -> 247       -0.40908
     244 -> 247        0.46889
     244 -> 249        0.16818
     244 -> 250        0.14560

 Excited State   4:      Singlet-A      3.4927 eV  354.98 nm  f=0.0013  <S**2>=0.000
     242 -> 247       -0.13596
     243 -> 247        0.49692
     244 -> 247        0.35453
     244 -> 249        0.18881
     244 -> 250        0.19586

 Excited State   5:      Singlet-A      3.5549 eV  348.77 nm  f=0.0009  <S**2>=0.000
     241 -> 247        0.51295
     241 -> 248       -0.11395
     241 -> 249       -0.33477
     241 -> 250        0.14400
     242 -> 247       -0.24802

 The electronic state is 1-A.
 Alpha  occ. eigenvalues --  -46.94778 -19.31539 -19.28368 -19.25271 -19.24090
 Alpha  occ. eigenvalues --  -19.23988 -19.23546 -14.46904 -14.45918 -14.44392
 Alpha  occ. eigenvalues --  -14.43962 -10.44084 -10.41956 -10.38601 -10.38559
 Alpha  occ. eigenvalues --  -10.37050 -10.35380 -10.34648 -10.34463 -10.34404
 Alpha  occ. eigenvalues --  -10.34163 -10.34102 -10.34092 -10.33980 -10.32483
 Alpha  occ. eigenvalues --  -10.32091 -10.32082 -10.32082 -10.32045 -10.31971
 Alpha  occ. eigenvalues --  -10.31846 -10.31581 -10.31541 -10.31469 -10.31377
 Alpha  occ. eigenvalues --  -10.31283 -10.31216 -10.31047 -10.31021 -10.30869
 Alpha  occ. eigenvalues --  -10.30610 -10.30412 -10.30373 -10.30141 -10.30099
 Alpha  occ. eigenvalues --  -10.29850 -10.29752 -10.29705 -10.29660 -10.29527
 Alpha  occ. eigenvalues --  -10.29476 -10.29288 -10.29268 -10.29077 -10.28945
 Alpha  occ. eigenvalues --  -10.28869 -10.28784 -10.28761 -10.28729 -10.28723
 Alpha  occ. eigenvalues --  -10.28576 -10.28488 -10.28345 -10.28307 -10.28268
 Alpha  occ. eigenvalues --  -10.27862  -3.20761  -1.94373  -1.93852  -1.93763
 Alpha  occ. eigenvalues --   -1.18960  -1.17548  -1.12643  -1.11705  -1.09643
 Alpha  occ. eigenvalues --   -1.09373  -1.06688  -1.06283  -1.05338  -1.04492
 Alpha  occ. eigenvalues --   -0.95787  -0.92790  -0.91936  -0.91682  -0.91353
 Alpha  occ. eigenvalues --   -0.90708  -0.90449  -0.89807  -0.89239  -0.89037
 Alpha  occ. eigenvalues --   -0.88284  -0.87242  -0.86129  -0.85938  -0.85476
 Alpha  occ. eigenvalues --   -0.84710  -0.84078  -0.83165  -0.82834  -0.82261
 Alpha  occ. eigenvalues --   -0.82142  -0.80544  -0.80145  -0.79315  -0.78538
 Alpha  occ. eigenvalues --   -0.77850  -0.77803  -0.77171  -0.76664  -0.75770
 Alpha  occ. eigenvalues --   -0.75414  -0.75052  -0.73316  -0.72431  -0.71254
 Alpha  occ. eigenvalues --   -0.71099  -0.69934  -0.69200  -0.68567  -0.67926
 Alpha  occ. eigenvalues --   -0.67658  -0.67481  -0.66792  -0.66336  -0.66220
 Alpha  occ. eigenvalues --   -0.66113  -0.65041  -0.63643  -0.62680  -0.62283
 Alpha  occ. eigenvalues --   -0.62183  -0.61633  -0.61241  -0.60780  -0.60244
 Alpha  occ. eigenvalues --   -0.59363  -0.58482  -0.58197  -0.57627  -0.57469
 Alpha  occ. eigenvalues --   -0.57207  -0.56752  -0.56622  -0.56101  -0.56047
 Alpha  occ. eigenvalues --   -0.55882  -0.55604  -0.55079  -0.54962  -0.54774
 Alpha  occ. eigenvalues --   -0.54580  -0.54437  -0.54163  -0.54035  -0.53498
 Alpha  occ. eigenvalues --   -0.53286  -0.53129  -0.53060  -0.53014  -0.52702
 Alpha  occ. eigenvalues --   -0.52609  -0.52458  -0.52082  -0.51851  -0.51397
 Alpha  occ. eigenvalues --   -0.51328  -0.51200  -0.50999  -0.50741  -0.50579
 Alpha  occ. eigenvalues --   -0.50403  -0.50338  -0.50285  -0.49888  -0.49827
 Alpha  occ. eigenvalues --   -0.49689  -0.49334  -0.49267  -0.49045  -0.49027
 Alpha  occ. eigenvalues --   -0.48748  -0.48157  -0.48104  -0.47940  -0.47876
 Alpha  occ. eigenvalues --   -0.47767  -0.47518  -0.47366  -0.47214  -0.47148
 Alpha  occ. eigenvalues --   -0.46969  -0.46689  -0.46505  -0.46263  -0.45974
 Alpha  occ. eigenvalues --   -0.45693  -0.45356  -0.45293  -0.44846  -0.44762
 Alpha  occ. eigenvalues --   -0.44568  -0.44525  -0.44422  -0.44326  -0.43990
 Alpha  occ. eigenvalues --   -0.43681  -0.43530  -0.43497  -0.43179  -0.42982
 Alpha  occ. eigenvalues --   -0.42756  -0.42724  -0.42407  -0.42345  -0.41973
 Alpha  occ. eigenvalues --   -0.41940  -0.41738  -0.41396  -0.40872  -0.40719
 Alpha  occ. eigenvalues --   -0.40420  -0.40134  -0.39954  -0.39848  -0.39638
 Alpha  occ. eigenvalues --   -0.39482  -0.38709  -0.38670  -0.38257  -0.38250
 Alpha  occ. eigenvalues --   -0.37897  -0.37469  -0.36657  -0.36438  -0.36321
 Alpha  occ. eigenvalues --   -0.35863  -0.35156  -0.34886  -0.33804  -0.33231
 Alpha  occ. eigenvalues --   -0.32996  -0.32727  -0.32421  -0.31945  -0.25887
 Alpha  occ. eigenvalues --   -0.23083
 Alpha virt. eigenvalues --   -0.07531   0.00907   0.02440   0.04729   0.06050
 Alpha virt. eigenvalues --    0.06211   0.07829   0.08113   0.08761   0.09635
 Alpha virt. eigenvalues --    0.10930   0.11290   0.11622   0.12429   0.12463

 Mulliken charges:
               1
     1  Mg   0.976291
     2  C   -0.025267
     3  C   -0.089251
     4  C   -0.055830
     5  C   -0.097582
     6  N   -0.358844
     7  C   -0.003102
     8  C   -0.072804
     9  C   -0.122809
    10  C    0.044985
    11  C    0.054644
    12  C    0.007295
    13  C    0.071139
    14  C    0.186954
    15  O   -0.296820
    16  O   -0.359894
    17  N   -0.420641
    18  C    0.160441
    19  C   -0.173483
    20  C   -0.090846
    21  C    0.140838
    22  C    0.076846
    23  C    0.027800
    24  O   -0.231862
    25  C   -0.000754
    26  N   -0.396254
    27  C    0.062848
    28  C   -0.097877
    29  C   -0.046690
    30  C    0.059629
    31  C    0.014566
    32  C   -0.000404
    33  C   -0.051565
    34  N   -0.411012
    35  C    0.124774
    36  C   -0.213010
    37  C    0.035979
    38  C    0.126615
    39  C    0.085905
    40  C    0.036230
    41  O   -0.190318
    42  C   -0.078411
    43  C    0.276266
    44  O   -0.221486
    45  O   -0.390192
    46  C    0.151904
    47  C    0.226988
    48  C   -0.148369
    49  C   -0.172610
    50  C    0.048406
    51  C    0.033785
    52  C   -0.044350
    53  C    0.016604
    54  C   -0.200069
    55  C    0.011782
    56  C    0.022759
    57  C   -0.042516
    58  C    0.035427
    59  C   -0.203969
    60  C    0.014562
    61  C    0.025003
    62  C   -0.054608
    63  C   -0.051028
    64  C   -0.193523
    65  C   -0.004311
    66  C   -0.017089
    67  H   -0.004087
    68  H    0.019151
    69  H   -0.004703
    70  H    0.041321
    71  H    0.033042
    72  H    0.048732
    73  H    0.054783
    74  H    0.037782
    75  H    0.028355
    76  H    0.034783
    77  H    0.057845
    78  H    0.054077
    79  H    0.039522
    80  H    0.066817
    81  H    0.035215
    82  H    0.031470
    83  H    0.051984
    84  H    0.071986
    85  H    0.051446
    86  H    0.037647
    87  H    0.034226
    88  H    0.039499
    89  H    0.051053
    90  H    0.041041
    91  H    0.018207
    92  H    0.034391
    93  H    0.022449
    94  H    0.037686
    95  H    0.048084
    96  H    0.050352
    97  H    0.063209
    98  H    0.080756
    99  H    0.054444
   100  H    0.044888
   101  H    0.045458
   102  H    0.059442
   103  H    0.060566
   104  H    0.033669
   105  H    0.032171
   106  H    0.060611
   107  H    0.030109
   108  H    0.026604
   109  H    0.019654
   110  H    0.021944
   111  H    0.018134
   112  H    0.007053
   113  H    0.026381
   114  H    0.019600
   115  H    0.014613
   116  H    0.029197
   117  H    0.031010
   118  H    0.011531
   119  H    0.018676
   120  H    0.028064
   121  H    0.030372
   122  H    0.005613
   123  H    0.009287
   124  H    0.026091
   125  H    0.029509
   126  H    0.027915
   127  H    0.014796
   128  H    0.007916
   129  H    0.020816
   130  H    0.034509
   131  H    0.023461
   132  H    0.007245
   133  H    0.016830
   134  H    0.023626
   135  H    0.038185
   136  H    0.030036
   137  H    0.030836
   138  H    0.033109
   139  H    0.029950
   140  H    0.030145
 Sum of Mulliken charges =  -0.00000

 Dipole moment (field-independent basis, Debye):
    X=             -4.9990    Y=              1.7943    Z=              1.6794  Tot=              5.5704
 Quadrupole moment (field-independent basis, Debye-Ang):
   XX=           -378.0547   YY=           -437.4266   ZZ=           -398.8918
   XY=             34.4245   XZ=             26.0960   YZ=              0.0562

 Normal termination of Gaussian 16 at Tue May  3 16:34:36 2022.
