 Gaussian 16, Revision A.03,
 Gaussian 16:  ES64L-G16RevA.03 25-Dec-2016

 --------------------
 #p ZINDO=(nstates=5)
 --------------------

 ------------------------------
 step_1001_chromophore_21 ZINDO
 ------------------------------
 Symbolic Z-matrix:
 Charge =  0 Multiplicity = 1

                         Standard orientation:
 ---------------------------------------------------------------------
 Center     Atomic      Atomic             Coordinates (Angstroms)
 Number     Number       Type             X           Y           Z
 ---------------------------------------------------------------------
      1         12           0        5.195765    1.196757    0.259218
      2          6           0        4.964167   -2.362262    0.165895
      3          6           0        1.837735    1.298830   -0.480493
      4          6           0        5.461559    4.561928    0.166780
      5          6           0        8.603005    0.929350    0.146485
      6          7           0        3.608121   -0.349865   -0.004363
      7          6           0        3.715686   -1.762712    0.099311
      8          6           0        2.301861   -2.358966    0.179329
      9          6           0        1.390056   -1.162880   -0.334289
     10          6           0        2.329960    0.003739   -0.275006
     11          6           0        0.787647   -1.326229   -1.708043
     12          6           0        2.068650   -2.892830    1.576646
     13          6           0        0.940461   -3.940572    1.852380
     14          6           0        0.064432   -4.401336    0.664218
     15          8           0        0.341286   -5.313601   -0.143228
     16          8           0       -1.088268   -3.697519    0.644627
     17          7           0        3.820763    2.739731    0.004072
     18          6           0        2.543041    2.588579   -0.405954
     19          6           0        1.884546    3.816308   -0.635055
     20          6           0        2.930878    4.769292   -0.561194
     21          6           0        4.132556    4.042734   -0.097792
     22          6           0        0.448197    3.960313   -0.985058
     23          6           0        2.969761    6.254676   -0.910910
     24          8           0        3.877686    7.051011   -0.713945
     25          6           0        1.709718    6.841819   -1.576123
     26          7           0        6.790122    2.564859    0.274247
     27          6           0        6.626615    3.899726    0.369539
     28          6           0        7.944288    4.572210    0.814377
     29          6           0        9.006616    3.390596    0.623112
     30          6           0        8.121115    2.234001    0.254778
     31          6           0        8.473610    5.829541    0.065577
     32          6           0       10.042962    3.113404    1.742276
     33          6           0       11.463206    3.448069    1.504385
     34          7           0        6.523456   -0.399962    0.249271
     35          6           0        7.877065   -0.342090    0.172673
     36          6           0        8.414965   -1.693815    0.111315
     37          6           0        7.315065   -2.541051    0.078243
     38          6           0        6.185082   -1.704744    0.165793
     39          6           0        9.895877   -2.024705   -0.042009
     40          6           0        6.888117   -3.863063   -0.066640
     41          8           0        7.520554   -4.895213   -0.145960
     42          6           0        5.326905   -3.827271    0.051102
     43          6           0        4.873188   -4.383162   -1.163688
     44          8           0        4.786349   -3.864275   -2.240198
     45          8           0        4.458017   -5.675280   -0.871206
     46          6           0        3.854722   -6.546007   -1.870228
     47          6           0       -2.040192   -4.106030   -0.450500
     48          6           0       -3.251993   -3.152691   -0.305894
     49          6           0       -4.403294   -3.143998   -0.944496
     50          6           0       -4.729539   -4.031502   -2.127759
     51          6           0       -5.345956   -1.993864   -0.617135
     52          6           0       -6.716723   -2.415225    0.069713
     53          6           0       -7.004769   -1.916465    1.523614
     54          6           0       -8.140586   -0.847629    1.555065
     55          6           0       -7.842215    0.162393    2.664750
     56          6           0       -9.498855   -1.500601    1.759476
     57          6           0      -10.623538   -1.000603    0.754133
     58          6           0      -12.015763   -0.945144    1.385756
     59          6           0      -12.666872    0.409557    1.054972
     60          6           0      -12.577953    1.288176    2.249279
     61          6           0      -14.109040    0.278016    0.375929
     62          6           0      -14.165966    1.252231   -0.831251
     63          6           0      -15.586214    1.818570   -1.005832
     64          6           0      -15.739315    3.358996   -1.401267
     65          6           0      -14.682069    3.734490   -2.534713
     66          6           0      -15.912528    4.212714   -0.117779
     67          1           0        0.784398    1.260671   -0.765167
     68          1           0        5.637290    5.635802    0.259029
     69          1           0        9.692207    0.860427    0.165180
     70          1           0        2.183346   -3.237608   -0.455293
     71          1           0        0.619893   -0.984722    0.415678
     72          1           0       -0.276272   -1.483667   -1.532083
     73          1           0        1.328804   -2.143291   -2.185582
     74          1           0        1.018373   -0.399344   -2.232390
     75          1           0        1.867470   -2.046297    2.233139
     76          1           0        3.029454   -3.344733    1.824954
     77          1           0        0.361503   -3.561583    2.695087
     78          1           0        1.536090   -4.814251    2.116592
     79          1           0       -0.077660    3.140484   -0.494803
     80          1           0        0.276243    3.979556   -2.061682
     81          1           0       -0.020198    4.831176   -0.527223
     82          1           0        1.633444    6.146490   -2.411590
     83          1           0        2.064737    7.738235   -2.085215
     84          1           0        0.880037    6.776679   -0.873320
     85          1           0        7.876701    4.856047    1.864327
     86          1           0        9.546020    3.501195   -0.318058
     87          1           0        9.499198    5.712470   -0.283038
     88          1           0        8.484529    6.673447    0.755792
     89          1           0        7.857703    6.003334   -0.816455
     90          1           0        9.896001    2.147798    2.226558
     91          1           0        9.822486    3.802189    2.557733
     92          1           0       11.837534    4.211455    2.185377
     93          1           0       11.620446    3.892529    0.522250
     94          1           0       12.150882    2.602136    1.543061
     95          1           0       10.417637   -1.687416    0.853279
     96          1           0       10.287403   -1.491933   -0.908003
     97          1           0        9.936887   -3.100399   -0.216910
     98          1           0        5.096119   -4.449575    0.916123
     99          1           0        3.580309   -7.537025   -1.507598
    100          1           0        4.548835   -6.652092   -2.703537
    101          1           0        2.921518   -6.166945   -2.287129
    102          1           0       -2.206837   -5.172610   -0.306964
    103          1           0       -1.540417   -4.069015   -1.418181
    104          1           0       -3.035472   -2.360461    0.410904
    105          1           0       -5.007514   -3.371581   -2.949264
    106          1           0       -5.541768   -4.739453   -1.968213
    107          1           0       -3.801623   -4.453454   -2.515483
    108          1           0       -5.626805   -1.512222   -1.554193
    109          1           0       -4.858158   -1.285012    0.051188
    110          1           0       -6.860669   -3.493974    0.020125
    111          1           0       -7.463374   -2.016209   -0.617680
    112          1           0       -6.068766   -1.459191    1.846971
    113          1           0       -7.212489   -2.706866    2.244370
    114          1           0       -8.113009   -0.318643    0.603130
    115          1           0       -8.808882    0.363017    3.124437
    116          1           0       -7.432922    1.107167    2.305881
    117          1           0       -7.183738   -0.183430    3.461374
    118          1           0       -9.865533   -1.320002    2.769799
    119          1           0       -9.459716   -2.582019    1.631774
    120          1           0      -10.749795   -1.778321    0.001018
    121          1           0      -10.300688   -0.077765    0.273201
    122          1           0      -11.880345   -1.135591    2.449320
    123          1           0      -12.727501   -1.729853    1.130091
    124          1           0      -12.108216    1.090476    0.414589
    125          1           0      -11.729033    1.036214    2.885761
    126          1           0      -13.534839    1.235080    2.768117
    127          1           0      -12.390891    2.292662    1.868719
    128          1           0      -14.955910    0.591819    0.986805
    129          1           0      -14.381386   -0.710412    0.006268
    130          1           0      -13.915404    0.667234   -1.715939
    131          1           0      -13.539535    2.125013   -0.649218
    132          1           0      -16.149328    1.708392   -0.078898
    133          1           0      -16.081988    1.224848   -1.773645
    134          1           0      -16.753967    3.331150   -1.797059
    135          1           0      -13.897992    4.390952   -2.157961
    136          1           0      -15.207256    4.211985   -3.361104
    137          1           0      -14.293107    2.821753   -2.985265
    138          1           0      -16.966580    4.062770    0.115796
    139          1           0      -15.726032    5.283266   -0.205680
    140          1           0      -15.292903    3.878780    0.715316
 ---------------------------------------------------------------------

 SCF Done:  E(RZINDO/S) =  -474.523220079     A.U. after   20 cycles

 Excitation energies and oscillator strengths:

 Excited State   1:      Singlet-A      1.2017 eV 1031.73 nm  f=0.6456  <S**2>=0.000
     175 ->178         0.16933
     176 ->177         0.66544
 This state for optimization and/or second-order correction.
 Total Energy, E(CIS/TDA) =  -474.479057897
 Copying the excited state density for this state as the 1-particle RhoCI density.

 Excited State   2:      Singlet-A      1.9085 eV  649.65 nm  f=0.1155  <S**2>=0.000
     175 ->177         0.58415
     176 ->178        -0.35436
     176 ->179         0.11100

 Excited State   3:      Singlet-A      2.9028 eV  427.12 nm  f=0.0012  <S**2>=0.000
     168 ->177         0.34441
     168 ->178        -0.27655
     168 ->179        -0.35315
     168 ->181         0.20679
     168 ->186        -0.19003
     168 ->200         0.10031

 Excited State   4:      Singlet-A      2.9605 eV  418.80 nm  f=0.4598  <S**2>=0.000
     169 ->177        -0.10512
     169 ->181        -0.12537
     175 ->177         0.23930
     176 ->178         0.50937
     176 ->179         0.31757

 Excited State   5:      Singlet-A      2.9931 eV  414.23 nm  f=0.0351  <S**2>=0.000
     169 ->177         0.27694
     169 ->179         0.29515
     169 ->181         0.38845
     169 ->186         0.18407
     169 ->187         0.17214
     176 ->178         0.14728
     176 ->179         0.10290

 The electronic state is 1-A.
 Alpha  occ. eigenvalues --   -1.86127  -1.82256  -1.80383  -1.74023  -1.72842
 Alpha  occ. eigenvalues --   -1.70974  -1.65839  -1.60986  -1.59306  -1.58124
 Alpha  occ. eigenvalues --   -1.54839  -1.51558  -1.50405  -1.49261  -1.47622
 Alpha  occ. eigenvalues --   -1.44342  -1.42857  -1.40856  -1.40222  -1.38507
 Alpha  occ. eigenvalues --   -1.37639  -1.33548  -1.32593  -1.31159  -1.29452
 Alpha  occ. eigenvalues --   -1.28097  -1.24886  -1.22267  -1.20496  -1.18740
 Alpha  occ. eigenvalues --   -1.18266  -1.18108  -1.16105  -1.14977  -1.12913
 Alpha  occ. eigenvalues --   -1.12654  -1.10639  -1.09259  -1.04715  -1.03857
 Alpha  occ. eigenvalues --   -1.03524  -1.01102  -0.98488  -0.97946  -0.96823
 Alpha  occ. eigenvalues --   -0.96562  -0.95067  -0.94406  -0.92452  -0.91542
 Alpha  occ. eigenvalues --   -0.91110  -0.89868  -0.89393  -0.88553  -0.85937
 Alpha  occ. eigenvalues --   -0.85835  -0.84298  -0.82643  -0.81923  -0.80943
 Alpha  occ. eigenvalues --   -0.80079  -0.78722  -0.78570  -0.77221  -0.76469
 Alpha  occ. eigenvalues --   -0.75985  -0.75799  -0.74649  -0.73896  -0.72968
 Alpha  occ. eigenvalues --   -0.72385  -0.71918  -0.71263  -0.70995  -0.70567
 Alpha  occ. eigenvalues --   -0.70061  -0.68717  -0.68250  -0.67958  -0.67768
 Alpha  occ. eigenvalues --   -0.67379  -0.66858  -0.66779  -0.66345  -0.66068
 Alpha  occ. eigenvalues --   -0.65286  -0.64803  -0.64337  -0.64004  -0.63819
 Alpha  occ. eigenvalues --   -0.63458  -0.62986  -0.62851  -0.62693  -0.61862
 Alpha  occ. eigenvalues --   -0.61397  -0.61320  -0.60684  -0.60381  -0.60180
 Alpha  occ. eigenvalues --   -0.59923  -0.59544  -0.59266  -0.59005  -0.58209
 Alpha  occ. eigenvalues --   -0.58001  -0.57695  -0.57231  -0.56832  -0.56676
 Alpha  occ. eigenvalues --   -0.56436  -0.55833  -0.55189  -0.54905  -0.54587
 Alpha  occ. eigenvalues --   -0.53903  -0.53634  -0.53024  -0.52883  -0.52417
 Alpha  occ. eigenvalues --   -0.52375  -0.52106  -0.52083  -0.51936  -0.51455
 Alpha  occ. eigenvalues --   -0.51223  -0.50883  -0.50757  -0.50198  -0.49928
 Alpha  occ. eigenvalues --   -0.49784  -0.49497  -0.49432  -0.49313  -0.49123
 Alpha  occ. eigenvalues --   -0.48623  -0.48559  -0.48086  -0.47777  -0.47457
 Alpha  occ. eigenvalues --   -0.47253  -0.47113  -0.46925  -0.46736  -0.46482
 Alpha  occ. eigenvalues --   -0.46276  -0.46165  -0.45938  -0.45157  -0.44966
 Alpha  occ. eigenvalues --   -0.44834  -0.44525  -0.44451  -0.44202  -0.44014
 Alpha  occ. eigenvalues --   -0.43980  -0.43731  -0.42494  -0.42222  -0.42193
 Alpha  occ. eigenvalues --   -0.41855  -0.41162  -0.40702  -0.39199  -0.38106
 Alpha  occ. eigenvalues --   -0.37927  -0.37047  -0.34873  -0.34528  -0.34148
 Alpha  occ. eigenvalues --   -0.33733  -0.33198  -0.32820  -0.32466  -0.26483
 Alpha  occ. eigenvalues --   -0.21741
 Alpha virt. eigenvalues --   -0.08923  -0.01555  -0.00215   0.01264   0.01714
 Alpha virt. eigenvalues --    0.02847   0.03379   0.03701   0.04576   0.05401
 Alpha virt. eigenvalues --    0.06670   0.07126   0.07844   0.08012   0.08432

 Mulliken charges:
               1
     1  Mg   0.423927
     2  C   -0.028946
     3  C   -0.098300
     4  C   -0.066362
     5  C   -0.083909
     6  N   -0.296975
     7  C    0.120758
     8  C    0.008066
     9  C    0.004115
    10  C    0.140329
    11  C   -0.050257
    12  C   -0.016417
    13  C   -0.001495
    14  C    0.469849
    15  O   -0.532077
    16  O   -0.268809
    17  N   -0.300438
    18  C    0.103807
    19  C    0.008092
    20  C   -0.059225
    21  C    0.134326
    22  C   -0.038591
    23  C    0.317477
    24  O   -0.527293
    25  C   -0.047085
    26  N   -0.280575
    27  C    0.138126
    28  C    0.002821
    29  C    0.000891
    30  C    0.135478
    31  C   -0.053425
    32  C   -0.022053
    33  C   -0.048397
    34  N   -0.312347
    35  C    0.101683
    36  C    0.030909
    37  C   -0.043163
    38  C    0.114230
    39  C   -0.040802
    40  C    0.343811
    41  O   -0.522052
    42  C    0.059728
    43  C    0.511388
    44  O   -0.526545
    45  O   -0.288294
    46  C    0.075258
    47  C    0.096628
    48  C   -0.083240
    49  C   -0.000027
    50  C   -0.042298
    51  C   -0.023568
    52  C   -0.040700
    53  C   -0.033706
    54  C   -0.004643
    55  C   -0.059266
    56  C   -0.036020
    57  C   -0.042198
    58  C   -0.031860
    59  C   -0.021101
    60  C   -0.052814
    61  C   -0.047651
    62  C   -0.040331
    63  C   -0.044773
    64  C   -0.023318
    65  C   -0.055355
    66  C   -0.052103
    67  H    0.027158
    68  H    0.041981
    69  H    0.022127
    70  H    0.038836
    71  H    0.024449
    72  H    0.026671
    73  H    0.035574
    74  H    0.028541
    75  H    0.021505
    76  H    0.024313
    77  H    0.041518
    78  H    0.039017
    79  H    0.021385
    80  H    0.038149
    81  H    0.022853
    82  H    0.024933
    83  H    0.048534
    84  H    0.056137
    85  H    0.036453
    86  H    0.033821
    87  H    0.018469
    88  H    0.021686
    89  H    0.029595
    90  H    0.027504
    91  H    0.009248
    92  H    0.017389
    93  H    0.013530
    94  H    0.017802
    95  H    0.033486
    96  H    0.032159
    97  H    0.037191
    98  H    0.058892
    99  H    0.036792
   100  H    0.039607
   101  H    0.038561
   102  H    0.054003
   103  H    0.054428
   104  H    0.030037
   105  H    0.020751
   106  H    0.039370
   107  H    0.024221
   108  H    0.023125
   109  H    0.025003
   110  H    0.017614
   111  H    0.013720
   112  H    0.012058
   113  H    0.025664
   114  H    0.023786
   115  H    0.012957
   116  H    0.015881
   117  H    0.020643
   118  H    0.022632
   119  H    0.015472
   120  H    0.013697
   121  H    0.029211
   122  H    0.016723
   123  H    0.017774
   124  H    0.027004
   125  H    0.019940
   126  H    0.019653
   127  H    0.009180
   128  H    0.023160
   129  H    0.021864
   130  H    0.023205
   131  H    0.026350
   132  H    0.015598
   133  H    0.011670
   134  H    0.014096
   135  H    0.027243
   136  H    0.015448
   137  H    0.022810
   138  H    0.018245
   139  H    0.017434
   140  H    0.019570
 Sum of Mulliken charges =  -0.00000

 Dipole moment (field-independent basis, Debye):
    X=             -6.0822    Y=              2.0331    Z=              2.7590  Tot=              6.9813
 N-N= 4.265972184027D+03 E-N= 0.000000000000D+00  KE=-9.206525309553D+03
 Leave Link  601 at Tue May  3 16:53:28 2022, MaxMem=  6710886400 cpu:               0.7 elap:               0.0
 (Enter /sw/apps/gaussian-16.0/g16/l9999.exe)
 1\1\GINC-BP1-COMPUTE196\SP\RZINDO CIS\STO-3G\C55H74Mg1N4O6\OF15641\03-
 May-2022\0\\#p ZINDO=(nstates=5)\\step_1001_chromophore_21 ZINDO\\0,1\
 Mg,0,15.466,51.725,25.084\C,0,17.472,50.798,27.885\C,0,12.857,52.187,2
 7.278\C,0,13.525,52.422,22.41\C,0,17.854,50.43,23.007\N,0,15.254,51.61
 ,27.303\C,0,16.242,51.304,28.277\C,0,15.702,51.689,29.663\C,0,14.141,5
 1.832,29.401\C,0,14.071,51.877,27.904\C,0,13.267,50.741,29.969\C,0,16.
 46,52.897,30.171\C,0,16.471,53.249,31.695\C,0,15.676,52.34,32.661\O,0,

 Normal termination of Gaussian 16 at Tue May  3 16:53:29 2022.
