 Gaussian 16, Revision A.03,
 Gaussian 16:  ES64L-G16RevA.03 25-Dec-2016

 ------------------------------
 #p blyp/Def2SVP td=(nstates=5)
 ------------------------------

 --------------------------------------------------
 step_251_chromophore_12 TDDFT with blyp functional
 --------------------------------------------------
 Symbolic Z-matrix:
 Charge =  0 Multiplicity = 1

                         Standard orientation:
 ---------------------------------------------------------------------
 Center     Atomic      Atomic             Coordinates (Angstroms)
 Number     Number       Type             X           Y           Z
 ---------------------------------------------------------------------
      1         12           0       -4.197827    0.254533   -0.474344
      2          6           0       -2.404196   -2.785052    0.690696
      3          6           0       -1.110452    1.623483   -0.608531
      4          6           0       -5.851541    2.865509   -1.178374
      5          6           0       -7.169270   -1.372238    0.620215
      6          7           0       -2.052424   -0.504161    0.041515
      7          6           0       -1.589367   -1.782814    0.301889
      8          6           0       -0.068536   -1.944663    0.197488
      9          6           0        0.331089   -0.437296    0.236078
     10          6           0       -1.007759    0.315117   -0.124990
     11          6           0        0.897244    0.039244    1.536571
     12          6           0        0.482165   -2.767180   -1.015402
     13          6           0        1.756694   -3.521283   -0.832025
     14          6           0        2.678318   -3.549836   -2.047182
     15          8           0        2.341230   -3.275186   -3.188311
     16          8           0        3.999997   -3.894412   -1.727813
     17          7           0       -3.567031    2.054857   -0.904015
     18          6           0       -2.216640    2.456165   -0.976224
     19          6           0       -2.185118    3.781207   -1.524983
     20          6           0       -3.586209    4.064975   -1.833347
     21          6           0       -4.351885    2.990636   -1.312421
     22          6           0       -0.878278    4.587876   -1.867472
     23          6           0       -4.083050    5.279707   -2.555770
     24          8           0       -5.306706    5.494620   -2.734325
     25          6           0       -3.180907    6.293337   -3.159333
     26          7           0       -6.175869    0.792282   -0.177357
     27          6           0       -6.657044    1.968683   -0.584176
     28          6           0       -8.198953    2.125341   -0.386588
     29          6           0       -8.576443    0.603460   -0.247500
     30          6           0       -7.223138   -0.054469    0.137500
     31          6           0       -8.550833    2.927604    0.907381
     32          6           0       -9.112548   -0.011505   -1.608058
     33          6           0      -10.284485    0.674988   -2.340649
     34          7           0       -4.723456   -1.683213    0.419676
     35          6           0       -5.982999   -2.183984    0.728726
     36          6           0       -5.853158   -3.504038    1.299968
     37          6           0       -4.482292   -3.789811    1.267388
     38          6           0       -3.809132   -2.625737    0.805041
     39          6           0       -6.960801   -4.425047    1.687528
     40          6           0       -3.493837   -4.816338    1.570868
     41          8           0       -3.562816   -5.969241    1.975852
     42          6           0       -2.100589   -4.156013    1.086894
     43          6           0       -1.186825   -4.308592    2.206031
     44          8           0       -1.301917   -3.807797    3.335738
     45          8           0       -0.429078   -5.420581    1.974045
     46          6           0        0.516761   -5.841161    2.957388
     47          6           0        5.022612   -3.680113   -2.784672
     48          6           0        6.374075   -3.274128   -2.181325
     49          6           0        7.509399   -2.892274   -2.883881
     50          6           0        7.658509   -2.601340   -4.372544
     51          6           0        8.632948   -2.557905   -2.005115
     52          6           0        9.037427   -1.112647   -2.074321
     53          6           0        9.616081   -0.642682   -0.751321
     54          6           0       10.376040    0.731109   -0.795645
     55          6           0       11.905498    0.457822   -1.001023
     56          6           0       10.132973    1.520877    0.523420
     57          6           0        8.748813    2.304203    0.578660
     58          6           0        8.011856    2.109172    1.908701
     59          6           0        6.991837    3.201312    2.011237
     60          6           0        7.439561    4.598779    2.625179
     61          6           0        5.708136    2.678769    2.683994
     62          6           0        4.313180    3.172966    1.987879
     63          6           0        3.110022    3.440369    2.999648
     64          6           0        2.592509    4.898843    3.015511
     65          6           0        2.488814    5.513276    4.374210
     66          6           0        1.214071    4.899781    2.326012
     67          1           0       -0.081509    1.952465   -0.769333
     68          1           0       -6.460322    3.740878   -1.413315
     69          1           0       -8.116079   -1.825254    0.922790
     70          1           0        0.265867   -2.421556    1.119064
     71          1           0        0.987519   -0.194286   -0.598950
     72          1           0        0.128003    0.646463    2.013746
     73          1           0        1.743365    0.699941    1.348282
     74          1           0        1.209346   -0.719248    2.254204
     75          1           0        0.683670   -2.052813   -1.813126
     76          1           0       -0.324231   -3.414278   -1.359452
     77          1           0        1.421654   -4.535563   -0.615965
     78          1           0        2.253609   -3.282452    0.108360
     79          1           0       -0.638650    4.666486   -2.927484
     80          1           0       -0.021511    4.211923   -1.308908
     81          1           0       -1.120594    5.567023   -1.452506
     82          1           0       -2.771021    6.906382   -2.356261
     83          1           0       -3.812359    6.893496   -3.815016
     84          1           0       -2.451311    5.742834   -3.752321
     85          1           0       -8.562451    2.630933   -1.281843
     86          1           0       -9.292322    0.364305    0.538315
     87          1           0       -8.994763    3.866314    0.575006
     88          1           0       -7.729810    3.091144    1.604680
     89          1           0       -9.320058    2.294176    1.351429
     90          1           0       -9.488667   -1.014300   -1.406884
     91          1           0       -8.236973   -0.141720   -2.243823
     92          1           0       -9.886216    0.921283   -3.324821
     93          1           0      -10.450464    1.591164   -1.773202
     94          1           0      -11.153480    0.025264   -2.443518
     95          1           0       -7.849628   -3.977627    1.242072
     96          1           0       -7.012146   -4.390950    2.775748
     97          1           0       -6.796466   -5.464131    1.402282
     98          1           0       -1.732079   -4.686157    0.208876
     99          1           0        0.541848   -5.163208    3.810815
    100          1           0        1.484572   -5.785026    2.458943
    101          1           0        0.378147   -6.889733    3.216922
    102          1           0        4.650511   -2.854748   -3.391285
    103          1           0        4.963256   -4.585118   -3.388470
    104          1           0        6.397091   -3.340748   -1.093937
    105          1           0        8.556047   -3.119245   -4.710302
    106          1           0        7.601354   -1.521926   -4.514037
    107          1           0        6.776080   -3.072687   -4.805279
    108          1           0        9.406891   -3.157860   -2.484557
    109          1           0        8.557933   -2.911391   -0.976205
    110          1           0        8.149243   -0.501665   -2.234280
    111          1           0        9.814325   -1.051883   -2.835775
    112          1           0       10.339963   -1.375913   -0.395655
    113          1           0        8.794083   -0.584750   -0.038376
    114          1           0       10.050297    1.336670   -1.641648
    115          1           0       12.211540    1.092056   -1.833382
    116          1           0       12.166274   -0.560232   -1.290584
    117          1           0       12.392909    0.868956   -0.117650
    118          1           0       10.919407    2.241278    0.746818
    119          1           0       10.149911    0.897849    1.417578
    120          1           0        8.090630    1.953409   -0.216772
    121          1           0        8.872782    3.384214    0.498932
    122          1           0        8.768933    2.154168    2.691740
    123          1           0        7.530876    1.134404    1.989195
    124          1           0        6.580033    3.303329    1.007252
    125          1           0        7.223958    5.404244    1.922954
    126          1           0        8.510409    4.632152    2.823534
    127          1           0        6.880026    4.802161    3.538689
    128          1           0        5.604530    2.945738    3.735893
    129          1           0        5.644254    1.600633    2.534336
    130          1           0        3.993568    2.274047    1.460187
    131          1           0        4.496008    4.009983    1.313274
    132          1           0        3.336718    3.012590    3.976948
    133          1           0        2.319727    2.803794    2.600944
    134          1           0        3.197140    5.586536    2.425063
    135          1           0        1.988018    6.481124    4.394950
    136          1           0        3.513447    5.586851    4.737895
    137          1           0        1.913068    4.804504    4.969384
    138          1           0        0.645796    5.710226    2.782464
    139          1           0        0.636283    3.986726    2.468746
    140          1           0        1.299823    5.165588    1.273120
 ---------------------------------------------------------------------

 SCF Done:  E(RB-LYP) =  -3007.38186805     A.U. after   21 cycles

 Excitation energies and oscillator strengths:

 Excited State   1:      Singlet-A      1.4836 eV  835.70 nm  f=0.0016  <S**2>=0.000
     244 -> 247        0.54022
     245 -> 247        0.45482
 This state for optimization and/or second-order correction.
 Total Energy, E(TD-HF/TD-DFT) =  -3007.32734670
 Copying the excited state density for this state as the 1-particle RhoCI density.

 Excited State   2:      Singlet-A      1.7823 eV  695.63 nm  f=0.2864  <S**2>=0.000
     245 -> 249        0.13486
     246 -> 247        0.69999
     246 <- 247       -0.16762

 Excited State   3:      Singlet-A      1.9790 eV  626.51 nm  f=0.0608  <S**2>=0.000
     243 -> 247        0.55001
     244 -> 247        0.27458
     245 -> 247       -0.32175
     246 -> 249        0.11582

 Excited State   4:      Singlet-A      2.0215 eV  613.32 nm  f=0.1004  <S**2>=0.000
     243 -> 247        0.44266
     244 -> 247       -0.33177
     245 -> 247        0.39174
     246 -> 249       -0.15811

 Excited State   5:      Singlet-A      2.0746 eV  597.62 nm  f=0.0003  <S**2>=0.000
     242 -> 247        0.70665

 The electronic state is 1-A.
 Alpha  occ. eigenvalues --  -46.27322 -18.81732 -18.81524 -18.77506 -18.76525
 Alpha  occ. eigenvalues --  -18.76088 -18.74369 -14.03158 -14.02780 -14.01287
 Alpha  occ. eigenvalues --  -14.01023 -10.04769 -10.03415 -10.00348  -9.98897
 Alpha  occ. eigenvalues --   -9.97882  -9.97106  -9.96792  -9.96380  -9.96361
 Alpha  occ. eigenvalues --   -9.96253  -9.96100  -9.95846  -9.95627  -9.94554
 Alpha  occ. eigenvalues --   -9.94440  -9.94202  -9.94178  -9.94134  -9.94133
 Alpha  occ. eigenvalues --   -9.93984  -9.93727  -9.93520  -9.93520  -9.93466
 Alpha  occ. eigenvalues --   -9.93329  -9.93291  -9.93265  -9.93123  -9.92938
 Alpha  occ. eigenvalues --   -9.92642  -9.92569  -9.92433  -9.92401  -9.92379
 Alpha  occ. eigenvalues --   -9.92359  -9.92148  -9.92011  -9.91784  -9.91783
 Alpha  occ. eigenvalues --   -9.91699  -9.91679  -9.91670  -9.91651  -9.91510
 Alpha  occ. eigenvalues --   -9.91455  -9.91404  -9.91362  -9.91361  -9.91303
 Alpha  occ. eigenvalues --   -9.91236  -9.91070  -9.91059  -9.90824  -9.90656
 Alpha  occ. eigenvalues --   -9.90506  -2.92073  -1.72469  -1.71964  -1.71799
 Alpha  occ. eigenvalues --   -0.97830  -0.96991  -0.91659  -0.89641  -0.89250
 Alpha  occ. eigenvalues --   -0.88857  -0.87253  -0.86199  -0.86068  -0.84873
 Alpha  occ. eigenvalues --   -0.76313  -0.74605  -0.73420  -0.73161  -0.72120
 Alpha  occ. eigenvalues --   -0.72082  -0.71415  -0.71313  -0.70863  -0.70220
 Alpha  occ. eigenvalues --   -0.69957  -0.69485  -0.68123  -0.67821  -0.67237
 Alpha  occ. eigenvalues --   -0.66585  -0.66181  -0.65278  -0.65156  -0.64718
 Alpha  occ. eigenvalues --   -0.63971  -0.62804  -0.62733  -0.61773  -0.61238
 Alpha  occ. eigenvalues --   -0.60921  -0.60238  -0.60153  -0.59972  -0.58842
 Alpha  occ. eigenvalues --   -0.58479  -0.57804  -0.56141  -0.55539  -0.54532
 Alpha  occ. eigenvalues --   -0.53774  -0.53626  -0.52606  -0.52043  -0.51501
 Alpha  occ. eigenvalues --   -0.51090  -0.50871  -0.50850  -0.50392  -0.49970
 Alpha  occ. eigenvalues --   -0.49278  -0.49032  -0.48723  -0.48251  -0.47155
 Alpha  occ. eigenvalues --   -0.46687  -0.46138  -0.45902  -0.45359  -0.44873
 Alpha  occ. eigenvalues --   -0.44471  -0.44214  -0.43097  -0.42517  -0.42476
 Alpha  occ. eigenvalues --   -0.42289  -0.41732  -0.41598  -0.41468  -0.41333
 Alpha  occ. eigenvalues --   -0.41093  -0.40856  -0.40620  -0.40279  -0.40083
 Alpha  occ. eigenvalues --   -0.39979  -0.39883  -0.39606  -0.39582  -0.39426
 Alpha  occ. eigenvalues --   -0.39116  -0.38755  -0.38699  -0.38610  -0.38345
 Alpha  occ. eigenvalues --   -0.38216  -0.38163  -0.37968  -0.37693  -0.37508
 Alpha  occ. eigenvalues --   -0.37392  -0.37077  -0.36950  -0.36801  -0.36616
 Alpha  occ. eigenvalues --   -0.36497  -0.36313  -0.36066  -0.35913  -0.35644
 Alpha  occ. eigenvalues --   -0.35531  -0.35318  -0.35209  -0.35057  -0.34918
 Alpha  occ. eigenvalues --   -0.34768  -0.34363  -0.34268  -0.34173  -0.34167
 Alpha  occ. eigenvalues --   -0.33958  -0.33832  -0.33520  -0.33460  -0.33272
 Alpha  occ. eigenvalues --   -0.33167  -0.32934  -0.32812  -0.32584  -0.32338
 Alpha  occ. eigenvalues --   -0.32184  -0.31999  -0.31668  -0.31606  -0.31474
 Alpha  occ. eigenvalues --   -0.31236  -0.31050  -0.30796  -0.30709  -0.30530
 Alpha  occ. eigenvalues --   -0.30232  -0.30132  -0.29886  -0.29753  -0.29625
 Alpha  occ. eigenvalues --   -0.29285  -0.29185  -0.29167  -0.29119  -0.28916
 Alpha  occ. eigenvalues --   -0.28761  -0.28478  -0.28322  -0.28122  -0.27790
 Alpha  occ. eigenvalues --   -0.27655  -0.27564  -0.27290  -0.27077  -0.26801
 Alpha  occ. eigenvalues --   -0.26707  -0.26366  -0.26152  -0.25787  -0.25607
 Alpha  occ. eigenvalues --   -0.25270  -0.24852  -0.24241  -0.23736  -0.23710
 Alpha  occ. eigenvalues --   -0.23703  -0.22671  -0.22398  -0.21474  -0.20714
 Alpha  occ. eigenvalues --   -0.20490  -0.19814  -0.19423  -0.17634  -0.17466
 Alpha  occ. eigenvalues --   -0.16210
 Alpha virt. eigenvalues --   -0.12191  -0.06199  -0.06152  -0.04725  -0.03404
 Alpha virt. eigenvalues --   -0.03244  -0.03036  -0.02311  -0.01346   0.00314
 Alpha virt. eigenvalues --    0.00698   0.01669   0.01799   0.02373   0.02742

 Mulliken charges:
               1
     1  Mg   0.717334
     2  C    0.033935
     3  C   -0.046188
     4  C   -0.010699
     5  C   -0.058164
     6  N   -0.167874
     7  C   -0.116748
     8  C   -0.004557
     9  C   -0.000896
    10  C   -0.056182
    11  C    0.142122
    12  C    0.134780
    13  C    0.126663
    14  C    0.094816
    15  O   -0.184391
    16  O   -0.307199
    17  N   -0.314642
    18  C    0.181689
    19  C   -0.156965
    20  C    0.054584
    21  C    0.086782
    22  C    0.161942
    23  C   -0.124274
    24  O   -0.201840
    25  C    0.157781
    26  N   -0.244136
    27  C   -0.001473
    28  C   -0.001240
    29  C    0.004740
    30  C    0.049176
    31  C    0.152409
    32  C    0.055362
    33  C    0.088536
    34  N   -0.229357
    35  C    0.096689
    36  C   -0.197622
    37  C    0.088195
    38  C    0.041366
    39  C    0.184008
    40  C   -0.024249
    41  O   -0.118534
    42  C    0.089697
    43  C    0.097556
    44  O   -0.204545
    45  O   -0.257940
    46  C    0.207671
    47  C    0.284795
    48  C   -0.101513
    49  C   -0.195809
    50  C    0.170752
    51  C    0.168865
    52  C    0.090727
    53  C    0.062430
    54  C   -0.067812
    55  C    0.119004
    56  C    0.113167
    57  C    0.035718
    58  C    0.099201
    59  C   -0.053500
    60  C    0.126297
    61  C    0.061309
    62  C    0.023128
    63  C    0.114898
    64  C   -0.080588
    65  C    0.102641
    66  C    0.087216
    67  H   -0.066697
    68  H   -0.051600
    69  H   -0.056187
    70  H   -0.018958
    71  H   -0.034363
    72  H    0.000890
    73  H    0.001262
    74  H    0.001330
    75  H   -0.014714
    76  H   -0.020158
    77  H    0.010240
    78  H   -0.007477
    79  H    0.021901
    80  H   -0.003792
    81  H   -0.001438
    82  H    0.014796
    83  H   -0.008086
    84  H   -0.000468
    85  H   -0.012583
    86  H   -0.034907
    87  H   -0.000219
    88  H    0.013100
    89  H   -0.015551
    90  H   -0.028537
    91  H   -0.018182
    92  H   -0.003338
    93  H   -0.004281
    94  H    0.001371
    95  H   -0.012376
    96  H    0.008594
    97  H    0.014384
    98  H   -0.003410
    99  H    0.022157
   100  H   -0.004408
   101  H    0.022247
   102  H    0.004013
   103  H    0.009465
   104  H   -0.024423
   105  H    0.001560
   106  H    0.022960
   107  H   -0.010960
   108  H   -0.042923
   109  H   -0.032887
   110  H   -0.022395
   111  H   -0.030318
   112  H   -0.032788
   113  H   -0.028437
   114  H   -0.034594
   115  H   -0.025434
   116  H   -0.009362
   117  H   -0.016849
   118  H   -0.041197
   119  H   -0.036186
   120  H   -0.024169
   121  H   -0.027549
   122  H   -0.036216
   123  H   -0.038155
   124  H   -0.042117
   125  H   -0.012614
   126  H   -0.014086
   127  H   -0.010246
   128  H   -0.026860
   129  H   -0.043210
   130  H   -0.032551
   131  H   -0.015155
   132  H   -0.032694
   133  H   -0.040891
   134  H   -0.039284
   135  H   -0.012076
   136  H   -0.014703
   137  H   -0.017865
   138  H   -0.037718
   139  H   -0.003838
   140  H   -0.016841
 Sum of Mulliken charges =  -0.00000

 Dipole moment (field-independent basis, Debye):
    X=              3.4882    Y=              1.5278    Z=             -1.7960  Tot=              4.2104
 Quadrupole moment (field-independent basis, Debye-Ang):
   XX=           -361.1368   YY=           -428.8019   ZZ=           -419.2833
   XY=              3.8461   XZ=             -5.0977   YZ=             12.9463

 Normal termination of Gaussian 16 at Fri Apr 29 10:12:29 2022.
