 Gaussian 16, Revision A.03,
 Gaussian 16:  ES64L-G16RevA.03 25-Dec-2016

 -----------------------------------
 #p cam-b3lyp/Def2SVP td=(nstates=5)
 -----------------------------------

 -------------------------------------------------------
 step_251_chromophore_12 TDDFT with cam-b3lyp functional
 -------------------------------------------------------
 Symbolic Z-matrix:
 Charge =  0 Multiplicity = 1

                         Standard orientation:
 ---------------------------------------------------------------------
 Center     Atomic      Atomic             Coordinates (Angstroms)
 Number     Number       Type             X           Y           Z
 ---------------------------------------------------------------------
      1         12           0       -4.197827    0.254533   -0.474344
      2          6           0       -2.404196   -2.785052    0.690696
      3          6           0       -1.110452    1.623483   -0.608531
      4          6           0       -5.851541    2.865509   -1.178374
      5          6           0       -7.169270   -1.372238    0.620215
      6          7           0       -2.052424   -0.504161    0.041515
      7          6           0       -1.589367   -1.782814    0.301889
      8          6           0       -0.068536   -1.944663    0.197488
      9          6           0        0.331089   -0.437296    0.236078
     10          6           0       -1.007759    0.315117   -0.124990
     11          6           0        0.897244    0.039244    1.536571
     12          6           0        0.482165   -2.767180   -1.015402
     13          6           0        1.756694   -3.521283   -0.832025
     14          6           0        2.678318   -3.549836   -2.047182
     15          8           0        2.341230   -3.275186   -3.188311
     16          8           0        3.999997   -3.894412   -1.727813
     17          7           0       -3.567031    2.054857   -0.904015
     18          6           0       -2.216640    2.456165   -0.976224
     19          6           0       -2.185118    3.781207   -1.524983
     20          6           0       -3.586209    4.064975   -1.833347
     21          6           0       -4.351885    2.990636   -1.312421
     22          6           0       -0.878278    4.587876   -1.867472
     23          6           0       -4.083050    5.279707   -2.555770
     24          8           0       -5.306706    5.494620   -2.734325
     25          6           0       -3.180907    6.293337   -3.159333
     26          7           0       -6.175869    0.792282   -0.177357
     27          6           0       -6.657044    1.968683   -0.584176
     28          6           0       -8.198953    2.125341   -0.386588
     29          6           0       -8.576443    0.603460   -0.247500
     30          6           0       -7.223138   -0.054469    0.137500
     31          6           0       -8.550833    2.927604    0.907381
     32          6           0       -9.112548   -0.011505   -1.608058
     33          6           0      -10.284485    0.674988   -2.340649
     34          7           0       -4.723456   -1.683213    0.419676
     35          6           0       -5.982999   -2.183984    0.728726
     36          6           0       -5.853158   -3.504038    1.299968
     37          6           0       -4.482292   -3.789811    1.267388
     38          6           0       -3.809132   -2.625737    0.805041
     39          6           0       -6.960801   -4.425047    1.687528
     40          6           0       -3.493837   -4.816338    1.570868
     41          8           0       -3.562816   -5.969241    1.975852
     42          6           0       -2.100589   -4.156013    1.086894
     43          6           0       -1.186825   -4.308592    2.206031
     44          8           0       -1.301917   -3.807797    3.335738
     45          8           0       -0.429078   -5.420581    1.974045
     46          6           0        0.516761   -5.841161    2.957388
     47          6           0        5.022612   -3.680113   -2.784672
     48          6           0        6.374075   -3.274128   -2.181325
     49          6           0        7.509399   -2.892274   -2.883881
     50          6           0        7.658509   -2.601340   -4.372544
     51          6           0        8.632948   -2.557905   -2.005115
     52          6           0        9.037427   -1.112647   -2.074321
     53          6           0        9.616081   -0.642682   -0.751321
     54          6           0       10.376040    0.731109   -0.795645
     55          6           0       11.905498    0.457822   -1.001023
     56          6           0       10.132973    1.520877    0.523420
     57          6           0        8.748813    2.304203    0.578660
     58          6           0        8.011856    2.109172    1.908701
     59          6           0        6.991837    3.201312    2.011237
     60          6           0        7.439561    4.598779    2.625179
     61          6           0        5.708136    2.678769    2.683994
     62          6           0        4.313180    3.172966    1.987879
     63          6           0        3.110022    3.440369    2.999648
     64          6           0        2.592509    4.898843    3.015511
     65          6           0        2.488814    5.513276    4.374210
     66          6           0        1.214071    4.899781    2.326012
     67          1           0       -0.081509    1.952465   -0.769333
     68          1           0       -6.460322    3.740878   -1.413315
     69          1           0       -8.116079   -1.825254    0.922790
     70          1           0        0.265867   -2.421556    1.119064
     71          1           0        0.987519   -0.194286   -0.598950
     72          1           0        0.128003    0.646463    2.013746
     73          1           0        1.743365    0.699941    1.348282
     74          1           0        1.209346   -0.719248    2.254204
     75          1           0        0.683670   -2.052813   -1.813126
     76          1           0       -0.324231   -3.414278   -1.359452
     77          1           0        1.421654   -4.535563   -0.615965
     78          1           0        2.253609   -3.282452    0.108360
     79          1           0       -0.638650    4.666486   -2.927484
     80          1           0       -0.021511    4.211923   -1.308908
     81          1           0       -1.120594    5.567023   -1.452506
     82          1           0       -2.771021    6.906382   -2.356261
     83          1           0       -3.812359    6.893496   -3.815016
     84          1           0       -2.451311    5.742834   -3.752321
     85          1           0       -8.562451    2.630933   -1.281843
     86          1           0       -9.292322    0.364305    0.538315
     87          1           0       -8.994763    3.866314    0.575006
     88          1           0       -7.729810    3.091144    1.604680
     89          1           0       -9.320058    2.294176    1.351429
     90          1           0       -9.488667   -1.014300   -1.406884
     91          1           0       -8.236973   -0.141720   -2.243823
     92          1           0       -9.886216    0.921283   -3.324821
     93          1           0      -10.450464    1.591164   -1.773202
     94          1           0      -11.153480    0.025264   -2.443518
     95          1           0       -7.849628   -3.977627    1.242072
     96          1           0       -7.012146   -4.390950    2.775748
     97          1           0       -6.796466   -5.464131    1.402282
     98          1           0       -1.732079   -4.686157    0.208876
     99          1           0        0.541848   -5.163208    3.810815
    100          1           0        1.484572   -5.785026    2.458943
    101          1           0        0.378147   -6.889733    3.216922
    102          1           0        4.650511   -2.854748   -3.391285
    103          1           0        4.963256   -4.585118   -3.388470
    104          1           0        6.397091   -3.340748   -1.093937
    105          1           0        8.556047   -3.119245   -4.710302
    106          1           0        7.601354   -1.521926   -4.514037
    107          1           0        6.776080   -3.072687   -4.805279
    108          1           0        9.406891   -3.157860   -2.484557
    109          1           0        8.557933   -2.911391   -0.976205
    110          1           0        8.149243   -0.501665   -2.234280
    111          1           0        9.814325   -1.051883   -2.835775
    112          1           0       10.339963   -1.375913   -0.395655
    113          1           0        8.794083   -0.584750   -0.038376
    114          1           0       10.050297    1.336670   -1.641648
    115          1           0       12.211540    1.092056   -1.833382
    116          1           0       12.166274   -0.560232   -1.290584
    117          1           0       12.392909    0.868956   -0.117650
    118          1           0       10.919407    2.241278    0.746818
    119          1           0       10.149911    0.897849    1.417578
    120          1           0        8.090630    1.953409   -0.216772
    121          1           0        8.872782    3.384214    0.498932
    122          1           0        8.768933    2.154168    2.691740
    123          1           0        7.530876    1.134404    1.989195
    124          1           0        6.580033    3.303329    1.007252
    125          1           0        7.223958    5.404244    1.922954
    126          1           0        8.510409    4.632152    2.823534
    127          1           0        6.880026    4.802161    3.538689
    128          1           0        5.604530    2.945738    3.735893
    129          1           0        5.644254    1.600633    2.534336
    130          1           0        3.993568    2.274047    1.460187
    131          1           0        4.496008    4.009983    1.313274
    132          1           0        3.336718    3.012590    3.976948
    133          1           0        2.319727    2.803794    2.600944
    134          1           0        3.197140    5.586536    2.425063
    135          1           0        1.988018    6.481124    4.394950
    136          1           0        3.513447    5.586851    4.737895
    137          1           0        1.913068    4.804504    4.969384
    138          1           0        0.645796    5.710226    2.782464
    139          1           0        0.636283    3.986726    2.468746
    140          1           0        1.299823    5.165588    1.273120
 ---------------------------------------------------------------------

 SCF Done:  E(RCAM-B3LYP) =  -3007.17572402     A.U. after   17 cycles

 Excitation energies and oscillator strengths:

 Excited State   1:      Singlet-A      1.6573 eV  748.09 nm  f=0.3892  <S**2>=0.000
     245 -> 248       -0.15578
     246 -> 247        0.69167
     245 <- 248       -0.10423
 This state for optimization and/or second-order correction.
 Total Energy, E(TD-HF/TD-DFT) =  -3007.11481778
 Copying the excited state density for this state as the 1-particle RhoCI density.

 Excited State   2:      Singlet-A      2.1776 eV  569.36 nm  f=0.2212  <S**2>=0.000
     245 -> 247        0.66762
     246 -> 248        0.21704

 Excited State   3:      Singlet-A      3.1708 eV  391.02 nm  f=0.0048  <S**2>=0.000
     242 -> 247        0.63452
     243 -> 247        0.27108

 Excited State   4:      Singlet-A      3.3016 eV  375.53 nm  f=0.0133  <S**2>=0.000
     241 -> 247        0.11175
     241 -> 251       -0.12047
     242 -> 247       -0.23610
     243 -> 247        0.59291
     243 -> 249       -0.14009
     243 -> 251        0.11960

 Excited State   5:      Singlet-A      3.3798 eV  366.84 nm  f=0.0098  <S**2>=0.000
     241 -> 247        0.63407
     241 -> 249       -0.13214
     241 -> 251        0.11438
     243 -> 251       -0.13684

 The electronic state is 1-A.
 Alpha  occ. eigenvalues --  -46.88845 -19.24901 -19.24420 -19.20624 -19.19869
 Alpha  occ. eigenvalues --  -19.19474 -19.17377 -14.42286 -14.41378 -14.39649
 Alpha  occ. eigenvalues --  -14.39522 -10.40248 -10.39194 -10.35960 -10.33933
 Alpha  occ. eigenvalues --  -10.31997 -10.31350 -10.31192 -10.30794 -10.30719
 Alpha  occ. eigenvalues --  -10.30652 -10.30405 -10.30306 -10.29805 -10.29027
 Alpha  occ. eigenvalues --  -10.29005 -10.28425 -10.28196 -10.28082 -10.28069
 Alpha  occ. eigenvalues --  -10.28063 -10.28057 -10.28016 -10.27889 -10.27666
 Alpha  occ. eigenvalues --  -10.27484 -10.27401 -10.27331 -10.27136 -10.27021
 Alpha  occ. eigenvalues --  -10.26659 -10.26510 -10.26326 -10.26179 -10.26144
 Alpha  occ. eigenvalues --  -10.25901 -10.25887 -10.25559 -10.25548 -10.25536
 Alpha  occ. eigenvalues --  -10.25504 -10.25497 -10.25469 -10.25372 -10.25347
 Alpha  occ. eigenvalues --  -10.25277 -10.25198 -10.25094 -10.25080 -10.25073
 Alpha  occ. eigenvalues --  -10.25009 -10.24860 -10.24687 -10.24487 -10.24246
 Alpha  occ. eigenvalues --  -10.24134  -3.17505  -1.92373  -1.91957  -1.91827
 Alpha  occ. eigenvalues --   -1.16612  -1.15532  -1.10206  -1.07526  -1.07408
 Alpha  occ. eigenvalues --   -1.07080  -1.04866  -1.04013  -1.03610  -1.02490
 Alpha  occ. eigenvalues --   -0.93696  -0.91559  -0.90371  -0.90012  -0.88824
 Alpha  occ. eigenvalues --   -0.88746  -0.88020  -0.87957  -0.87448  -0.86786
 Alpha  occ. eigenvalues --   -0.86495  -0.86032  -0.84403  -0.84086  -0.83353
 Alpha  occ. eigenvalues --   -0.82684  -0.82276  -0.81150  -0.80982  -0.80761
 Alpha  occ. eigenvalues --   -0.79796  -0.78574  -0.78445  -0.77265  -0.76676
 Alpha  occ. eigenvalues --   -0.76364  -0.75628  -0.75437  -0.75318  -0.74107
 Alpha  occ. eigenvalues --   -0.73648  -0.72871  -0.70973  -0.70373  -0.69108
 Alpha  occ. eigenvalues --   -0.68399  -0.68251  -0.67038  -0.66378  -0.65778
 Alpha  occ. eigenvalues --   -0.65099  -0.65072  -0.64892  -0.64461  -0.64063
 Alpha  occ. eigenvalues --   -0.63276  -0.62875  -0.62647  -0.62080  -0.60702
 Alpha  occ. eigenvalues --   -0.60381  -0.59764  -0.59560  -0.58982  -0.58411
 Alpha  occ. eigenvalues --   -0.57843  -0.57508  -0.55997  -0.55930  -0.55719
 Alpha  occ. eigenvalues --   -0.55631  -0.54885  -0.54594  -0.54481  -0.54313
 Alpha  occ. eigenvalues --   -0.54138  -0.53666  -0.53382  -0.53198  -0.52845
 Alpha  occ. eigenvalues --   -0.52760  -0.52510  -0.52364  -0.52184  -0.51917
 Alpha  occ. eigenvalues --   -0.51622  -0.51297  -0.51209  -0.51055  -0.50996
 Alpha  occ. eigenvalues --   -0.50786  -0.50608  -0.50282  -0.50006  -0.49840
 Alpha  occ. eigenvalues --   -0.49648  -0.49614  -0.49393  -0.49190  -0.49165
 Alpha  occ. eigenvalues --   -0.48694  -0.48591  -0.48279  -0.47922  -0.47803
 Alpha  occ. eigenvalues --   -0.47528  -0.47436  -0.47258  -0.47214  -0.47106
 Alpha  occ. eigenvalues --   -0.46552  -0.46373  -0.46165  -0.46026  -0.45905
 Alpha  occ. eigenvalues --   -0.45892  -0.45773  -0.45489  -0.45111  -0.45044
 Alpha  occ. eigenvalues --   -0.44932  -0.44769  -0.44330  -0.44163  -0.44026
 Alpha  occ. eigenvalues --   -0.43870  -0.43566  -0.43177  -0.43080  -0.43020
 Alpha  occ. eigenvalues --   -0.42947  -0.42746  -0.42422  -0.42043  -0.41949
 Alpha  occ. eigenvalues --   -0.41751  -0.41593  -0.41457  -0.41276  -0.41203
 Alpha  occ. eigenvalues --   -0.40642  -0.40528  -0.40369  -0.40246  -0.40087
 Alpha  occ. eigenvalues --   -0.39822  -0.39554  -0.39331  -0.39045  -0.38910
 Alpha  occ. eigenvalues --   -0.38502  -0.38433  -0.38154  -0.37953  -0.37735
 Alpha  occ. eigenvalues --   -0.37558  -0.37444  -0.37085  -0.36529  -0.36406
 Alpha  occ. eigenvalues --   -0.36182  -0.35903  -0.35857  -0.35027  -0.34599
 Alpha  occ. eigenvalues --   -0.34359  -0.34096  -0.33092  -0.31545  -0.31382
 Alpha  occ. eigenvalues --   -0.30074  -0.29844  -0.29749  -0.29355  -0.24229
 Alpha  occ. eigenvalues --   -0.21685
 Alpha virt. eigenvalues --   -0.09610  -0.00745   0.00332   0.01862   0.02304
 Alpha virt. eigenvalues --    0.03922   0.04527   0.05152   0.05921   0.06327
 Alpha virt. eigenvalues --    0.07296   0.07711   0.08452   0.08806   0.09027

 Mulliken charges:
               1
     1  Mg   0.848668
     2  C    0.004331
     3  C   -0.053305
     4  C   -0.031065
     5  C   -0.072555
     6  N   -0.231057
     7  C   -0.072564
     8  C   -0.051588
     9  C   -0.051908
    10  C   -0.042362
    11  C    0.086984
    12  C    0.084627
    13  C    0.050582
    14  C    0.181112
    15  O   -0.225877
    16  O   -0.373620
    17  N   -0.407013
    18  C    0.179777
    19  C   -0.157464
    20  C   -0.027606
    21  C    0.117792
    22  C    0.113750
    23  C   -0.040606
    24  O   -0.244808
    25  C    0.073631
    26  N   -0.320057
    27  C    0.020819
    28  C   -0.057402
    29  C   -0.052513
    30  C    0.068191
    31  C    0.098074
    32  C    0.007874
    33  C    0.024787
    34  N   -0.315006
    35  C    0.106057
    36  C   -0.190431
    37  C    0.005922
    38  C    0.086319
    39  C    0.131681
    40  C    0.080195
    41  O   -0.155839
    42  C    0.006794
    43  C    0.183528
    44  O   -0.239955
    45  O   -0.319680
    46  C    0.169653
    47  C    0.257127
    48  C   -0.127221
    49  C   -0.212350
    50  C    0.112110
    51  C    0.103613
    52  C    0.033907
    53  C    0.013103
    54  C   -0.123476
    55  C    0.059461
    56  C    0.057695
    57  C   -0.014122
    58  C    0.048892
    59  C   -0.118447
    60  C    0.068830
    61  C    0.016701
    62  C   -0.023954
    63  C    0.059455
    64  C   -0.142593
    65  C    0.046105
    66  C    0.032770
    67  H   -0.031735
    68  H   -0.013455
    69  H   -0.020953
    70  H    0.011992
    71  H    0.000737
    72  H    0.026640
    73  H    0.019805
    74  H    0.025934
    75  H    0.018635
    76  H    0.010205
    77  H    0.042060
    78  H    0.026705
    79  H    0.046404
    80  H    0.020345
    81  H    0.022336
    82  H    0.041771
    83  H    0.028411
    84  H    0.025510
    85  H    0.022058
    86  H   -0.000328
    87  H    0.023612
    88  H    0.037933
    89  H    0.007109
    90  H   -0.000294
    91  H    0.009860
    92  H    0.020357
    93  H    0.016425
    94  H    0.025455
    95  H    0.010572
    96  H    0.035894
    97  H    0.041427
    98  H    0.041080
    99  H    0.049754
   100  H    0.016102
   101  H    0.044713
   102  H    0.032845
   103  H    0.036244
   104  H    0.010487
   105  H    0.026517
   106  H    0.046804
   107  H    0.013239
   108  H   -0.013459
   109  H   -0.000506
   110  H    0.004357
   111  H   -0.003000
   112  H   -0.004828
   113  H   -0.003188
   114  H   -0.002264
   115  H   -0.000699
   116  H    0.014015
   117  H    0.007941
   118  H   -0.011006
   119  H   -0.007032
   120  H    0.001022
   121  H    0.000639
   122  H   -0.007853
   123  H   -0.009300
   124  H   -0.009689
   125  H    0.010811
   126  H    0.009429
   127  H    0.012507
   128  H   -0.001057
   129  H   -0.013348
   130  H   -0.006989
   131  H    0.009594
   132  H   -0.003100
   133  H   -0.015480
   134  H   -0.007770
   135  H    0.012461
   136  H    0.008157
   137  H    0.005002
   138  H   -0.011469
   139  H    0.017407
   140  H    0.005015
 Sum of Mulliken charges =  -0.00000

 Dipole moment (field-independent basis, Debye):
    X=              3.9279    Y=              1.4937    Z=             -1.7781  Tot=              4.5630
 Quadrupole moment (field-independent basis, Debye-Ang):
   XX=           -361.9640   YY=           -426.5291   ZZ=           -419.1242
   XY=              4.7658   XZ=             -5.0713   YZ=             11.5613

 Normal termination of Gaussian 16 at Fri Apr 29 09:13:07 2022.
