 Gaussian 16, Revision A.03,
 Gaussian 16:  ES64L-G16RevA.03 25-Dec-2016

 ---------------------------------
 #p PBE1PBE/Def2SVP td=(nstates=5)
 ---------------------------------

 -----------------------------------------------------
 step_251_chromophore_12 TDDFT with PBE1PBE functional
 -----------------------------------------------------
 Symbolic Z-matrix:
 Charge =  0 Multiplicity = 1

                         Standard orientation:
 ---------------------------------------------------------------------
 Center     Atomic      Atomic             Coordinates (Angstroms)
 Number     Number       Type             X           Y           Z
 ---------------------------------------------------------------------
      1         12           0       -4.197827    0.254533   -0.474344
      2          6           0       -2.404196   -2.785052    0.690696
      3          6           0       -1.110452    1.623483   -0.608531
      4          6           0       -5.851541    2.865509   -1.178374
      5          6           0       -7.169270   -1.372238    0.620215
      6          7           0       -2.052424   -0.504161    0.041515
      7          6           0       -1.589367   -1.782814    0.301889
      8          6           0       -0.068536   -1.944663    0.197488
      9          6           0        0.331089   -0.437296    0.236078
     10          6           0       -1.007759    0.315117   -0.124990
     11          6           0        0.897244    0.039244    1.536571
     12          6           0        0.482165   -2.767180   -1.015402
     13          6           0        1.756694   -3.521283   -0.832025
     14          6           0        2.678318   -3.549836   -2.047182
     15          8           0        2.341230   -3.275186   -3.188311
     16          8           0        3.999997   -3.894412   -1.727813
     17          7           0       -3.567031    2.054857   -0.904015
     18          6           0       -2.216640    2.456165   -0.976224
     19          6           0       -2.185118    3.781207   -1.524983
     20          6           0       -3.586209    4.064975   -1.833347
     21          6           0       -4.351885    2.990636   -1.312421
     22          6           0       -0.878278    4.587876   -1.867472
     23          6           0       -4.083050    5.279707   -2.555770
     24          8           0       -5.306706    5.494620   -2.734325
     25          6           0       -3.180907    6.293337   -3.159333
     26          7           0       -6.175869    0.792282   -0.177357
     27          6           0       -6.657044    1.968683   -0.584176
     28          6           0       -8.198953    2.125341   -0.386588
     29          6           0       -8.576443    0.603460   -0.247500
     30          6           0       -7.223138   -0.054469    0.137500
     31          6           0       -8.550833    2.927604    0.907381
     32          6           0       -9.112548   -0.011505   -1.608058
     33          6           0      -10.284485    0.674988   -2.340649
     34          7           0       -4.723456   -1.683213    0.419676
     35          6           0       -5.982999   -2.183984    0.728726
     36          6           0       -5.853158   -3.504038    1.299968
     37          6           0       -4.482292   -3.789811    1.267388
     38          6           0       -3.809132   -2.625737    0.805041
     39          6           0       -6.960801   -4.425047    1.687528
     40          6           0       -3.493837   -4.816338    1.570868
     41          8           0       -3.562816   -5.969241    1.975852
     42          6           0       -2.100589   -4.156013    1.086894
     43          6           0       -1.186825   -4.308592    2.206031
     44          8           0       -1.301917   -3.807797    3.335738
     45          8           0       -0.429078   -5.420581    1.974045
     46          6           0        0.516761   -5.841161    2.957388
     47          6           0        5.022612   -3.680113   -2.784672
     48          6           0        6.374075   -3.274128   -2.181325
     49          6           0        7.509399   -2.892274   -2.883881
     50          6           0        7.658509   -2.601340   -4.372544
     51          6           0        8.632948   -2.557905   -2.005115
     52          6           0        9.037427   -1.112647   -2.074321
     53          6           0        9.616081   -0.642682   -0.751321
     54          6           0       10.376040    0.731109   -0.795645
     55          6           0       11.905498    0.457822   -1.001023
     56          6           0       10.132973    1.520877    0.523420
     57          6           0        8.748813    2.304203    0.578660
     58          6           0        8.011856    2.109172    1.908701
     59          6           0        6.991837    3.201312    2.011237
     60          6           0        7.439561    4.598779    2.625179
     61          6           0        5.708136    2.678769    2.683994
     62          6           0        4.313180    3.172966    1.987879
     63          6           0        3.110022    3.440369    2.999648
     64          6           0        2.592509    4.898843    3.015511
     65          6           0        2.488814    5.513276    4.374210
     66          6           0        1.214071    4.899781    2.326012
     67          1           0       -0.081509    1.952465   -0.769333
     68          1           0       -6.460322    3.740878   -1.413315
     69          1           0       -8.116079   -1.825254    0.922790
     70          1           0        0.265867   -2.421556    1.119064
     71          1           0        0.987519   -0.194286   -0.598950
     72          1           0        0.128003    0.646463    2.013746
     73          1           0        1.743365    0.699941    1.348282
     74          1           0        1.209346   -0.719248    2.254204
     75          1           0        0.683670   -2.052813   -1.813126
     76          1           0       -0.324231   -3.414278   -1.359452
     77          1           0        1.421654   -4.535563   -0.615965
     78          1           0        2.253609   -3.282452    0.108360
     79          1           0       -0.638650    4.666486   -2.927484
     80          1           0       -0.021511    4.211923   -1.308908
     81          1           0       -1.120594    5.567023   -1.452506
     82          1           0       -2.771021    6.906382   -2.356261
     83          1           0       -3.812359    6.893496   -3.815016
     84          1           0       -2.451311    5.742834   -3.752321
     85          1           0       -8.562451    2.630933   -1.281843
     86          1           0       -9.292322    0.364305    0.538315
     87          1           0       -8.994763    3.866314    0.575006
     88          1           0       -7.729810    3.091144    1.604680
     89          1           0       -9.320058    2.294176    1.351429
     90          1           0       -9.488667   -1.014300   -1.406884
     91          1           0       -8.236973   -0.141720   -2.243823
     92          1           0       -9.886216    0.921283   -3.324821
     93          1           0      -10.450464    1.591164   -1.773202
     94          1           0      -11.153480    0.025264   -2.443518
     95          1           0       -7.849628   -3.977627    1.242072
     96          1           0       -7.012146   -4.390950    2.775748
     97          1           0       -6.796466   -5.464131    1.402282
     98          1           0       -1.732079   -4.686157    0.208876
     99          1           0        0.541848   -5.163208    3.810815
    100          1           0        1.484572   -5.785026    2.458943
    101          1           0        0.378147   -6.889733    3.216922
    102          1           0        4.650511   -2.854748   -3.391285
    103          1           0        4.963256   -4.585118   -3.388470
    104          1           0        6.397091   -3.340748   -1.093937
    105          1           0        8.556047   -3.119245   -4.710302
    106          1           0        7.601354   -1.521926   -4.514037
    107          1           0        6.776080   -3.072687   -4.805279
    108          1           0        9.406891   -3.157860   -2.484557
    109          1           0        8.557933   -2.911391   -0.976205
    110          1           0        8.149243   -0.501665   -2.234280
    111          1           0        9.814325   -1.051883   -2.835775
    112          1           0       10.339963   -1.375913   -0.395655
    113          1           0        8.794083   -0.584750   -0.038376
    114          1           0       10.050297    1.336670   -1.641648
    115          1           0       12.211540    1.092056   -1.833382
    116          1           0       12.166274   -0.560232   -1.290584
    117          1           0       12.392909    0.868956   -0.117650
    118          1           0       10.919407    2.241278    0.746818
    119          1           0       10.149911    0.897849    1.417578
    120          1           0        8.090630    1.953409   -0.216772
    121          1           0        8.872782    3.384214    0.498932
    122          1           0        8.768933    2.154168    2.691740
    123          1           0        7.530876    1.134404    1.989195
    124          1           0        6.580033    3.303329    1.007252
    125          1           0        7.223958    5.404244    1.922954
    126          1           0        8.510409    4.632152    2.823534
    127          1           0        6.880026    4.802161    3.538689
    128          1           0        5.604530    2.945738    3.735893
    129          1           0        5.644254    1.600633    2.534336
    130          1           0        3.993568    2.274047    1.460187
    131          1           0        4.496008    4.009983    1.313274
    132          1           0        3.336718    3.012590    3.976948
    133          1           0        2.319727    2.803794    2.600944
    134          1           0        3.197140    5.586536    2.425063
    135          1           0        1.988018    6.481124    4.394950
    136          1           0        3.513447    5.586851    4.737895
    137          1           0        1.913068    4.804504    4.969384
    138          1           0        0.645796    5.710226    2.782464
    139          1           0        0.636283    3.986726    2.468746
    140          1           0        1.299823    5.165588    1.273120
 ---------------------------------------------------------------------

 SCF Done:  E(RPBE1PBE) =  -3005.36532123     A.U. after   16 cycles

 Excitation energies and oscillator strengths:

 Excited State   1:      Singlet-A      1.8194 eV  681.46 nm  f=0.3660  <S**2>=0.000
     245 -> 248       -0.15068
     246 -> 247        0.70059
     246 <- 247       -0.12560
 This state for optimization and/or second-order correction.
 Total Energy, E(TD-HF/TD-DFT) =  -3005.29845990
 Copying the excited state density for this state as the 1-particle RhoCI density.

 Excited State   2:      Singlet-A      2.1899 eV  566.16 nm  f=0.2040  <S**2>=0.000
     245 -> 247        0.67318
     246 -> 248        0.20108

 Excited State   3:      Singlet-A      2.6595 eV  466.20 nm  f=0.0002  <S**2>=0.000
     244 -> 247        0.68618
     244 -> 249       -0.11157
     244 -> 250        0.10111

 Excited State   4:      Singlet-A      2.8758 eV  431.13 nm  f=0.0064  <S**2>=0.000
     240 -> 247        0.10999
     242 -> 247        0.68936

 Excited State   5:      Singlet-A      2.9856 eV  415.27 nm  f=0.0057  <S**2>=0.000
     240 -> 247        0.50340
     240 -> 249        0.11789
     241 -> 247        0.46686

 The electronic state is 1-A.
 Alpha  occ. eigenvalues --  -46.92278 -19.25467 -19.25125 -19.20889 -19.20016
 Alpha  occ. eigenvalues --  -19.19605 -19.17732 -14.41645 -14.41036 -14.39348
 Alpha  occ. eigenvalues --  -14.39169 -10.37267 -10.36086 -10.33033 -10.31164
 Alpha  occ. eigenvalues --  -10.29394 -10.29065 -10.28558 -10.28387 -10.28366
 Alpha  occ. eigenvalues --  -10.28350 -10.28264 -10.27941 -10.27603 -10.26797
 Alpha  occ. eigenvalues --  -10.26674 -10.26187 -10.25974 -10.25959 -10.25835
 Alpha  occ. eigenvalues --  -10.25684 -10.25633 -10.25524 -10.25415 -10.25139
 Alpha  occ. eigenvalues --  -10.25126 -10.25074 -10.25009 -10.24695 -10.24529
 Alpha  occ. eigenvalues --  -10.24378 -10.24083 -10.23987 -10.23894 -10.23535
 Alpha  occ. eigenvalues --  -10.23443 -10.23418 -10.23312 -10.23249 -10.23145
 Alpha  occ. eigenvalues --  -10.23100 -10.23020 -10.23014 -10.22798 -10.22792
 Alpha  occ. eigenvalues --  -10.22782 -10.22744 -10.22661 -10.22652 -10.22626
 Alpha  occ. eigenvalues --  -10.22543 -10.22458 -10.22098 -10.22026 -10.21607
 Alpha  occ. eigenvalues --  -10.21529  -3.14514  -1.87323  -1.86885  -1.86760
 Alpha  occ. eigenvalues --   -1.11296  -1.10310  -1.04872  -1.02395  -1.02216
 Alpha  occ. eigenvalues --   -1.01772  -0.99614  -0.98582  -0.98299  -0.97126
 Alpha  occ. eigenvalues --   -0.87969  -0.85684  -0.84550  -0.84110  -0.83080
 Alpha  occ. eigenvalues --   -0.82922  -0.82342  -0.82077  -0.81787  -0.81110
 Alpha  occ. eigenvalues --   -0.80745  -0.80324  -0.78566  -0.78362  -0.77641
 Alpha  occ. eigenvalues --   -0.76861  -0.76538  -0.75489  -0.75262  -0.75003
 Alpha  occ. eigenvalues --   -0.73930  -0.72856  -0.72717  -0.71585  -0.70887
 Alpha  occ. eigenvalues --   -0.70665  -0.69811  -0.69723  -0.69427  -0.68290
 Alpha  occ. eigenvalues --   -0.68022  -0.67194  -0.65375  -0.64677  -0.63488
 Alpha  occ. eigenvalues --   -0.62857  -0.62511  -0.61522  -0.60654  -0.60184
 Alpha  occ. eigenvalues --   -0.59557  -0.59491  -0.59252  -0.58957  -0.58191
 Alpha  occ. eigenvalues --   -0.57413  -0.57362  -0.56861  -0.56603  -0.55349
 Alpha  occ. eigenvalues --   -0.54760  -0.54321  -0.53994  -0.53403  -0.52923
 Alpha  occ. eigenvalues --   -0.52455  -0.52061  -0.50385  -0.50296  -0.50179
 Alpha  occ. eigenvalues --   -0.50052  -0.49401  -0.49161  -0.48931  -0.48814
 Alpha  occ. eigenvalues --   -0.48676  -0.48184  -0.47853  -0.47761  -0.47344
 Alpha  occ. eigenvalues --   -0.47267  -0.46992  -0.46843  -0.46729  -0.46393
 Alpha  occ. eigenvalues --   -0.46336  -0.45887  -0.45739  -0.45574  -0.45503
 Alpha  occ. eigenvalues --   -0.45339  -0.45101  -0.44881  -0.44645  -0.44411
 Alpha  occ. eigenvalues --   -0.44274  -0.44140  -0.43956  -0.43821  -0.43737
 Alpha  occ. eigenvalues --   -0.43395  -0.43187  -0.42957  -0.42606  -0.42449
 Alpha  occ. eigenvalues --   -0.42228  -0.42065  -0.41902  -0.41858  -0.41704
 Alpha  occ. eigenvalues --   -0.41235  -0.41035  -0.40871  -0.40673  -0.40616
 Alpha  occ. eigenvalues --   -0.40528  -0.40470  -0.40184  -0.39856  -0.39768
 Alpha  occ. eigenvalues --   -0.39629  -0.39433  -0.39227  -0.38882  -0.38784
 Alpha  occ. eigenvalues --   -0.38668  -0.38391  -0.38035  -0.37883  -0.37774
 Alpha  occ. eigenvalues --   -0.37655  -0.37557  -0.37263  -0.36968  -0.36735
 Alpha  occ. eigenvalues --   -0.36539  -0.36342  -0.36235  -0.36088  -0.35977
 Alpha  occ. eigenvalues --   -0.35658  -0.35413  -0.35142  -0.35011  -0.34878
 Alpha  occ. eigenvalues --   -0.34724  -0.34424  -0.34152  -0.33863  -0.33784
 Alpha  occ. eigenvalues --   -0.33464  -0.33214  -0.32921  -0.32768  -0.32733
 Alpha  occ. eigenvalues --   -0.32507  -0.32354  -0.31990  -0.31497  -0.31356
 Alpha  occ. eigenvalues --   -0.31113  -0.30756  -0.30729  -0.29886  -0.29745
 Alpha  occ. eigenvalues --   -0.29116  -0.29099  -0.28650  -0.27191  -0.26257
 Alpha  occ. eigenvalues --   -0.25681  -0.25452  -0.24665  -0.24652  -0.21197
 Alpha  occ. eigenvalues --   -0.19261
 Alpha virt. eigenvalues --   -0.11949  -0.04388  -0.03889  -0.02191  -0.00901
 Alpha virt. eigenvalues --   -0.00495  -0.00062   0.00685   0.01471   0.03087
 Alpha virt. eigenvalues --    0.03489   0.04346   0.04788   0.05308   0.05644

 Mulliken charges:
               1
     1  Mg   0.996044
     2  C   -0.018748
     3  C   -0.054204
     4  C   -0.026959
     5  C   -0.060544
     6  N   -0.334319
     7  C    0.001050
     8  C   -0.114429
     9  C   -0.134519
    10  C    0.003524
    11  C    0.028449
    12  C    0.037044
    13  C   -0.026315
    14  C    0.245873
    15  O   -0.258473
    16  O   -0.405473
    17  N   -0.531226
    18  C    0.198209
    19  C   -0.171548
    20  C   -0.093633
    21  C    0.161834
    22  C    0.051886
    23  C    0.015332
    24  O   -0.279202
    25  C   -0.003052
    26  N   -0.420366
    27  C    0.060740
    28  C   -0.136464
    29  C   -0.133382
    30  C    0.098832
    31  C    0.044344
    32  C   -0.044588
    33  C   -0.050055
    34  N   -0.435372
    35  C    0.128320
    36  C   -0.206354
    37  C   -0.045061
    38  C    0.151129
    39  C    0.075767
    40  C    0.173577
    41  O   -0.202902
    42  C   -0.102395
    43  C    0.268550
    44  O   -0.274963
    45  O   -0.353550
    46  C    0.117826
    47  C    0.224156
    48  C   -0.139711
    49  C   -0.254267
    50  C    0.045666
    51  C    0.038343
    52  C   -0.032642
    53  C   -0.041506
    54  C   -0.209654
    55  C   -0.000228
    56  C    0.003339
    57  C   -0.079714
    58  C   -0.001735
    59  C   -0.211049
    60  C    0.009899
    61  C   -0.031695
    62  C   -0.090096
    63  C    0.000819
    64  C   -0.234626
    65  C   -0.018348
    66  C   -0.028235
    67  H    0.000499
    68  H    0.019905
    69  H    0.009984
    70  H    0.055909
    71  H    0.037227
    72  H    0.054447
    73  H    0.050802
    74  H    0.052273
    75  H    0.050864
    76  H    0.043192
    77  H    0.075605
    78  H    0.057017
    79  H    0.072539
    80  H    0.049182
    81  H    0.051584
    82  H    0.068620
    83  H    0.056380
    84  H    0.053239
    85  H    0.056359
    86  H    0.034795
    87  H    0.051176
    88  H    0.064401
    89  H    0.035753
    90  H    0.033309
    91  H    0.042923
    92  H    0.048497
    93  H    0.044961
    94  H    0.052927
    95  H    0.037815
    96  H    0.064379
    97  H    0.068161
    98  H    0.078290
    99  H    0.069608
   100  H    0.038267
   101  H    0.066116
   102  H    0.058811
   103  H    0.062132
   104  H    0.039588
   105  H    0.053333
   106  H    0.073013
   107  H    0.042631
   108  H    0.022873
   109  H    0.029591
   110  H    0.038327
   111  H    0.030229
   112  H    0.028166
   113  H    0.031540
   114  H    0.034745
   115  H    0.027790
   116  H    0.040129
   117  H    0.035533
   118  H    0.021858
   119  H    0.025381
   120  H    0.034514
   121  H    0.035642
   122  H    0.025733
   123  H    0.022658
   124  H    0.031226
   125  H    0.037776
   126  H    0.036048
   127  H    0.039329
   128  H    0.031115
   129  H    0.019106
   130  H    0.029712
   131  H    0.039842
   132  H    0.027375
   133  H    0.023212
   134  H    0.029593
   135  H    0.039823
   136  H    0.037499
   137  H    0.033496
   138  H    0.017019
   139  H    0.043821
   140  H    0.033837
 Sum of Mulliken charges =  -0.00000

 Dipole moment (field-independent basis, Debye):
    X=              3.7415    Y=              1.7202    Z=             -1.8502  Tot=              4.5145
 Quadrupole moment (field-independent basis, Debye-Ang):
   XX=           -355.3017   YY=           -423.9952   ZZ=           -416.6046
   XY=              4.2365   XZ=             -4.7649   YZ=             11.4647

 Normal termination of Gaussian 16 at Fri Apr 29 09:34:11 2022.
