 Gaussian 16, Revision A.03,
 Gaussian 16:  ES64L-G16RevA.03 25-Dec-2016

 --------------------------------
 #p wB97XD/Def2SVP td=(nstates=5)
 --------------------------------

 ----------------------------------------------------
 step_251_chromophore_12 TDDFT with wB97XD functional
 ----------------------------------------------------
 Symbolic Z-matrix:
 Charge =  0 Multiplicity = 1

                         Standard orientation:
 ---------------------------------------------------------------------
 Center     Atomic      Atomic             Coordinates (Angstroms)
 Number     Number       Type             X           Y           Z
 ---------------------------------------------------------------------
      1         12           0       -4.197827    0.254533   -0.474344
      2          6           0       -2.404196   -2.785052    0.690696
      3          6           0       -1.110452    1.623483   -0.608531
      4          6           0       -5.851541    2.865509   -1.178374
      5          6           0       -7.169270   -1.372238    0.620215
      6          7           0       -2.052424   -0.504161    0.041515
      7          6           0       -1.589367   -1.782814    0.301889
      8          6           0       -0.068536   -1.944663    0.197488
      9          6           0        0.331089   -0.437296    0.236078
     10          6           0       -1.007759    0.315117   -0.124990
     11          6           0        0.897244    0.039244    1.536571
     12          6           0        0.482165   -2.767180   -1.015402
     13          6           0        1.756694   -3.521283   -0.832025
     14          6           0        2.678318   -3.549836   -2.047182
     15          8           0        2.341230   -3.275186   -3.188311
     16          8           0        3.999997   -3.894412   -1.727813
     17          7           0       -3.567031    2.054857   -0.904015
     18          6           0       -2.216640    2.456165   -0.976224
     19          6           0       -2.185118    3.781207   -1.524983
     20          6           0       -3.586209    4.064975   -1.833347
     21          6           0       -4.351885    2.990636   -1.312421
     22          6           0       -0.878278    4.587876   -1.867472
     23          6           0       -4.083050    5.279707   -2.555770
     24          8           0       -5.306706    5.494620   -2.734325
     25          6           0       -3.180907    6.293337   -3.159333
     26          7           0       -6.175869    0.792282   -0.177357
     27          6           0       -6.657044    1.968683   -0.584176
     28          6           0       -8.198953    2.125341   -0.386588
     29          6           0       -8.576443    0.603460   -0.247500
     30          6           0       -7.223138   -0.054469    0.137500
     31          6           0       -8.550833    2.927604    0.907381
     32          6           0       -9.112548   -0.011505   -1.608058
     33          6           0      -10.284485    0.674988   -2.340649
     34          7           0       -4.723456   -1.683213    0.419676
     35          6           0       -5.982999   -2.183984    0.728726
     36          6           0       -5.853158   -3.504038    1.299968
     37          6           0       -4.482292   -3.789811    1.267388
     38          6           0       -3.809132   -2.625737    0.805041
     39          6           0       -6.960801   -4.425047    1.687528
     40          6           0       -3.493837   -4.816338    1.570868
     41          8           0       -3.562816   -5.969241    1.975852
     42          6           0       -2.100589   -4.156013    1.086894
     43          6           0       -1.186825   -4.308592    2.206031
     44          8           0       -1.301917   -3.807797    3.335738
     45          8           0       -0.429078   -5.420581    1.974045
     46          6           0        0.516761   -5.841161    2.957388
     47          6           0        5.022612   -3.680113   -2.784672
     48          6           0        6.374075   -3.274128   -2.181325
     49          6           0        7.509399   -2.892274   -2.883881
     50          6           0        7.658509   -2.601340   -4.372544
     51          6           0        8.632948   -2.557905   -2.005115
     52          6           0        9.037427   -1.112647   -2.074321
     53          6           0        9.616081   -0.642682   -0.751321
     54          6           0       10.376040    0.731109   -0.795645
     55          6           0       11.905498    0.457822   -1.001023
     56          6           0       10.132973    1.520877    0.523420
     57          6           0        8.748813    2.304203    0.578660
     58          6           0        8.011856    2.109172    1.908701
     59          6           0        6.991837    3.201312    2.011237
     60          6           0        7.439561    4.598779    2.625179
     61          6           0        5.708136    2.678769    2.683994
     62          6           0        4.313180    3.172966    1.987879
     63          6           0        3.110022    3.440369    2.999648
     64          6           0        2.592509    4.898843    3.015511
     65          6           0        2.488814    5.513276    4.374210
     66          6           0        1.214071    4.899781    2.326012
     67          1           0       -0.081509    1.952465   -0.769333
     68          1           0       -6.460322    3.740878   -1.413315
     69          1           0       -8.116079   -1.825254    0.922790
     70          1           0        0.265867   -2.421556    1.119064
     71          1           0        0.987519   -0.194286   -0.598950
     72          1           0        0.128003    0.646463    2.013746
     73          1           0        1.743365    0.699941    1.348282
     74          1           0        1.209346   -0.719248    2.254204
     75          1           0        0.683670   -2.052813   -1.813126
     76          1           0       -0.324231   -3.414278   -1.359452
     77          1           0        1.421654   -4.535563   -0.615965
     78          1           0        2.253609   -3.282452    0.108360
     79          1           0       -0.638650    4.666486   -2.927484
     80          1           0       -0.021511    4.211923   -1.308908
     81          1           0       -1.120594    5.567023   -1.452506
     82          1           0       -2.771021    6.906382   -2.356261
     83          1           0       -3.812359    6.893496   -3.815016
     84          1           0       -2.451311    5.742834   -3.752321
     85          1           0       -8.562451    2.630933   -1.281843
     86          1           0       -9.292322    0.364305    0.538315
     87          1           0       -8.994763    3.866314    0.575006
     88          1           0       -7.729810    3.091144    1.604680
     89          1           0       -9.320058    2.294176    1.351429
     90          1           0       -9.488667   -1.014300   -1.406884
     91          1           0       -8.236973   -0.141720   -2.243823
     92          1           0       -9.886216    0.921283   -3.324821
     93          1           0      -10.450464    1.591164   -1.773202
     94          1           0      -11.153480    0.025264   -2.443518
     95          1           0       -7.849628   -3.977627    1.242072
     96          1           0       -7.012146   -4.390950    2.775748
     97          1           0       -6.796466   -5.464131    1.402282
     98          1           0       -1.732079   -4.686157    0.208876
     99          1           0        0.541848   -5.163208    3.810815
    100          1           0        1.484572   -5.785026    2.458943
    101          1           0        0.378147   -6.889733    3.216922
    102          1           0        4.650511   -2.854748   -3.391285
    103          1           0        4.963256   -4.585118   -3.388470
    104          1           0        6.397091   -3.340748   -1.093937
    105          1           0        8.556047   -3.119245   -4.710302
    106          1           0        7.601354   -1.521926   -4.514037
    107          1           0        6.776080   -3.072687   -4.805279
    108          1           0        9.406891   -3.157860   -2.484557
    109          1           0        8.557933   -2.911391   -0.976205
    110          1           0        8.149243   -0.501665   -2.234280
    111          1           0        9.814325   -1.051883   -2.835775
    112          1           0       10.339963   -1.375913   -0.395655
    113          1           0        8.794083   -0.584750   -0.038376
    114          1           0       10.050297    1.336670   -1.641648
    115          1           0       12.211540    1.092056   -1.833382
    116          1           0       12.166274   -0.560232   -1.290584
    117          1           0       12.392909    0.868956   -0.117650
    118          1           0       10.919407    2.241278    0.746818
    119          1           0       10.149911    0.897849    1.417578
    120          1           0        8.090630    1.953409   -0.216772
    121          1           0        8.872782    3.384214    0.498932
    122          1           0        8.768933    2.154168    2.691740
    123          1           0        7.530876    1.134404    1.989195
    124          1           0        6.580033    3.303329    1.007252
    125          1           0        7.223958    5.404244    1.922954
    126          1           0        8.510409    4.632152    2.823534
    127          1           0        6.880026    4.802161    3.538689
    128          1           0        5.604530    2.945738    3.735893
    129          1           0        5.644254    1.600633    2.534336
    130          1           0        3.993568    2.274047    1.460187
    131          1           0        4.496008    4.009983    1.313274
    132          1           0        3.336718    3.012590    3.976948
    133          1           0        2.319727    2.803794    2.600944
    134          1           0        3.197140    5.586536    2.425063
    135          1           0        1.988018    6.481124    4.394950
    136          1           0        3.513447    5.586851    4.737895
    137          1           0        1.913068    4.804504    4.969384
    138          1           0        0.645796    5.710226    2.782464
    139          1           0        0.636283    3.986726    2.468746
    140          1           0        1.299823    5.165588    1.273120
 ---------------------------------------------------------------------

 SCF Done:  E(RwB97XD) =  -3007.87320880     A.U. after   17 cycles

 Excitation energies and oscillator strengths:

 Excited State   1:      Singlet-A      1.5990 eV  775.38 nm  f=0.3886  <S**2>=0.000
     245 -> 248       -0.16136
     246 -> 247        0.68935
     245 <- 248       -0.11291
 This state for optimization and/or second-order correction.
 Total Energy, E(TD-HF/TD-DFT) =  -3007.81444647
 Copying the excited state density for this state as the 1-particle RhoCI density.

 Excited State   2:      Singlet-A      2.1241 eV  583.70 nm  f=0.2164  <S**2>=0.000
     245 -> 247        0.66539
     246 -> 248        0.22072

 Excited State   3:      Singlet-A      3.1857 eV  389.19 nm  f=0.0050  <S**2>=0.000
     241 -> 247        0.19163
     242 -> 247        0.65776

 Excited State   4:      Singlet-A      3.3461 eV  370.54 nm  f=0.0122  <S**2>=0.000
     241 -> 247        0.29977
     243 -> 247        0.55582
     243 -> 249       -0.18761
     243 -> 250        0.17561

 Excited State   5:      Singlet-A      3.4273 eV  361.75 nm  f=0.0084  <S**2>=0.000
     241 -> 247        0.56016
     242 -> 247       -0.19085
     243 -> 247       -0.19147
     243 -> 249        0.15706
     243 -> 250       -0.19703

 The electronic state is 1-A.
 Alpha  occ. eigenvalues --  -46.95186 -19.30145 -19.29701 -19.25573 -19.24971
 Alpha  occ. eigenvalues --  -19.24459 -19.22387 -14.46917 -14.45948 -14.44220
 Alpha  occ. eigenvalues --  -14.44145 -10.44074 -10.43069 -10.40036 -10.37866
 Alpha  occ. eigenvalues --  -10.35901 -10.35397 -10.34923 -10.34788 -10.34762
 Alpha  occ. eigenvalues --  -10.34647 -10.34437 -10.34384 -10.33797 -10.33156
 Alpha  occ. eigenvalues --  -10.33070 -10.32521 -10.32212 -10.32127 -10.32115
 Alpha  occ. eigenvalues --  -10.32114 -10.32099 -10.32075 -10.31964 -10.31600
 Alpha  occ. eigenvalues --  -10.31519 -10.31492 -10.31359 -10.31120 -10.30859
 Alpha  occ. eigenvalues --  -10.30717 -10.30491 -10.30259 -10.30180 -10.30038
 Alpha  occ. eigenvalues --  -10.29740 -10.29722 -10.29595 -10.29571 -10.29524
 Alpha  occ. eigenvalues --  -10.29443 -10.29373 -10.29311 -10.29291 -10.29200
 Alpha  occ. eigenvalues --  -10.29176 -10.29151 -10.29037 -10.29011 -10.29003
 Alpha  occ. eigenvalues --  -10.28929 -10.28805 -10.28524 -10.28403 -10.28043
 Alpha  occ. eigenvalues --  -10.27936  -3.21287  -1.94845  -1.94411  -1.94274
 Alpha  occ. eigenvalues --   -1.18815  -1.17710  -1.12494  -1.09757  -1.09578
 Alpha  occ. eigenvalues --   -1.09291  -1.06881  -1.06036  -1.05614  -1.04550
 Alpha  occ. eigenvalues --   -0.95703  -0.93366  -0.92234  -0.91777  -0.90629
 Alpha  occ. eigenvalues --   -0.90580  -0.89926  -0.89749  -0.89368  -0.88734
 Alpha  occ. eigenvalues --   -0.88403  -0.87963  -0.86244  -0.86035  -0.85243
 Alpha  occ. eigenvalues --   -0.84521  -0.84183  -0.83075  -0.82917  -0.82682
 Alpha  occ. eigenvalues --   -0.81610  -0.80513  -0.80364  -0.79194  -0.78554
 Alpha  occ. eigenvalues --   -0.78303  -0.77414  -0.77373  -0.77120  -0.75955
 Alpha  occ. eigenvalues --   -0.75624  -0.74820  -0.72921  -0.72304  -0.71036
 Alpha  occ. eigenvalues --   -0.70405  -0.70149  -0.69022  -0.68274  -0.67740
 Alpha  occ. eigenvalues --   -0.67052  -0.66915  -0.66885  -0.66438  -0.65885
 Alpha  occ. eigenvalues --   -0.65080  -0.64865  -0.64491  -0.64074  -0.62682
 Alpha  occ. eigenvalues --   -0.62300  -0.61763  -0.61521  -0.60949  -0.60399
 Alpha  occ. eigenvalues --   -0.59836  -0.59472  -0.57875  -0.57817  -0.57647
 Alpha  occ. eigenvalues --   -0.57564  -0.56855  -0.56555  -0.56375  -0.56263
 Alpha  occ. eigenvalues --   -0.56039  -0.55606  -0.55244  -0.55138  -0.54743
 Alpha  occ. eigenvalues --   -0.54680  -0.54417  -0.54240  -0.54099  -0.53798
 Alpha  occ. eigenvalues --   -0.53562  -0.53222  -0.53161  -0.52924  -0.52902
 Alpha  occ. eigenvalues --   -0.52668  -0.52464  -0.52209  -0.51945  -0.51785
 Alpha  occ. eigenvalues --   -0.51566  -0.51534  -0.51318  -0.51126  -0.51067
 Alpha  occ. eigenvalues --   -0.50607  -0.50475  -0.50199  -0.49837  -0.49727
 Alpha  occ. eigenvalues --   -0.49467  -0.49320  -0.49154  -0.49117  -0.48992
 Alpha  occ. eigenvalues --   -0.48448  -0.48338  -0.48102  -0.47877  -0.47819
 Alpha  occ. eigenvalues --   -0.47749  -0.47703  -0.47470  -0.46987  -0.46978
 Alpha  occ. eigenvalues --   -0.46860  -0.46642  -0.46253  -0.46061  -0.45943
 Alpha  occ. eigenvalues --   -0.45817  -0.45494  -0.45081  -0.45013  -0.44955
 Alpha  occ. eigenvalues --   -0.44822  -0.44667  -0.44311  -0.43964  -0.43842
 Alpha  occ. eigenvalues --   -0.43696  -0.43481  -0.43373  -0.43205  -0.43082
 Alpha  occ. eigenvalues --   -0.42544  -0.42540  -0.42227  -0.42100  -0.41951
 Alpha  occ. eigenvalues --   -0.41747  -0.41439  -0.41190  -0.40903  -0.40806
 Alpha  occ. eigenvalues --   -0.40388  -0.40288  -0.39970  -0.39807  -0.39664
 Alpha  occ. eigenvalues --   -0.39500  -0.39393  -0.39045  -0.38420  -0.38356
 Alpha  occ. eigenvalues --   -0.38106  -0.37939  -0.37702  -0.36953  -0.36606
 Alpha  occ. eigenvalues --   -0.36316  -0.35932  -0.35355  -0.33759  -0.33426
 Alpha  occ. eigenvalues --   -0.32188  -0.32022  -0.31711  -0.31399  -0.26133
 Alpha  occ. eigenvalues --   -0.23505
 Alpha virt. eigenvalues --   -0.07976   0.01173   0.02396   0.04325   0.05082
 Alpha virt. eigenvalues --    0.06063   0.06779   0.07388   0.08249   0.09519
 Alpha virt. eigenvalues --    0.10226   0.10757   0.11653   0.12065   0.12437

 Mulliken charges:
               1
     1  Mg   0.985244
     2  C   -0.014424
     3  C   -0.063724
     4  C   -0.042689
     5  C   -0.082867
     6  N   -0.296576
     7  C   -0.033304
     8  C   -0.085853
     9  C   -0.102848
    10  C   -0.017150
    11  C    0.039057
    12  C    0.047789
    13  C   -0.013976
    14  C    0.239428
    15  O   -0.256640
    16  O   -0.404614
    17  N   -0.497003
    18  C    0.189997
    19  C   -0.168921
    20  C   -0.082264
    21  C    0.148372
    22  C    0.068683
    23  C    0.008865
    24  O   -0.274959
    25  C    0.009805
    26  N   -0.391844
    27  C    0.045349
    28  C   -0.110577
    29  C   -0.102348
    30  C    0.088862
    31  C    0.051778
    32  C   -0.034008
    33  C   -0.032745
    34  N   -0.399695
    35  C    0.123221
    36  C   -0.202733
    37  C   -0.039761
    38  C    0.128903
    39  C    0.087834
    40  C    0.156827
    41  O   -0.192377
    42  C   -0.061108
    43  C    0.244807
    44  O   -0.268344
    45  O   -0.351171
    46  C    0.133110
    47  C    0.234160
    48  C   -0.148722
    49  C   -0.240586
    50  C    0.060290
    51  C    0.057348
    52  C   -0.015032
    53  C   -0.023975
    54  C   -0.182031
    55  C    0.011216
    56  C    0.019007
    57  C   -0.060065
    58  C    0.010137
    59  C   -0.175328
    60  C    0.019987
    61  C   -0.016712
    62  C   -0.070195
    63  C    0.021047
    64  C   -0.206792
    65  C   -0.004236
    66  C   -0.014584
    67  H   -0.006412
    68  H    0.013646
    69  H    0.004903
    70  H    0.034976
    71  H    0.026654
    72  H    0.047580
    73  H    0.041547
    74  H    0.048066
    75  H    0.041718
    76  H    0.035094
    77  H    0.070016
    78  H    0.052310
    79  H    0.068184
    80  H    0.043917
    81  H    0.043041
    82  H    0.063958
    83  H    0.054953
    84  H    0.046008
    85  H    0.047205
    86  H    0.025282
    87  H    0.046316
    88  H    0.060152
    89  H    0.027908
    90  H    0.024672
    91  H    0.033845
    92  H    0.042750
    93  H    0.036030
    94  H    0.048538
    95  H    0.031255
    96  H    0.059761
    97  H    0.065070
    98  H    0.071049
    99  H    0.066335
   100  H    0.033747
   101  H    0.062631
   102  H    0.053012
   103  H    0.058428
   104  H    0.037051
   105  H    0.048719
   106  H    0.068112
   107  H    0.036591
   108  H    0.012562
   109  H    0.022330
   110  H    0.027445
   111  H    0.021318
   112  H    0.017360
   113  H    0.019940
   114  H    0.023782
   115  H    0.022091
   116  H    0.034668
   117  H    0.029280
   118  H    0.014069
   119  H    0.014956
   120  H    0.023528
   121  H    0.025247
   122  H    0.016079
   123  H    0.013411
   124  H    0.013171
   125  H    0.032371
   126  H    0.030588
   127  H    0.033281
   128  H    0.019950
   129  H    0.010068
   130  H    0.019171
   131  H    0.030150
   132  H    0.019864
   133  H    0.005180
   134  H    0.018890
   135  H    0.034402
   136  H    0.030607
   137  H    0.026011
   138  H    0.010166
   139  H    0.037099
   140  H    0.028007
 Sum of Mulliken charges =  -0.00000

 Dipole moment (field-independent basis, Debye):
    X=              3.9820    Y=              1.4859    Z=             -1.8018  Tot=              4.6163
 Quadrupole moment (field-independent basis, Debye-Ang):
   XX=           -356.7803   YY=           -422.4970   ZZ=           -416.0792
   XY=              5.2450   XZ=             -5.1106   YZ=             11.1120

 Normal termination of Gaussian 16 at Fri Apr 29 09:59:51 2022.
