 Gaussian 16, Revision A.03,
 Gaussian 16:  ES64L-G16RevA.03 25-Dec-2016

 --------------------
 #p ZINDO=(nstates=5)
 --------------------

 -----------------------------
 step_251_chromophore_12 ZINDO
 -----------------------------
 Symbolic Z-matrix:
 Charge =  0 Multiplicity = 1

                         Standard orientation:
 ---------------------------------------------------------------------
 Center     Atomic      Atomic             Coordinates (Angstroms)
 Number     Number       Type             X           Y           Z
 ---------------------------------------------------------------------
      1         12           0       -4.197827    0.254533   -0.474344
      2          6           0       -2.404196   -2.785052    0.690696
      3          6           0       -1.110452    1.623483   -0.608531
      4          6           0       -5.851541    2.865509   -1.178374
      5          6           0       -7.169270   -1.372238    0.620215
      6          7           0       -2.052424   -0.504161    0.041515
      7          6           0       -1.589367   -1.782814    0.301889
      8          6           0       -0.068536   -1.944663    0.197488
      9          6           0        0.331089   -0.437296    0.236078
     10          6           0       -1.007759    0.315117   -0.124990
     11          6           0        0.897244    0.039244    1.536571
     12          6           0        0.482165   -2.767180   -1.015402
     13          6           0        1.756694   -3.521283   -0.832025
     14          6           0        2.678318   -3.549836   -2.047182
     15          8           0        2.341230   -3.275186   -3.188311
     16          8           0        3.999997   -3.894412   -1.727813
     17          7           0       -3.567031    2.054857   -0.904015
     18          6           0       -2.216640    2.456165   -0.976224
     19          6           0       -2.185118    3.781207   -1.524983
     20          6           0       -3.586209    4.064975   -1.833347
     21          6           0       -4.351885    2.990636   -1.312421
     22          6           0       -0.878278    4.587876   -1.867472
     23          6           0       -4.083050    5.279707   -2.555770
     24          8           0       -5.306706    5.494620   -2.734325
     25          6           0       -3.180907    6.293337   -3.159333
     26          7           0       -6.175869    0.792282   -0.177357
     27          6           0       -6.657044    1.968683   -0.584176
     28          6           0       -8.198953    2.125341   -0.386588
     29          6           0       -8.576443    0.603460   -0.247500
     30          6           0       -7.223138   -0.054469    0.137500
     31          6           0       -8.550833    2.927604    0.907381
     32          6           0       -9.112548   -0.011505   -1.608058
     33          6           0      -10.284485    0.674988   -2.340649
     34          7           0       -4.723456   -1.683213    0.419676
     35          6           0       -5.982999   -2.183984    0.728726
     36          6           0       -5.853158   -3.504038    1.299968
     37          6           0       -4.482292   -3.789811    1.267388
     38          6           0       -3.809132   -2.625737    0.805041
     39          6           0       -6.960801   -4.425047    1.687528
     40          6           0       -3.493837   -4.816338    1.570868
     41          8           0       -3.562816   -5.969241    1.975852
     42          6           0       -2.100589   -4.156013    1.086894
     43          6           0       -1.186825   -4.308592    2.206031
     44          8           0       -1.301917   -3.807797    3.335738
     45          8           0       -0.429078   -5.420581    1.974045
     46          6           0        0.516761   -5.841161    2.957388
     47          6           0        5.022612   -3.680113   -2.784672
     48          6           0        6.374075   -3.274128   -2.181325
     49          6           0        7.509399   -2.892274   -2.883881
     50          6           0        7.658509   -2.601340   -4.372544
     51          6           0        8.632948   -2.557905   -2.005115
     52          6           0        9.037427   -1.112647   -2.074321
     53          6           0        9.616081   -0.642682   -0.751321
     54          6           0       10.376040    0.731109   -0.795645
     55          6           0       11.905498    0.457822   -1.001023
     56          6           0       10.132973    1.520877    0.523420
     57          6           0        8.748813    2.304203    0.578660
     58          6           0        8.011856    2.109172    1.908701
     59          6           0        6.991837    3.201312    2.011237
     60          6           0        7.439561    4.598779    2.625179
     61          6           0        5.708136    2.678769    2.683994
     62          6           0        4.313180    3.172966    1.987879
     63          6           0        3.110022    3.440369    2.999648
     64          6           0        2.592509    4.898843    3.015511
     65          6           0        2.488814    5.513276    4.374210
     66          6           0        1.214071    4.899781    2.326012
     67          1           0       -0.081509    1.952465   -0.769333
     68          1           0       -6.460322    3.740878   -1.413315
     69          1           0       -8.116079   -1.825254    0.922790
     70          1           0        0.265867   -2.421556    1.119064
     71          1           0        0.987519   -0.194286   -0.598950
     72          1           0        0.128003    0.646463    2.013746
     73          1           0        1.743365    0.699941    1.348282
     74          1           0        1.209346   -0.719248    2.254204
     75          1           0        0.683670   -2.052813   -1.813126
     76          1           0       -0.324231   -3.414278   -1.359452
     77          1           0        1.421654   -4.535563   -0.615965
     78          1           0        2.253609   -3.282452    0.108360
     79          1           0       -0.638650    4.666486   -2.927484
     80          1           0       -0.021511    4.211923   -1.308908
     81          1           0       -1.120594    5.567023   -1.452506
     82          1           0       -2.771021    6.906382   -2.356261
     83          1           0       -3.812359    6.893496   -3.815016
     84          1           0       -2.451311    5.742834   -3.752321
     85          1           0       -8.562451    2.630933   -1.281843
     86          1           0       -9.292322    0.364305    0.538315
     87          1           0       -8.994763    3.866314    0.575006
     88          1           0       -7.729810    3.091144    1.604680
     89          1           0       -9.320058    2.294176    1.351429
     90          1           0       -9.488667   -1.014300   -1.406884
     91          1           0       -8.236973   -0.141720   -2.243823
     92          1           0       -9.886216    0.921283   -3.324821
     93          1           0      -10.450464    1.591164   -1.773202
     94          1           0      -11.153480    0.025264   -2.443518
     95          1           0       -7.849628   -3.977627    1.242072
     96          1           0       -7.012146   -4.390950    2.775748
     97          1           0       -6.796466   -5.464131    1.402282
     98          1           0       -1.732079   -4.686157    0.208876
     99          1           0        0.541848   -5.163208    3.810815
    100          1           0        1.484572   -5.785026    2.458943
    101          1           0        0.378147   -6.889733    3.216922
    102          1           0        4.650511   -2.854748   -3.391285
    103          1           0        4.963256   -4.585118   -3.388470
    104          1           0        6.397091   -3.340748   -1.093937
    105          1           0        8.556047   -3.119245   -4.710302
    106          1           0        7.601354   -1.521926   -4.514037
    107          1           0        6.776080   -3.072687   -4.805279
    108          1           0        9.406891   -3.157860   -2.484557
    109          1           0        8.557933   -2.911391   -0.976205
    110          1           0        8.149243   -0.501665   -2.234280
    111          1           0        9.814325   -1.051883   -2.835775
    112          1           0       10.339963   -1.375913   -0.395655
    113          1           0        8.794083   -0.584750   -0.038376
    114          1           0       10.050297    1.336670   -1.641648
    115          1           0       12.211540    1.092056   -1.833382
    116          1           0       12.166274   -0.560232   -1.290584
    117          1           0       12.392909    0.868956   -0.117650
    118          1           0       10.919407    2.241278    0.746818
    119          1           0       10.149911    0.897849    1.417578
    120          1           0        8.090630    1.953409   -0.216772
    121          1           0        8.872782    3.384214    0.498932
    122          1           0        8.768933    2.154168    2.691740
    123          1           0        7.530876    1.134404    1.989195
    124          1           0        6.580033    3.303329    1.007252
    125          1           0        7.223958    5.404244    1.922954
    126          1           0        8.510409    4.632152    2.823534
    127          1           0        6.880026    4.802161    3.538689
    128          1           0        5.604530    2.945738    3.735893
    129          1           0        5.644254    1.600633    2.534336
    130          1           0        3.993568    2.274047    1.460187
    131          1           0        4.496008    4.009983    1.313274
    132          1           0        3.336718    3.012590    3.976948
    133          1           0        2.319727    2.803794    2.600944
    134          1           0        3.197140    5.586536    2.425063
    135          1           0        1.988018    6.481124    4.394950
    136          1           0        3.513447    5.586851    4.737895
    137          1           0        1.913068    4.804504    4.969384
    138          1           0        0.645796    5.710226    2.782464
    139          1           0        0.636283    3.986726    2.468746
    140          1           0        1.299823    5.165588    1.273120
 ---------------------------------------------------------------------

 SCF Done:  E(RZINDO/S) =  -474.353024575     A.U. after   20 cycles

 Excitation energies and oscillator strengths:

 Excited State   1:      Singlet-A      1.2277 eV 1009.91 nm  f=0.6411  <S**2>=0.000
     175 ->178         0.15172
     176 ->177         0.66642
 This state for optimization and/or second-order correction.
 Total Energy, E(CIS/TDA) =  -474.307908228
 Copying the excited state density for this state as the 1-particle RhoCI density.

 Excited State   2:      Singlet-A      1.9147 eV  647.54 nm  f=0.1816  <S**2>=0.000
     175 ->177         0.60896
     176 ->178        -0.29285
     176 ->179        -0.14708

 Excited State   3:      Singlet-A      2.9107 eV  425.96 nm  f=0.0020  <S**2>=0.000
     170 ->177         0.29120
     170 ->179         0.20114
     170 ->180        -0.35083
     170 ->183        -0.32603
     170 ->186         0.15979
     170 ->187         0.17963
     173 ->177        -0.14323

 Excited State   4:      Singlet-A      2.9728 eV  417.06 nm  f=0.0011  <S**2>=0.000
     168 ->177         0.36568
     168 ->178         0.32705
     168 ->179        -0.33044
     168 ->183        -0.21328
     168 ->186        -0.18819

 Excited State   5:      Singlet-A      3.0097 eV  411.95 nm  f=0.4592  <S**2>=0.000
     171 ->177        -0.26673
     173 ->177         0.15222
     175 ->177         0.21281
     176 ->178         0.54162
     176 ->179        -0.13278

 The electronic state is 1-A.
 Alpha  occ. eigenvalues --   -1.83764  -1.82822  -1.80265  -1.74457  -1.72279
 Alpha  occ. eigenvalues --   -1.70584  -1.65360  -1.61770  -1.58981  -1.57582
 Alpha  occ. eigenvalues --   -1.57282  -1.52598  -1.50558  -1.49299  -1.46142
 Alpha  occ. eigenvalues --   -1.43773  -1.43265  -1.38779  -1.38594  -1.37244
 Alpha  occ. eigenvalues --   -1.35833  -1.34617  -1.32733  -1.31794  -1.29855
 Alpha  occ. eigenvalues --   -1.26537  -1.24122  -1.21314  -1.20039  -1.18978
 Alpha  occ. eigenvalues --   -1.17838  -1.16145  -1.15468  -1.14727  -1.14437
 Alpha  occ. eigenvalues --   -1.12875  -1.11013  -1.10072  -1.05868  -1.03988
 Alpha  occ. eigenvalues --   -1.02954  -1.01660  -0.98440  -0.97896  -0.96615
 Alpha  occ. eigenvalues --   -0.95343  -0.93378  -0.92740  -0.91776  -0.91329
 Alpha  occ. eigenvalues --   -0.90432  -0.89766  -0.88498  -0.87882  -0.86624
 Alpha  occ. eigenvalues --   -0.85988  -0.84017  -0.83110  -0.81975  -0.80470
 Alpha  occ. eigenvalues --   -0.79915  -0.79213  -0.78348  -0.77333  -0.77056
 Alpha  occ. eigenvalues --   -0.75929  -0.75642  -0.74676  -0.74231  -0.73693
 Alpha  occ. eigenvalues --   -0.72617  -0.72510  -0.71210  -0.70958  -0.70201
 Alpha  occ. eigenvalues --   -0.69204  -0.69036  -0.68669  -0.68614  -0.67997
 Alpha  occ. eigenvalues --   -0.67879  -0.67483  -0.67275  -0.66803  -0.66297
 Alpha  occ. eigenvalues --   -0.65966  -0.65299  -0.64698  -0.64234  -0.63467
 Alpha  occ. eigenvalues --   -0.63401  -0.63134  -0.62758  -0.62657  -0.61429
 Alpha  occ. eigenvalues --   -0.61275  -0.61001  -0.60932  -0.59955  -0.59693
 Alpha  occ. eigenvalues --   -0.59363  -0.59122  -0.58791  -0.58721  -0.58491
 Alpha  occ. eigenvalues --   -0.58176  -0.57868  -0.57495  -0.56934  -0.56731
 Alpha  occ. eigenvalues --   -0.56469  -0.55831  -0.55515  -0.55249  -0.55079
 Alpha  occ. eigenvalues --   -0.54811  -0.54095  -0.53140  -0.52863  -0.52812
 Alpha  occ. eigenvalues --   -0.52562  -0.52305  -0.52241  -0.51816  -0.51418
 Alpha  occ. eigenvalues --   -0.51001  -0.50694  -0.50161  -0.50113  -0.49892
 Alpha  occ. eigenvalues --   -0.49616  -0.49490  -0.49460  -0.49193  -0.48799
 Alpha  occ. eigenvalues --   -0.48603  -0.48385  -0.47928  -0.47774  -0.47712
 Alpha  occ. eigenvalues --   -0.47431  -0.47307  -0.47091  -0.46873  -0.46515
 Alpha  occ. eigenvalues --   -0.46259  -0.45958  -0.45881  -0.45761  -0.45347
 Alpha  occ. eigenvalues --   -0.45095  -0.44816  -0.44640  -0.44228  -0.43684
 Alpha  occ. eigenvalues --   -0.43515  -0.43221  -0.43073  -0.42814  -0.42093
 Alpha  occ. eigenvalues --   -0.41776  -0.41568  -0.41143  -0.39485  -0.39248
 Alpha  occ. eigenvalues --   -0.38342  -0.37284  -0.35791  -0.34573  -0.33919
 Alpha  occ. eigenvalues --   -0.33194  -0.32700  -0.31961  -0.31501  -0.26551
 Alpha  occ. eigenvalues --   -0.22203
 Alpha virt. eigenvalues --   -0.09243  -0.01485  -0.00347   0.01092   0.01499
 Alpha virt. eigenvalues --    0.01831   0.01956   0.03232   0.04104   0.05210
 Alpha virt. eigenvalues --    0.06794   0.07236   0.07652   0.08026   0.08088

 Mulliken charges:
               1
     1  Mg   0.436421
     2  C   -0.020393
     3  C   -0.058450
     4  C   -0.088066
     5  C   -0.082486
     6  N   -0.283718
     7  C    0.126435
     8  C   -0.005080
     9  C    0.011149
    10  C    0.113718
    11  C   -0.044932
    12  C   -0.019012
    13  C    0.012889
    14  C    0.468954
    15  O   -0.511165
    16  O   -0.292045
    17  N   -0.296560
    18  C    0.070428
    19  C   -0.013213
    20  C   -0.061525
    21  C    0.174397
    22  C   -0.044417
    23  C    0.317033
    24  O   -0.559290
    25  C   -0.028833
    26  N   -0.284153
    27  C    0.137709
    28  C    0.001736
    29  C    0.003424
    30  C    0.143331
    31  C   -0.051570
    32  C   -0.034500
    33  C   -0.059710
    34  N   -0.335650
    35  C    0.115977
    36  C    0.042704
    37  C   -0.048143
    38  C    0.109187
    39  C   -0.037865
    40  C    0.339034
    41  O   -0.501280
    42  C    0.065269
    43  C    0.486076
    44  O   -0.531897
    45  O   -0.269408
    46  C    0.076790
    47  C    0.098431
    48  C   -0.111779
    49  C   -0.003267
    50  C   -0.039212
    51  C   -0.018708
    52  C   -0.025959
    53  C   -0.035281
    54  C   -0.014949
    55  C   -0.065972
    56  C   -0.041317
    57  C   -0.044633
    58  C   -0.026822
    59  C   -0.012355
    60  C   -0.054712
    61  C   -0.049636
    62  C   -0.058759
    63  C   -0.036941
    64  C   -0.004262
    65  C   -0.050138
    66  C   -0.059689
    67  H    0.020726
    68  H    0.031119
    69  H    0.030866
    70  H    0.029885
    71  H    0.023521
    72  H    0.024022
    73  H    0.016724
    74  H    0.026333
    75  H    0.030832
    76  H    0.025382
    77  H    0.041394
    78  H    0.041056
    79  H    0.038949
    80  H    0.024862
    81  H    0.024924
    82  H    0.044434
    83  H    0.038094
    84  H    0.033920
    85  H    0.042169
    86  H    0.029522
    87  H    0.024336
    88  H    0.036219
    89  H    0.018792
    90  H    0.009909
    91  H    0.024888
    92  H    0.021754
    93  H    0.025521
    94  H    0.028784
    95  H    0.024807
    96  H    0.038711
    97  H    0.041788
    98  H    0.053715
    99  H    0.054792
   100  H    0.020464
   101  H    0.045230
   102  H    0.047922
   103  H    0.051545
   104  H    0.037839
   105  H    0.036411
   106  H    0.042758
   107  H    0.022459
   108  H    0.014421
   109  H    0.025881
   110  H    0.025437
   111  H    0.024014
   112  H    0.017968
   113  H    0.016494
   114  H    0.023410
   115  H    0.008572
   116  H    0.028563
   117  H    0.026060
   118  H    0.013874
   119  H    0.018569
   120  H    0.019032
   121  H    0.022692
   122  H    0.015977
   123  H    0.020775
   124  H    0.019160
   125  H    0.018053
   126  H    0.021336
   127  H    0.024035
   128  H    0.021936
   129  H    0.015693
   130  H    0.012936
   131  H    0.029066
   132  H    0.023916
   133  H    0.013870
   134  H    0.018201
   135  H    0.021674
   136  H    0.012833
   137  H    0.017684
   138  H    0.007599
   139  H    0.024707
   140  H    0.014846
 Sum of Mulliken charges =  -0.00000

 Dipole moment (field-independent basis, Debye):
    X=              5.3837    Y=              0.3654    Z=             -1.5906  Tot=              5.6256
 N-N= 4.523032494592D+03 E-N= 0.000000000000D+00  KE=-9.720435142470D+03
 Leave Link  601 at Fri Apr 29 10:12:35 2022, MaxMem=  6710886400 cpu:               2.9 elap:               0.1
 (Enter /sw/apps/gaussian-16.0/g16/l9999.exe)
 1\1\GINC-BP1-COMPUTE162\SP\RZINDO CIS\STO-3G\C55H74Mg1N4O6\OF15641\29-
 Apr-2022\0\\#p ZINDO=(nstates=5)\\step_251_chromophore_12 ZINDO\\0,1\M
 g,0,48.001,15.367,27.57\C,0,45.752,15.794,30.498\C,0,50.044,17.472,29.
 249\C,0,49.703,15.159,24.904\C,0,45.196,13.91,25.932\N,0,47.853,16.515
 ,29.596\C,0,46.96,16.376,30.645\C,0,47.418,17.013,31.962\C,0,48.558,17
 .918,31.401\C,0,48.867,17.297,29.984\C,0,48.227,19.374,31.304\C,0,47.8
 23,16.044,33.123\C,0,47.607,16.501,34.527\C,0,48.68,16.075,35.524\O,0,

 Normal termination of Gaussian 16 at Fri Apr 29 10:12:35 2022.
