 Gaussian 16, Revision A.03,
 Gaussian 16:  ES64L-G16RevA.03 25-Dec-2016

 ------------------------------
 #p blyp/Def2SVP td=(nstates=5)
 ------------------------------

 --------------------------------------------------
 step_251_chromophore_14 TDDFT with blyp functional
 --------------------------------------------------
 Symbolic Z-matrix:
 Charge =  0 Multiplicity = 1

                         Standard orientation:
 ---------------------------------------------------------------------
 Center     Atomic      Atomic             Coordinates (Angstroms)
 Number     Number       Type             X           Y           Z
 ---------------------------------------------------------------------
      1         12           0       -5.201545    1.003789    0.289029
      2          6           0       -4.851144   -2.307215   -0.405432
      3          6           0       -4.044866    0.355770    3.567848
      4          6           0       -4.530767    4.261198    0.594862
      5          6           0       -5.844463    1.645405   -3.206341
      6          7           0       -4.573503   -0.764117    1.389775
      7          6           0       -4.479967   -1.986237    0.981859
      8          6           0       -4.241499   -3.013130    2.145368
      9          6           0       -4.278356   -2.142192    3.458486
     10          6           0       -4.337264   -0.714988    2.812822
     11          6           0       -5.314806   -2.540705    4.510053
     12          6           0       -2.879557   -3.902245    1.918433
     13          6           0       -1.784355   -3.344145    1.024109
     14          6           0       -0.355948   -3.880696    1.117038
     15          8           0       -0.069660   -5.039528    1.531091
     16          8           0        0.540465   -2.899137    0.810106
     17          7           0       -4.388311    2.137651    1.870585
     18          6           0       -4.045454    1.724368    3.135510
     19          6           0       -3.547788    2.807941    3.865981
     20          6           0       -3.629498    3.981905    3.021835
     21          6           0       -4.171177    3.487738    1.728533
     22          6           0       -3.212047    2.665572    5.339215
     23          6           0       -3.199859    5.393701    3.460082
     24          8           0       -2.749395    5.531980    4.619547
     25          6           0       -3.266462    6.577357    2.652636
     26          7           0       -5.035987    2.747310   -1.192908
     27          6           0       -4.935101    3.946055   -0.692826
     28          6           0       -5.198415    5.066007   -1.739319
     29          6           0       -5.673436    4.236417   -2.952214
     30          6           0       -5.550962    2.732664   -2.475800
     31          6           0       -6.217995    6.066780   -1.329907
     32          6           0       -4.849344    4.558352   -4.286640
     33          6           0       -5.644464    5.306288   -5.434456
     34          7           0       -5.450414   -0.045717   -1.467772
     35          6           0       -5.738056    0.297401   -2.794771
     36          6           0       -5.856831   -0.959690   -3.597263
     37          6           0       -5.473627   -1.959643   -2.692194
     38          6           0       -5.202146   -1.369577   -1.422151
     39          6           0       -6.207775   -1.126411   -4.994818
     40          6           0       -5.231784   -3.328515   -2.647873
     41          8           0       -5.333914   -4.245369   -3.476114
     42          6           0       -4.911154   -3.638342   -1.158010
     43          6           0       -5.924340   -4.695255   -0.657739
     44          8           0       -5.679840   -5.765270   -0.126860
     45          8           0       -7.229396   -4.305663   -0.868331
     46          6           0       -8.290215   -5.239548   -0.472389
     47          6           0        1.911686   -3.350850    0.745095
     48          6           0        2.766527   -2.206976    0.469059
     49          6           0        3.720442   -1.645973    1.273952
     50          6           0        4.153139   -2.185075    2.652781
     51          6           0        4.398610   -0.383183    0.790621
     52          6           0        5.822322   -0.654362    0.274222
     53          6           0        6.147691   -0.073213   -1.106176
     54          6           0        7.654656    0.173843   -1.118710
     55          6           0        7.987632    1.133075   -2.379685
     56          6           0        8.373104   -1.214356   -1.252802
     57          6           0        9.472849   -1.370629   -0.161235
     58          6           0       10.814203   -1.906304   -0.872742
     59          6           0       11.634330   -0.618149   -1.321396
     60          6           0       11.887343   -0.702314   -2.836774
     61          6           0       13.037242   -0.621302   -0.688118
     62          6           0       13.859264    0.710681   -0.947296
     63          6           0       14.556055    1.273096    0.345441
     64          6           0       16.049772    1.517250    0.189533
     65          6           0       16.714289    1.286837    1.519728
     66          6           0       16.526092    2.877889   -0.380911
     67          1           0       -3.636686    0.061957    4.536972
     68          1           0       -4.485269    5.348652    0.680997
     69          1           0       -6.206568    1.841480   -4.217612
     70          1           0       -5.149156   -3.613926    2.208741
     71          1           0       -3.317097   -2.133946    3.973248
     72          1           0       -6.055405   -1.747853    4.613102
     73          1           0       -4.868720   -2.685284    5.494708
     74          1           0       -5.821831   -3.490291    4.338604
     75          1           0       -3.300888   -4.845204    1.569194
     76          1           0       -2.291115   -4.089079    2.816983
     77          1           0       -1.788303   -2.282568    1.269994
     78          1           0       -2.175020   -3.430707    0.010052
     79          1           0       -3.695460    3.313066    6.071225
     80          1           0       -2.128595    2.707345    5.453401
     81          1           0       -3.462676    1.655071    5.661399
     82          1           0       -4.247065    6.902484    2.305512
     83          1           0       -2.777463    6.409364    1.693601
     84          1           0       -2.721454    7.423373    3.070192
     85          1           0       -4.371198    5.712394   -2.032278
     86          1           0       -6.742276    4.329153   -3.145159
     87          1           0       -5.818872    7.034199   -1.025507
     88          1           0       -6.695363    5.768769   -0.395728
     89          1           0       -6.941643    6.215634   -2.131163
     90          1           0       -4.567876    3.608748   -4.743774
     91          1           0       -3.996942    5.220523   -4.140993
     92          1           0       -5.039909    6.124416   -5.823950
     93          1           0       -6.502439    5.800202   -4.978173
     94          1           0       -5.766286    4.560258   -6.219976
     95          1           0       -6.888057   -0.299825   -5.201261
     96          1           0       -6.727563   -2.072401   -5.150737
     97          1           0       -5.266265   -1.164971   -5.541899
     98          1           0       -4.025911   -4.260795   -1.029682
     99          1           0       -9.179003   -5.017930   -1.063490
    100          1           0       -8.652242   -5.201936    0.554918
    101          1           0       -8.006122   -6.289086   -0.554397
    102          1           0        1.924584   -4.134033   -0.012226
    103          1           0        2.295367   -3.900286    1.604397
    104          1           0        2.507198   -1.747075   -0.484191
    105          1           0        3.594672   -1.686154    3.445468
    106          1           0        5.236837   -2.121896    2.746117
    107          1           0        4.021788   -3.265450    2.705269
    108          1           0        4.507446    0.268689    1.656682
    109          1           0        3.871633    0.228335    0.058680
    110          1           0        5.829297   -1.727656    0.088333
    111          1           0        6.583627   -0.424684    1.021428
    112          1           0        5.552714    0.803949   -1.357765
    113          1           0        5.959305   -0.721873   -1.961728
    114          1           0        7.951415    0.602472   -0.161920
    115          1           0        8.803257    0.675565   -2.941012
    116          1           0        8.232466    2.107947   -1.959055
    117          1           0        7.105170    1.214672   -3.014752
    118          1           0        8.757885   -1.479159   -2.237786
    119          1           0        7.655394   -2.023162   -1.113827
    120          1           0        9.236794   -2.166370    0.546443
    121          1           0        9.722131   -0.472854    0.404657
    122          1           0       10.530793   -2.517943   -1.729637
    123          1           0       11.511061   -2.465107   -0.248167
    124          1           0       11.217937    0.347431   -1.032862
    125          1           0       12.736593   -1.362793   -3.013375
    126          1           0       12.167381    0.300378   -3.159383
    127          1           0       10.988964   -1.052262   -3.346635
    128          1           0       13.556007   -1.507576   -1.053251
    129          1           0       12.968590   -0.702264    0.396853
    130          1           0       13.200952    1.487232   -1.337747
    131          1           0       14.586104    0.376522   -1.687734
    132          1           0       14.381205    0.583616    1.171472
    133          1           0       14.189011    2.288351    0.493810
    134          1           0       16.502665    0.774894   -0.467040
    135          1           0       16.091575    1.215720    2.411746
    136          1           0       17.498260    2.006680    1.753028
    137          1           0       17.156914    0.294491    1.436924
    138          1           0       16.782082    3.562554    0.427658
    139          1           0       15.780773    3.342077   -1.025402
    140          1           0       17.452899    2.784077   -0.946858
 ---------------------------------------------------------------------

 SCF Done:  E(RB-LYP) =  -3007.35163171     A.U. after   21 cycles

 Excitation energies and oscillator strengths:

 Excited State   1:      Singlet-A      1.5619 eV  793.83 nm  f=0.0000  <S**2>=0.000
     244 -> 247        0.28776
     245 -> 247        0.64538
 This state for optimization and/or second-order correction.
 Total Energy, E(TD-HF/TD-DFT) =  -3007.29423464
 Copying the excited state density for this state as the 1-particle RhoCI density.

 Excited State   2:      Singlet-A      1.7753 eV  698.38 nm  f=0.1012  <S**2>=0.000
     243 -> 247        0.50063
     244 -> 247        0.28337
     245 -> 247       -0.10954
     246 -> 247        0.39022

 Excited State   3:      Singlet-A      1.8263 eV  678.87 nm  f=0.2478  <S**2>=0.000
     243 -> 247       -0.30179
     244 -> 247       -0.22587
     244 -> 248       -0.13408
     245 -> 247        0.11142
     246 -> 247        0.57595
     246 <- 247       -0.13865

 Excited State   4:      Singlet-A      2.0572 eV  602.70 nm  f=0.0688  <S**2>=0.000
     243 -> 247       -0.38084
     244 -> 247        0.47933
     245 -> 247       -0.21582
     246 -> 248        0.22609

 Excited State   5:      Singlet-A      2.1774 eV  569.40 nm  f=0.0013  <S**2>=0.000
     241 -> 247        0.70590

 The electronic state is 1-A.
 Alpha  occ. eigenvalues --  -46.28691 -18.82588 -18.81954 -18.76903 -18.76632
 Alpha  occ. eigenvalues --  -18.75492 -18.74575 -14.04287 -14.03113 -14.01943
 Alpha  occ. eigenvalues --  -14.01545 -10.04341 -10.04200  -9.99423  -9.99128
 Alpha  occ. eigenvalues --   -9.98140  -9.97481  -9.97003  -9.96832  -9.96663
 Alpha  occ. eigenvalues --   -9.96585  -9.96569  -9.96548  -9.95655  -9.95289
 Alpha  occ. eigenvalues --   -9.95061  -9.94925  -9.94586  -9.94430  -9.94362
 Alpha  occ. eigenvalues --   -9.94257  -9.93877  -9.93780  -9.93366  -9.93335
 Alpha  occ. eigenvalues --   -9.93219  -9.93123  -9.93096  -9.93075  -9.92931
 Alpha  occ. eigenvalues --   -9.92931  -9.92790  -9.92780  -9.92745  -9.92460
 Alpha  occ. eigenvalues --   -9.92389  -9.92078  -9.91940  -9.91754  -9.91493
 Alpha  occ. eigenvalues --   -9.91475  -9.91405  -9.91364  -9.91351  -9.91313
 Alpha  occ. eigenvalues --   -9.91218  -9.91192  -9.91109  -9.91099  -9.91084
 Alpha  occ. eigenvalues --   -9.91083  -9.91055  -9.90723  -9.90704  -9.90362
 Alpha  occ. eigenvalues --   -9.90061  -2.93205  -1.73605  -1.73139  -1.72883
 Alpha  occ. eigenvalues --   -0.97827  -0.97533  -0.90426  -0.89626  -0.89377
 Alpha  occ. eigenvalues --   -0.88469  -0.87226  -0.86811  -0.85901  -0.85042
 Alpha  occ. eigenvalues --   -0.75697  -0.73806  -0.72971  -0.72796  -0.72736
 Alpha  occ. eigenvalues --   -0.72405  -0.72130  -0.71635  -0.71430  -0.71049
 Alpha  occ. eigenvalues --   -0.69678  -0.68791  -0.68238  -0.67985  -0.67456
 Alpha  occ. eigenvalues --   -0.66483  -0.66374  -0.65512  -0.64846  -0.64477
 Alpha  occ. eigenvalues --   -0.63741  -0.62963  -0.62381  -0.61859  -0.60913
 Alpha  occ. eigenvalues --   -0.60412  -0.60096  -0.59956  -0.58921  -0.58616
 Alpha  occ. eigenvalues --   -0.58402  -0.57955  -0.57092  -0.55273  -0.54659
 Alpha  occ. eigenvalues --   -0.54354  -0.53355  -0.52855  -0.52259  -0.51975
 Alpha  occ. eigenvalues --   -0.51800  -0.51130  -0.51062  -0.50666  -0.50173
 Alpha  occ. eigenvalues --   -0.49816  -0.49608  -0.48991  -0.48607  -0.47222
 Alpha  occ. eigenvalues --   -0.46924  -0.46447  -0.45578  -0.45181  -0.44798
 Alpha  occ. eigenvalues --   -0.43919  -0.43673  -0.43504  -0.43211  -0.42570
 Alpha  occ. eigenvalues --   -0.42097  -0.41891  -0.41599  -0.41445  -0.41031
 Alpha  occ. eigenvalues --   -0.40921  -0.40843  -0.40586  -0.40231  -0.40128
 Alpha  occ. eigenvalues --   -0.39906  -0.39809  -0.39745  -0.39532  -0.38954
 Alpha  occ. eigenvalues --   -0.38827  -0.38701  -0.38624  -0.38410  -0.38274
 Alpha  occ. eigenvalues --   -0.38172  -0.37918  -0.37794  -0.37543  -0.37363
 Alpha  occ. eigenvalues --   -0.37247  -0.37116  -0.36911  -0.36799  -0.36499
 Alpha  occ. eigenvalues --   -0.36390  -0.36105  -0.35756  -0.35657  -0.35619
 Alpha  occ. eigenvalues --   -0.35413  -0.35322  -0.35083  -0.34961  -0.34833
 Alpha  occ. eigenvalues --   -0.34514  -0.34451  -0.34386  -0.34155  -0.33898
 Alpha  occ. eigenvalues --   -0.33763  -0.33724  -0.33543  -0.33350  -0.33128
 Alpha  occ. eigenvalues --   -0.33046  -0.32926  -0.32905  -0.32558  -0.32416
 Alpha  occ. eigenvalues --   -0.32129  -0.31970  -0.31740  -0.31349  -0.31208
 Alpha  occ. eigenvalues --   -0.31015  -0.30906  -0.30614  -0.30555  -0.30456
 Alpha  occ. eigenvalues --   -0.30188  -0.30076  -0.29974  -0.29820  -0.29707
 Alpha  occ. eigenvalues --   -0.29500  -0.29370  -0.29234  -0.29029  -0.28888
 Alpha  occ. eigenvalues --   -0.28754  -0.28653  -0.28281  -0.28118  -0.28037
 Alpha  occ. eigenvalues --   -0.27631  -0.27358  -0.27297  -0.27225  -0.26707
 Alpha  occ. eigenvalues --   -0.26543  -0.25776  -0.25755  -0.25122  -0.24911
 Alpha  occ. eigenvalues --   -0.24889  -0.24776  -0.24596  -0.24539  -0.23598
 Alpha  occ. eigenvalues --   -0.23038  -0.22756  -0.21786  -0.21756  -0.21294
 Alpha  occ. eigenvalues --   -0.20277  -0.20061  -0.18866  -0.18016  -0.17942
 Alpha  occ. eigenvalues --   -0.16388
 Alpha virt. eigenvalues --   -0.12281  -0.07123  -0.06449  -0.04964  -0.04346
 Alpha virt. eigenvalues --   -0.03359  -0.02656  -0.02584  -0.01981  -0.00126
 Alpha virt. eigenvalues --    0.00851   0.01486   0.02122   0.02685   0.03145

 Mulliken charges:
               1
     1  Mg   0.698453
     2  C    0.042709
     3  C   -0.057384
     4  C   -0.012234
     5  C   -0.074275
     6  N   -0.210375
     7  C   -0.072539
     8  C    0.041143
     9  C   -0.008836
    10  C    0.013704
    11  C    0.135169
    12  C    0.084666
    13  C    0.092949
    14  C    0.124907
    15  O   -0.226440
    16  O   -0.244667
    17  N   -0.290570
    18  C    0.140858
    19  C   -0.127792
    20  C    0.016975
    21  C    0.152370
    22  C    0.195449
    23  C   -0.059292
    24  O   -0.197748
    25  C    0.153205
    26  N   -0.158578
    27  C   -0.038410
    28  C    0.022938
    29  C    0.059408
    30  C   -0.001687
    31  C    0.107447
    32  C    0.055955
    33  C    0.047169
    34  N   -0.286688
    35  C    0.109346
    36  C   -0.179231
    37  C    0.121992
    38  C    0.081845
    39  C    0.182893
    40  C   -0.053729
    41  O   -0.146574
    42  C    0.027011
    43  C    0.082986
    44  O   -0.169449
    45  O   -0.276440
    46  C    0.216181
    47  C    0.334516
    48  C   -0.087226
    49  C   -0.146590
    50  C    0.144207
    51  C    0.179877
    52  C    0.044290
    53  C    0.082165
    54  C   -0.108827
    55  C    0.119474
    56  C    0.116069
    57  C    0.053554
    58  C    0.100798
    59  C   -0.107726
    60  C    0.116674
    61  C    0.050804
    62  C    0.065629
    63  C    0.128929
    64  C   -0.094565
    65  C    0.093321
    66  C    0.103788
    67  H   -0.045861
    68  H   -0.098440
    69  H   -0.062750
    70  H   -0.010524
    71  H   -0.021547
    72  H   -0.009075
    73  H   -0.011717
    74  H   -0.002800
    75  H    0.007412
    76  H   -0.015741
    77  H    0.003401
    78  H    0.005927
    79  H    0.010691
    80  H   -0.003811
    81  H   -0.046205
    82  H    0.016267
    83  H   -0.008577
    84  H   -0.008579
    85  H   -0.014925
    86  H   -0.026484
    87  H   -0.018761
    88  H   -0.017231
    89  H   -0.004967
    90  H   -0.016076
    91  H   -0.011236
    92  H   -0.014145
    93  H   -0.004433
    94  H    0.004870
    95  H   -0.002120
    96  H    0.012283
    97  H    0.021614
    98  H   -0.012206
    99  H    0.010803
   100  H   -0.001229
   101  H    0.020607
   102  H   -0.023545
   103  H   -0.027384
   104  H   -0.042616
   105  H    0.022094
   106  H   -0.009187
   107  H   -0.009872
   108  H   -0.040738
   109  H   -0.029570
   110  H   -0.018459
   111  H   -0.011725
   112  H   -0.038069
   113  H   -0.030202
   114  H   -0.028296
   115  H   -0.011131
   116  H   -0.008648
   117  H   -0.016069
   118  H   -0.031730
   119  H   -0.036365
   120  H   -0.033318
   121  H   -0.014615
   122  H   -0.031184
   123  H   -0.041194
   124  H   -0.027982
   125  H   -0.023346
   126  H   -0.018843
   127  H   -0.011172
   128  H   -0.029269
   129  H   -0.038856
   130  H   -0.023273
   131  H   -0.023063
   132  H   -0.021806
   133  H   -0.035063
   134  H   -0.038352
   135  H   -0.018871
   136  H   -0.026027
   137  H   -0.024231
   138  H   -0.019334
   139  H   -0.020442
   140  H   -0.016635
 Sum of Mulliken charges =  -0.00000

 Dipole moment (field-independent basis, Debye):
    X=             -1.9984    Y=              5.1518    Z=             -1.3951  Tot=              5.6992
 Quadrupole moment (field-independent basis, Debye-Ang):
   XX=           -355.4466   YY=           -440.7113   ZZ=           -412.2892
   XY=            -23.8909   XZ=              2.0430   YZ=            -38.2855

 Normal termination of Gaussian 16 at Wed May  4 18:23:18 2022.
