 Gaussian 16, Revision A.03,
 Gaussian 16:  ES64L-G16RevA.03 25-Dec-2016

 -----------------------------------
 #p cam-b3lyp/Def2SVP td=(nstates=5)
 -----------------------------------

 -------------------------------------------------------
 step_251_chromophore_14 TDDFT with cam-b3lyp functional
 -------------------------------------------------------
 Symbolic Z-matrix:
 Charge =  0 Multiplicity = 1

                         Standard orientation:
 ---------------------------------------------------------------------
 Center     Atomic      Atomic             Coordinates (Angstroms)
 Number     Number       Type             X           Y           Z
 ---------------------------------------------------------------------
      1         12           0       -5.201545    1.003789    0.289029
      2          6           0       -4.851144   -2.307215   -0.405432
      3          6           0       -4.044866    0.355770    3.567848
      4          6           0       -4.530767    4.261198    0.594862
      5          6           0       -5.844463    1.645405   -3.206341
      6          7           0       -4.573503   -0.764117    1.389775
      7          6           0       -4.479967   -1.986237    0.981859
      8          6           0       -4.241499   -3.013130    2.145368
      9          6           0       -4.278356   -2.142192    3.458486
     10          6           0       -4.337264   -0.714988    2.812822
     11          6           0       -5.314806   -2.540705    4.510053
     12          6           0       -2.879557   -3.902245    1.918433
     13          6           0       -1.784355   -3.344145    1.024109
     14          6           0       -0.355948   -3.880696    1.117038
     15          8           0       -0.069660   -5.039528    1.531091
     16          8           0        0.540465   -2.899137    0.810106
     17          7           0       -4.388311    2.137651    1.870585
     18          6           0       -4.045454    1.724368    3.135510
     19          6           0       -3.547788    2.807941    3.865981
     20          6           0       -3.629498    3.981905    3.021835
     21          6           0       -4.171177    3.487738    1.728533
     22          6           0       -3.212047    2.665572    5.339215
     23          6           0       -3.199859    5.393701    3.460082
     24          8           0       -2.749395    5.531980    4.619547
     25          6           0       -3.266462    6.577357    2.652636
     26          7           0       -5.035987    2.747310   -1.192908
     27          6           0       -4.935101    3.946055   -0.692826
     28          6           0       -5.198415    5.066007   -1.739319
     29          6           0       -5.673436    4.236417   -2.952214
     30          6           0       -5.550962    2.732664   -2.475800
     31          6           0       -6.217995    6.066780   -1.329907
     32          6           0       -4.849344    4.558352   -4.286640
     33          6           0       -5.644464    5.306288   -5.434456
     34          7           0       -5.450414   -0.045717   -1.467772
     35          6           0       -5.738056    0.297401   -2.794771
     36          6           0       -5.856831   -0.959690   -3.597263
     37          6           0       -5.473627   -1.959643   -2.692194
     38          6           0       -5.202146   -1.369577   -1.422151
     39          6           0       -6.207775   -1.126411   -4.994818
     40          6           0       -5.231784   -3.328515   -2.647873
     41          8           0       -5.333914   -4.245369   -3.476114
     42          6           0       -4.911154   -3.638342   -1.158010
     43          6           0       -5.924340   -4.695255   -0.657739
     44          8           0       -5.679840   -5.765270   -0.126860
     45          8           0       -7.229396   -4.305663   -0.868331
     46          6           0       -8.290215   -5.239548   -0.472389
     47          6           0        1.911686   -3.350850    0.745095
     48          6           0        2.766527   -2.206976    0.469059
     49          6           0        3.720442   -1.645973    1.273952
     50          6           0        4.153139   -2.185075    2.652781
     51          6           0        4.398610   -0.383183    0.790621
     52          6           0        5.822322   -0.654362    0.274222
     53          6           0        6.147691   -0.073213   -1.106176
     54          6           0        7.654656    0.173843   -1.118710
     55          6           0        7.987632    1.133075   -2.379685
     56          6           0        8.373104   -1.214356   -1.252802
     57          6           0        9.472849   -1.370629   -0.161235
     58          6           0       10.814203   -1.906304   -0.872742
     59          6           0       11.634330   -0.618149   -1.321396
     60          6           0       11.887343   -0.702314   -2.836774
     61          6           0       13.037242   -0.621302   -0.688118
     62          6           0       13.859264    0.710681   -0.947296
     63          6           0       14.556055    1.273096    0.345441
     64          6           0       16.049772    1.517250    0.189533
     65          6           0       16.714289    1.286837    1.519728
     66          6           0       16.526092    2.877889   -0.380911
     67          1           0       -3.636686    0.061957    4.536972
     68          1           0       -4.485269    5.348652    0.680997
     69          1           0       -6.206568    1.841480   -4.217612
     70          1           0       -5.149156   -3.613926    2.208741
     71          1           0       -3.317097   -2.133946    3.973248
     72          1           0       -6.055405   -1.747853    4.613102
     73          1           0       -4.868720   -2.685284    5.494708
     74          1           0       -5.821831   -3.490291    4.338604
     75          1           0       -3.300888   -4.845204    1.569194
     76          1           0       -2.291115   -4.089079    2.816983
     77          1           0       -1.788303   -2.282568    1.269994
     78          1           0       -2.175020   -3.430707    0.010052
     79          1           0       -3.695460    3.313066    6.071225
     80          1           0       -2.128595    2.707345    5.453401
     81          1           0       -3.462676    1.655071    5.661399
     82          1           0       -4.247065    6.902484    2.305512
     83          1           0       -2.777463    6.409364    1.693601
     84          1           0       -2.721454    7.423373    3.070192
     85          1           0       -4.371198    5.712394   -2.032278
     86          1           0       -6.742276    4.329153   -3.145159
     87          1           0       -5.818872    7.034199   -1.025507
     88          1           0       -6.695363    5.768769   -0.395728
     89          1           0       -6.941643    6.215634   -2.131163
     90          1           0       -4.567876    3.608748   -4.743774
     91          1           0       -3.996942    5.220523   -4.140993
     92          1           0       -5.039909    6.124416   -5.823950
     93          1           0       -6.502439    5.800202   -4.978173
     94          1           0       -5.766286    4.560258   -6.219976
     95          1           0       -6.888057   -0.299825   -5.201261
     96          1           0       -6.727563   -2.072401   -5.150737
     97          1           0       -5.266265   -1.164971   -5.541899
     98          1           0       -4.025911   -4.260795   -1.029682
     99          1           0       -9.179003   -5.017930   -1.063490
    100          1           0       -8.652242   -5.201936    0.554918
    101          1           0       -8.006122   -6.289086   -0.554397
    102          1           0        1.924584   -4.134033   -0.012226
    103          1           0        2.295367   -3.900286    1.604397
    104          1           0        2.507198   -1.747075   -0.484191
    105          1           0        3.594672   -1.686154    3.445468
    106          1           0        5.236837   -2.121896    2.746117
    107          1           0        4.021788   -3.265450    2.705269
    108          1           0        4.507446    0.268689    1.656682
    109          1           0        3.871633    0.228335    0.058680
    110          1           0        5.829297   -1.727656    0.088333
    111          1           0        6.583627   -0.424684    1.021428
    112          1           0        5.552714    0.803949   -1.357765
    113          1           0        5.959305   -0.721873   -1.961728
    114          1           0        7.951415    0.602472   -0.161920
    115          1           0        8.803257    0.675565   -2.941012
    116          1           0        8.232466    2.107947   -1.959055
    117          1           0        7.105170    1.214672   -3.014752
    118          1           0        8.757885   -1.479159   -2.237786
    119          1           0        7.655394   -2.023162   -1.113827
    120          1           0        9.236794   -2.166370    0.546443
    121          1           0        9.722131   -0.472854    0.404657
    122          1           0       10.530793   -2.517943   -1.729637
    123          1           0       11.511061   -2.465107   -0.248167
    124          1           0       11.217937    0.347431   -1.032862
    125          1           0       12.736593   -1.362793   -3.013375
    126          1           0       12.167381    0.300378   -3.159383
    127          1           0       10.988964   -1.052262   -3.346635
    128          1           0       13.556007   -1.507576   -1.053251
    129          1           0       12.968590   -0.702264    0.396853
    130          1           0       13.200952    1.487232   -1.337747
    131          1           0       14.586104    0.376522   -1.687734
    132          1           0       14.381205    0.583616    1.171472
    133          1           0       14.189011    2.288351    0.493810
    134          1           0       16.502665    0.774894   -0.467040
    135          1           0       16.091575    1.215720    2.411746
    136          1           0       17.498260    2.006680    1.753028
    137          1           0       17.156914    0.294491    1.436924
    138          1           0       16.782082    3.562554    0.427658
    139          1           0       15.780773    3.342077   -1.025402
    140          1           0       17.452899    2.784077   -0.946858
 ---------------------------------------------------------------------

 SCF Done:  E(RCAM-B3LYP) =  -3007.13960809     A.U. after   19 cycles

 Excitation energies and oscillator strengths:

 Excited State   1:      Singlet-A      1.7050 eV  727.19 nm  f=0.4197  <S**2>=0.000
     245 -> 248       -0.16077
     246 -> 247        0.68886
     245 <- 248       -0.10276
 This state for optimization and/or second-order correction.
 Total Energy, E(TD-HF/TD-DFT) =  -3007.07695129
 Copying the excited state density for this state as the 1-particle RhoCI density.

 Excited State   2:      Singlet-A      2.2508 eV  550.84 nm  f=0.1173  <S**2>=0.000
     245 -> 247        0.64246
     246 -> 248        0.27193

 Excited State   3:      Singlet-A      3.1623 eV  392.07 nm  f=0.0077  <S**2>=0.000
     244 -> 247        0.68674

 Excited State   4:      Singlet-A      3.2689 eV  379.29 nm  f=0.0042  <S**2>=0.000
     239 -> 247        0.31023
     239 -> 249       -0.19237
     240 -> 247        0.48577
     240 -> 249       -0.25217
     241 -> 247        0.12689
     246 -> 248       -0.11733

 Excited State   5:      Singlet-A      3.4267 eV  361.82 nm  f=0.0158  <S**2>=0.000
     241 -> 247        0.40823
     242 -> 247        0.42786
     242 -> 248        0.10026
     242 -> 249        0.14474
     242 -> 251        0.22786
     246 -> 248       -0.16016

 The electronic state is 1-A.
 Alpha  occ. eigenvalues --  -46.90368 -19.25507 -19.24881 -19.20084 -19.19610
 Alpha  occ. eigenvalues --  -19.19014 -19.17486 -14.43254 -14.41986 -14.40594
 Alpha  occ. eigenvalues --  -14.39877 -10.39769 -10.39709 -10.34766 -10.34323
 Alpha  occ. eigenvalues --  -10.33065 -10.31823 -10.31474 -10.31323 -10.30862
 Alpha  occ. eigenvalues --  -10.30813 -10.30792 -10.30707 -10.30438 -10.29687
 Alpha  occ. eigenvalues --  -10.29360 -10.29330 -10.29087 -10.28889 -10.28527
 Alpha  occ. eigenvalues --  -10.28328 -10.27952 -10.27782 -10.27621 -10.27240
 Alpha  occ. eigenvalues --  -10.27235 -10.27157 -10.27116 -10.27099 -10.26974
 Alpha  occ. eigenvalues --  -10.26952 -10.26768 -10.26442 -10.26383 -10.26213
 Alpha  occ. eigenvalues --  -10.26062 -10.25805 -10.25717 -10.25664 -10.25392
 Alpha  occ. eigenvalues --  -10.25281 -10.25163 -10.25070 -10.24961 -10.24948
 Alpha  occ. eigenvalues --  -10.24944 -10.24874 -10.24824 -10.24808 -10.24709
 Alpha  occ. eigenvalues --  -10.24676 -10.24663 -10.24412 -10.24287 -10.23960
 Alpha  occ. eigenvalues --  -10.23604  -3.18775  -1.93653  -1.93264  -1.93042
 Alpha  occ. eigenvalues --   -1.16244  -1.16121  -1.09100  -1.07680  -1.07329
 Alpha  occ. eigenvalues --   -1.06348  -1.05093  -1.04570  -1.03698  -1.02307
 Alpha  occ. eigenvalues --   -0.93062  -0.90647  -0.89745  -0.89526  -0.89489
 Alpha  occ. eigenvalues --   -0.89135  -0.88817  -0.88438  -0.88259  -0.87644
 Alpha  occ. eigenvalues --   -0.86061  -0.85035  -0.84493  -0.84227  -0.83624
 Alpha  occ. eigenvalues --   -0.82578  -0.82403  -0.81567  -0.80674  -0.80325
 Alpha  occ. eigenvalues --   -0.79502  -0.78706  -0.77968  -0.77367  -0.76401
 Alpha  occ. eigenvalues --   -0.75730  -0.75347  -0.75300  -0.74166  -0.73787
 Alpha  occ. eigenvalues --   -0.73553  -0.72970  -0.71982  -0.70076  -0.69513
 Alpha  occ. eigenvalues --   -0.68967  -0.67900  -0.67229  -0.66518  -0.66104
 Alpha  occ. eigenvalues --   -0.65981  -0.65304  -0.65109  -0.64680  -0.64200
 Alpha  occ. eigenvalues --   -0.63698  -0.63343  -0.62932  -0.62519  -0.60961
 Alpha  occ. eigenvalues --   -0.60513  -0.59984  -0.59004  -0.58595  -0.58172
 Alpha  occ. eigenvalues --   -0.57410  -0.57080  -0.56903  -0.56355  -0.55714
 Alpha  occ. eigenvalues --   -0.55493  -0.54866  -0.54544  -0.54334  -0.53930
 Alpha  occ. eigenvalues --   -0.53668  -0.53562  -0.53543  -0.53205  -0.52843
 Alpha  occ. eigenvalues --   -0.52652  -0.52589  -0.52459  -0.52355  -0.51663
 Alpha  occ. eigenvalues --   -0.51510  -0.51308  -0.51035  -0.50919  -0.50743
 Alpha  occ. eigenvalues --   -0.50401  -0.50300  -0.50178  -0.49891  -0.49641
 Alpha  occ. eigenvalues --   -0.49488  -0.49287  -0.49258  -0.49015  -0.48789
 Alpha  occ. eigenvalues --   -0.48663  -0.48456  -0.48129  -0.47782  -0.47619
 Alpha  occ. eigenvalues --   -0.47450  -0.47404  -0.47165  -0.46938  -0.46858
 Alpha  occ. eigenvalues --   -0.46744  -0.46225  -0.46148  -0.45965  -0.45775
 Alpha  occ. eigenvalues --   -0.45571  -0.45391  -0.45217  -0.44966  -0.44930
 Alpha  occ. eigenvalues --   -0.44885  -0.44638  -0.44524  -0.44495  -0.44228
 Alpha  occ. eigenvalues --   -0.43828  -0.43630  -0.43138  -0.42840  -0.42798
 Alpha  occ. eigenvalues --   -0.42685  -0.42444  -0.42091  -0.42030  -0.41916
 Alpha  occ. eigenvalues --   -0.41809  -0.41429  -0.41295  -0.41075  -0.40933
 Alpha  occ. eigenvalues --   -0.40772  -0.40592  -0.40466  -0.40204  -0.40015
 Alpha  occ. eigenvalues --   -0.39818  -0.39780  -0.39268  -0.39066  -0.38973
 Alpha  occ. eigenvalues --   -0.38422  -0.38155  -0.38139  -0.38051  -0.37927
 Alpha  occ. eigenvalues --   -0.37586  -0.36610  -0.36417  -0.36376  -0.36111
 Alpha  occ. eigenvalues --   -0.35755  -0.35417  -0.35047  -0.34820  -0.34338
 Alpha  occ. eigenvalues --   -0.34100  -0.33844  -0.33305  -0.31661  -0.31120
 Alpha  occ. eigenvalues --   -0.30965  -0.30233  -0.30031  -0.29072  -0.24993
 Alpha  occ. eigenvalues --   -0.21718
 Alpha virt. eigenvalues --   -0.09578  -0.01941  -0.00071   0.00590   0.02160
 Alpha virt. eigenvalues --    0.04481   0.05040   0.05117   0.05277   0.06823
 Alpha virt. eigenvalues --    0.07277   0.08124   0.08527   0.08865   0.09367

 Mulliken charges:
               1
     1  Mg   0.826783
     2  C    0.010893
     3  C   -0.063700
     4  C   -0.034105
     5  C   -0.085097
     6  N   -0.280266
     7  C   -0.025676
     8  C   -0.007100
     9  C   -0.056049
    10  C    0.023295
    11  C    0.073020
    12  C    0.040524
    13  C    0.023745
    14  C    0.206377
    15  O   -0.268470
    16  O   -0.307789
    17  N   -0.376652
    18  C    0.139547
    19  C   -0.133757
    20  C   -0.051314
    21  C    0.179241
    22  C    0.140016
    23  C    0.018657
    24  O   -0.238802
    25  C    0.063206
    26  N   -0.229332
    27  C   -0.016312
    28  C   -0.028474
    29  C    0.002456
    30  C    0.020872
    31  C    0.047818
    32  C    0.001335
    33  C   -0.010147
    34  N   -0.376726
    35  C    0.118721
    36  C   -0.164059
    37  C    0.036049
    38  C    0.122681
    39  C    0.127081
    40  C    0.044456
    41  O   -0.183581
    42  C   -0.046031
    43  C    0.175346
    44  O   -0.210377
    45  O   -0.339718
    46  C    0.178374
    47  C    0.293789
    48  C   -0.104181
    49  C   -0.172945
    50  C    0.084082
    51  C    0.116912
    52  C   -0.009554
    53  C    0.032015
    54  C   -0.165465
    55  C    0.068075
    56  C    0.059795
    57  C    0.000045
    58  C    0.049188
    59  C   -0.160120
    60  C    0.059848
    61  C    0.003127
    62  C    0.010160
    63  C    0.070782
    64  C   -0.150382
    65  C    0.029795
    66  C    0.043428
    67  H   -0.011122
    68  H   -0.063594
    69  H   -0.026412
    70  H    0.024582
    71  H    0.012687
    72  H    0.017428
    73  H    0.013449
    74  H    0.021401
    75  H    0.036659
    76  H    0.015681
    77  H    0.036581
    78  H    0.032098
    79  H    0.037071
    80  H    0.022446
    81  H   -0.021253
    82  H    0.042320
    83  H    0.019771
    84  H    0.027614
    85  H    0.019120
    86  H    0.008252
    87  H    0.006246
    88  H    0.010363
    89  H    0.018411
    90  H    0.012556
    91  H    0.017079
    92  H    0.010678
    93  H    0.016299
    94  H    0.026565
    95  H    0.022387
    96  H    0.042845
    97  H    0.050451
    98  H    0.028160
    99  H    0.033771
   100  H    0.019978
   101  H    0.045436
   102  H    0.007563
   103  H    0.003371
   104  H   -0.007803
   105  H    0.047036
   106  H    0.015286
   107  H    0.014213
   108  H   -0.008581
   109  H    0.002516
   110  H    0.008905
   111  H    0.013443
   112  H   -0.008965
   113  H   -0.002310
   114  H    0.002441
   115  H    0.008708
   116  H    0.014510
   117  H    0.007408
   118  H   -0.005371
   119  H   -0.005795
   120  H   -0.003761
   121  H    0.010756
   122  H   -0.002795
   123  H   -0.010393
   124  H   -0.000232
   125  H    0.001083
   126  H    0.005740
   127  H    0.009476
   128  H   -0.002242
   129  H   -0.011184
   130  H    0.003902
   131  H    0.004441
   132  H    0.006927
   133  H   -0.005521
   134  H   -0.006421
   135  H    0.006150
   136  H   -0.000372
   137  H    0.000609
   138  H    0.004259
   139  H    0.003296
   140  H    0.008351
 Sum of Mulliken charges =  -0.00000

 Dipole moment (field-independent basis, Debye):
    X=             -2.3240    Y=              5.1190    Z=             -1.9661  Tot=              5.9557
 Quadrupole moment (field-independent basis, Debye-Ang):
   XX=           -351.6722   YY=           -438.8788   ZZ=           -410.8289
   XY=            -23.6014   XZ=              5.2867   YZ=            -40.2553

 Normal termination of Gaussian 16 at Wed May  4 17:01:20 2022.
