 Gaussian 16, Revision A.03,
 Gaussian 16:  ES64L-G16RevA.03 25-Dec-2016

 ---------------------------------
 #p PBE1PBE/Def2SVP td=(nstates=5)
 ---------------------------------

 -----------------------------------------------------
 step_251_chromophore_14 TDDFT with PBE1PBE functional
 -----------------------------------------------------
 Symbolic Z-matrix:
 Charge =  0 Multiplicity = 1

                         Standard orientation:
 ---------------------------------------------------------------------
 Center     Atomic      Atomic             Coordinates (Angstroms)
 Number     Number       Type             X           Y           Z
 ---------------------------------------------------------------------
      1         12           0       -5.201545    1.003789    0.289029
      2          6           0       -4.851144   -2.307215   -0.405432
      3          6           0       -4.044866    0.355770    3.567848
      4          6           0       -4.530767    4.261198    0.594862
      5          6           0       -5.844463    1.645405   -3.206341
      6          7           0       -4.573503   -0.764117    1.389775
      7          6           0       -4.479967   -1.986237    0.981859
      8          6           0       -4.241499   -3.013130    2.145368
      9          6           0       -4.278356   -2.142192    3.458486
     10          6           0       -4.337264   -0.714988    2.812822
     11          6           0       -5.314806   -2.540705    4.510053
     12          6           0       -2.879557   -3.902245    1.918433
     13          6           0       -1.784355   -3.344145    1.024109
     14          6           0       -0.355948   -3.880696    1.117038
     15          8           0       -0.069660   -5.039528    1.531091
     16          8           0        0.540465   -2.899137    0.810106
     17          7           0       -4.388311    2.137651    1.870585
     18          6           0       -4.045454    1.724368    3.135510
     19          6           0       -3.547788    2.807941    3.865981
     20          6           0       -3.629498    3.981905    3.021835
     21          6           0       -4.171177    3.487738    1.728533
     22          6           0       -3.212047    2.665572    5.339215
     23          6           0       -3.199859    5.393701    3.460082
     24          8           0       -2.749395    5.531980    4.619547
     25          6           0       -3.266462    6.577357    2.652636
     26          7           0       -5.035987    2.747310   -1.192908
     27          6           0       -4.935101    3.946055   -0.692826
     28          6           0       -5.198415    5.066007   -1.739319
     29          6           0       -5.673436    4.236417   -2.952214
     30          6           0       -5.550962    2.732664   -2.475800
     31          6           0       -6.217995    6.066780   -1.329907
     32          6           0       -4.849344    4.558352   -4.286640
     33          6           0       -5.644464    5.306288   -5.434456
     34          7           0       -5.450414   -0.045717   -1.467772
     35          6           0       -5.738056    0.297401   -2.794771
     36          6           0       -5.856831   -0.959690   -3.597263
     37          6           0       -5.473627   -1.959643   -2.692194
     38          6           0       -5.202146   -1.369577   -1.422151
     39          6           0       -6.207775   -1.126411   -4.994818
     40          6           0       -5.231784   -3.328515   -2.647873
     41          8           0       -5.333914   -4.245369   -3.476114
     42          6           0       -4.911154   -3.638342   -1.158010
     43          6           0       -5.924340   -4.695255   -0.657739
     44          8           0       -5.679840   -5.765270   -0.126860
     45          8           0       -7.229396   -4.305663   -0.868331
     46          6           0       -8.290215   -5.239548   -0.472389
     47          6           0        1.911686   -3.350850    0.745095
     48          6           0        2.766527   -2.206976    0.469059
     49          6           0        3.720442   -1.645973    1.273952
     50          6           0        4.153139   -2.185075    2.652781
     51          6           0        4.398610   -0.383183    0.790621
     52          6           0        5.822322   -0.654362    0.274222
     53          6           0        6.147691   -0.073213   -1.106176
     54          6           0        7.654656    0.173843   -1.118710
     55          6           0        7.987632    1.133075   -2.379685
     56          6           0        8.373104   -1.214356   -1.252802
     57          6           0        9.472849   -1.370629   -0.161235
     58          6           0       10.814203   -1.906304   -0.872742
     59          6           0       11.634330   -0.618149   -1.321396
     60          6           0       11.887343   -0.702314   -2.836774
     61          6           0       13.037242   -0.621302   -0.688118
     62          6           0       13.859264    0.710681   -0.947296
     63          6           0       14.556055    1.273096    0.345441
     64          6           0       16.049772    1.517250    0.189533
     65          6           0       16.714289    1.286837    1.519728
     66          6           0       16.526092    2.877889   -0.380911
     67          1           0       -3.636686    0.061957    4.536972
     68          1           0       -4.485269    5.348652    0.680997
     69          1           0       -6.206568    1.841480   -4.217612
     70          1           0       -5.149156   -3.613926    2.208741
     71          1           0       -3.317097   -2.133946    3.973248
     72          1           0       -6.055405   -1.747853    4.613102
     73          1           0       -4.868720   -2.685284    5.494708
     74          1           0       -5.821831   -3.490291    4.338604
     75          1           0       -3.300888   -4.845204    1.569194
     76          1           0       -2.291115   -4.089079    2.816983
     77          1           0       -1.788303   -2.282568    1.269994
     78          1           0       -2.175020   -3.430707    0.010052
     79          1           0       -3.695460    3.313066    6.071225
     80          1           0       -2.128595    2.707345    5.453401
     81          1           0       -3.462676    1.655071    5.661399
     82          1           0       -4.247065    6.902484    2.305512
     83          1           0       -2.777463    6.409364    1.693601
     84          1           0       -2.721454    7.423373    3.070192
     85          1           0       -4.371198    5.712394   -2.032278
     86          1           0       -6.742276    4.329153   -3.145159
     87          1           0       -5.818872    7.034199   -1.025507
     88          1           0       -6.695363    5.768769   -0.395728
     89          1           0       -6.941643    6.215634   -2.131163
     90          1           0       -4.567876    3.608748   -4.743774
     91          1           0       -3.996942    5.220523   -4.140993
     92          1           0       -5.039909    6.124416   -5.823950
     93          1           0       -6.502439    5.800202   -4.978173
     94          1           0       -5.766286    4.560258   -6.219976
     95          1           0       -6.888057   -0.299825   -5.201261
     96          1           0       -6.727563   -2.072401   -5.150737
     97          1           0       -5.266265   -1.164971   -5.541899
     98          1           0       -4.025911   -4.260795   -1.029682
     99          1           0       -9.179003   -5.017930   -1.063490
    100          1           0       -8.652242   -5.201936    0.554918
    101          1           0       -8.006122   -6.289086   -0.554397
    102          1           0        1.924584   -4.134033   -0.012226
    103          1           0        2.295367   -3.900286    1.604397
    104          1           0        2.507198   -1.747075   -0.484191
    105          1           0        3.594672   -1.686154    3.445468
    106          1           0        5.236837   -2.121896    2.746117
    107          1           0        4.021788   -3.265450    2.705269
    108          1           0        4.507446    0.268689    1.656682
    109          1           0        3.871633    0.228335    0.058680
    110          1           0        5.829297   -1.727656    0.088333
    111          1           0        6.583627   -0.424684    1.021428
    112          1           0        5.552714    0.803949   -1.357765
    113          1           0        5.959305   -0.721873   -1.961728
    114          1           0        7.951415    0.602472   -0.161920
    115          1           0        8.803257    0.675565   -2.941012
    116          1           0        8.232466    2.107947   -1.959055
    117          1           0        7.105170    1.214672   -3.014752
    118          1           0        8.757885   -1.479159   -2.237786
    119          1           0        7.655394   -2.023162   -1.113827
    120          1           0        9.236794   -2.166370    0.546443
    121          1           0        9.722131   -0.472854    0.404657
    122          1           0       10.530793   -2.517943   -1.729637
    123          1           0       11.511061   -2.465107   -0.248167
    124          1           0       11.217937    0.347431   -1.032862
    125          1           0       12.736593   -1.362793   -3.013375
    126          1           0       12.167381    0.300378   -3.159383
    127          1           0       10.988964   -1.052262   -3.346635
    128          1           0       13.556007   -1.507576   -1.053251
    129          1           0       12.968590   -0.702264    0.396853
    130          1           0       13.200952    1.487232   -1.337747
    131          1           0       14.586104    0.376522   -1.687734
    132          1           0       14.381205    0.583616    1.171472
    133          1           0       14.189011    2.288351    0.493810
    134          1           0       16.502665    0.774894   -0.467040
    135          1           0       16.091575    1.215720    2.411746
    136          1           0       17.498260    2.006680    1.753028
    137          1           0       17.156914    0.294491    1.436924
    138          1           0       16.782082    3.562554    0.427658
    139          1           0       15.780773    3.342077   -1.025402
    140          1           0       17.452899    2.784077   -0.946858
 ---------------------------------------------------------------------

 SCF Done:  E(RPBE1PBE) =  -3005.32798187     A.U. after   19 cycles

 Excitation energies and oscillator strengths:

 Excited State   1:      Singlet-A      1.8533 eV  668.98 nm  f=0.4050  <S**2>=0.000
     245 -> 248       -0.15837
     246 -> 247        0.69728
     246 <- 247       -0.12232
 This state for optimization and/or second-order correction.
 Total Energy, E(TD-HF/TD-DFT) =  -3005.25987354
 Copying the excited state density for this state as the 1-particle RhoCI density.

 Excited State   2:      Singlet-A      2.2474 eV  551.68 nm  f=0.1084  <S**2>=0.000
     245 -> 247        0.65233
     246 -> 248        0.24543

 Excited State   3:      Singlet-A      2.7616 eV  448.97 nm  f=0.0038  <S**2>=0.000
     243 -> 247        0.21220
     244 -> 247        0.65629

 Excited State   4:      Singlet-A      2.7957 eV  443.48 nm  f=0.0007  <S**2>=0.000
     241 -> 247        0.29347
     243 -> 247        0.59325
     244 -> 247       -0.16868

 Excited State   5:      Singlet-A      2.8128 eV  440.78 nm  f=0.0026  <S**2>=0.000
     241 -> 247        0.59317
     241 -> 249       -0.15528
     243 -> 247       -0.26130
     244 -> 247        0.17250

 The electronic state is 1-A.
 Alpha  occ. eigenvalues --  -46.93746 -19.26150 -19.25449 -19.20264 -19.19891
 Alpha  occ. eigenvalues --  -19.19046 -19.17904 -14.42735 -14.41443 -14.40147
 Alpha  occ. eigenvalues --  -14.39636 -10.36776 -10.36704 -10.31680 -10.31633
 Alpha  occ. eigenvalues --  -10.30596 -10.29291 -10.28901 -10.28716 -10.28634
 Alpha  occ. eigenvalues --  -10.28631 -10.28610 -10.28173 -10.27878 -10.27172
 Alpha  occ. eigenvalues --  -10.27116 -10.27080 -10.27003 -10.26395 -10.26341
 Alpha  occ. eigenvalues --  -10.26173 -10.25616 -10.25588 -10.25099 -10.25080
 Alpha  occ. eigenvalues --  -10.24851 -10.24850 -10.24824 -10.24800 -10.24644
 Alpha  occ. eigenvalues --  -10.24542 -10.24153 -10.23890 -10.23813 -10.23621
 Alpha  occ. eigenvalues --  -10.23561 -10.23558 -10.23128 -10.23113 -10.22934
 Alpha  occ. eigenvalues --  -10.22792 -10.22778 -10.22749 -10.22597 -10.22591
 Alpha  occ. eigenvalues --  -10.22517 -10.22476 -10.22442 -10.22374 -10.22266
 Alpha  occ. eigenvalues --  -10.22238 -10.22095 -10.22001 -10.21671 -10.21359
 Alpha  occ. eigenvalues --  -10.20996  -3.15735  -1.88551  -1.88142  -1.87923
 Alpha  occ. eigenvalues --   -1.11034  -1.10815  -1.03625  -1.02569  -1.02101
 Alpha  occ. eigenvalues --   -1.01150  -0.99636  -0.99155  -0.98237  -0.97160
 Alpha  occ. eigenvalues --   -0.87281  -0.84755  -0.84076  -0.83771  -0.83617
 Alpha  occ. eigenvalues --   -0.83412  -0.82972  -0.82561  -0.82462  -0.81771
 Alpha  occ. eigenvalues --   -0.80350  -0.79496  -0.78751  -0.78433  -0.77859
 Alpha  occ. eigenvalues --   -0.76870  -0.76574  -0.75772  -0.74877  -0.74575
 Alpha  occ. eigenvalues --   -0.73638  -0.73002  -0.72240  -0.71689  -0.70673
 Alpha  occ. eigenvalues --   -0.69878  -0.69750  -0.69387  -0.68286  -0.68056
 Alpha  occ. eigenvalues --   -0.67867  -0.67286  -0.66432  -0.64383  -0.63883
 Alpha  occ. eigenvalues --   -0.63297  -0.62126  -0.61722  -0.60937  -0.60456
 Alpha  occ. eigenvalues --   -0.60334  -0.59670  -0.59463  -0.59221  -0.58360
 Alpha  occ. eigenvalues --   -0.58157  -0.57824  -0.57081  -0.56664  -0.55442
 Alpha  occ. eigenvalues --   -0.54875  -0.54585  -0.53623  -0.53214  -0.52779
 Alpha  occ. eigenvalues --   -0.51824  -0.51433  -0.51270  -0.51006  -0.50316
 Alpha  occ. eigenvalues --   -0.49845  -0.49266  -0.48954  -0.48696  -0.48484
 Alpha  occ. eigenvalues --   -0.48283  -0.48077  -0.48007  -0.47728  -0.47450
 Alpha  occ. eigenvalues --   -0.47180  -0.47039  -0.46915  -0.46780  -0.46204
 Alpha  occ. eigenvalues --   -0.46069  -0.45758  -0.45605  -0.45429  -0.45345
 Alpha  occ. eigenvalues --   -0.44930  -0.44872  -0.44759  -0.44435  -0.44185
 Alpha  occ. eigenvalues --   -0.44053  -0.43913  -0.43880  -0.43609  -0.43440
 Alpha  occ. eigenvalues --   -0.43294  -0.43133  -0.42724  -0.42532  -0.42223
 Alpha  occ. eigenvalues --   -0.42130  -0.42051  -0.41862  -0.41545  -0.41511
 Alpha  occ. eigenvalues --   -0.41369  -0.41026  -0.40769  -0.40718  -0.40517
 Alpha  occ. eigenvalues --   -0.40246  -0.40098  -0.39993  -0.39647  -0.39579
 Alpha  occ. eigenvalues --   -0.39570  -0.39361  -0.39176  -0.39082  -0.38994
 Alpha  occ. eigenvalues --   -0.38641  -0.38419  -0.37871  -0.37718  -0.37558
 Alpha  occ. eigenvalues --   -0.37473  -0.37376  -0.36957  -0.36806  -0.36677
 Alpha  occ. eigenvalues --   -0.36558  -0.36266  -0.36026  -0.35849  -0.35755
 Alpha  occ. eigenvalues --   -0.35642  -0.35372  -0.35214  -0.35026  -0.34978
 Alpha  occ. eigenvalues --   -0.34688  -0.34536  -0.34049  -0.34021  -0.33716
 Alpha  occ. eigenvalues --   -0.33193  -0.33132  -0.32952  -0.32938  -0.32834
 Alpha  occ. eigenvalues --   -0.32557  -0.31692  -0.31299  -0.31279  -0.31028
 Alpha  occ. eigenvalues --   -0.30550  -0.30302  -0.29984  -0.29820  -0.29676
 Alpha  occ. eigenvalues --   -0.29285  -0.28578  -0.28283  -0.27189  -0.26423
 Alpha  occ. eigenvalues --   -0.25887  -0.25337  -0.25095  -0.24876  -0.21847
 Alpha  occ. eigenvalues --   -0.19361
 Alpha virt. eigenvalues --   -0.11980  -0.05467  -0.04227  -0.02402  -0.02069
 Alpha virt. eigenvalues --   -0.00104   0.00466   0.00541   0.00840   0.02865
 Alpha virt. eigenvalues --    0.03753   0.04169   0.04957   0.05516   0.05948

 Mulliken charges:
               1
     1  Mg   0.964322
     2  C    0.013944
     3  C   -0.058760
     4  C   -0.036862
     5  C   -0.078881
     6  N   -0.382976
     7  C    0.044122
     8  C   -0.076087
     9  C   -0.123885
    10  C    0.052085
    11  C    0.015260
    12  C   -0.004564
    13  C   -0.061625
    14  C    0.269699
    15  O   -0.299892
    16  O   -0.338000
    17  N   -0.493835
    18  C    0.168293
    19  C   -0.157321
    20  C   -0.098447
    21  C    0.216841
    22  C    0.080507
    23  C    0.064896
    24  O   -0.271229
    25  C   -0.008012
    26  N   -0.333107
    27  C    0.029109
    28  C   -0.107293
    29  C   -0.071294
    30  C    0.058390
    31  C   -0.006452
    32  C   -0.056885
    33  C   -0.082149
    34  N   -0.498637
    35  C    0.138409
    36  C   -0.178295
    37  C   -0.016425
    38  C    0.165634
    39  C    0.071976
    40  C    0.131139
    41  O   -0.232499
    42  C   -0.151856
    43  C    0.267000
    44  O   -0.247916
    45  O   -0.368472
    46  C    0.124095
    47  C    0.250329
    48  C   -0.110079
    49  C   -0.226951
    50  C    0.021762
    51  C    0.058650
    52  C   -0.071958
    53  C   -0.021336
    54  C   -0.255296
    55  C    0.006856
    56  C    0.013125
    57  C   -0.065560
    58  C   -0.004991
    59  C   -0.245007
    60  C   -0.000435
    61  C   -0.050992
    62  C   -0.048070
    63  C    0.008986
    64  C   -0.238649
    65  C   -0.029497
    66  C   -0.019346
    67  H    0.018259
    68  H   -0.027042
    69  H    0.005080
    70  H    0.062494
    71  H    0.049681
    72  H    0.045197
    73  H    0.040513
    74  H    0.048249
    75  H    0.068358
    76  H    0.047276
    77  H    0.071271
    78  H    0.069907
    79  H    0.064791
    80  H    0.052346
    81  H    0.008486
    82  H    0.067980
    83  H    0.047390
    84  H    0.055815
    85  H    0.054831
    86  H    0.045172
    87  H    0.033505
    88  H    0.038424
    89  H    0.046533
    90  H    0.046060
    91  H    0.047584
    92  H    0.038677
    93  H    0.043636
    94  H    0.053520
    95  H    0.048514
    96  H    0.069188
    97  H    0.076963
    98  H    0.066209
    99  H    0.055934
   100  H    0.041693
   101  H    0.066125
   102  H    0.035724
   103  H    0.030199
   104  H    0.022394
   105  H    0.073951
   106  H    0.042791
   107  H    0.040727
   108  H    0.026545
   109  H    0.032950
   110  H    0.044088
   111  H    0.043768
   112  H    0.023541
   113  H    0.031429
   114  H    0.039224
   115  H    0.038197
   116  H    0.042266
   117  H    0.034420
   118  H    0.025025
   119  H    0.027632
   120  H    0.029822
   121  H    0.041496
   122  H    0.029523
   123  H    0.021818
   124  H    0.036704
   125  H    0.028841
   126  H    0.034217
   127  H    0.037275
   128  H    0.030176
   129  H    0.022849
   130  H    0.034675
   131  H    0.036481
   132  H    0.038279
   133  H    0.028889
   134  H    0.031831
   135  H    0.032918
   136  H    0.026991
   137  H    0.028921
   138  H    0.031567
   139  H    0.031415
   140  H    0.036219
 Sum of Mulliken charges =  -0.00000

 Dipole moment (field-independent basis, Debye):
    X=             -2.2286    Y=              5.4579    Z=             -1.5730  Tot=              6.1016
 Quadrupole moment (field-independent basis, Debye-Ang):
   XX=           -348.8097   YY=           -434.6771   ZZ=           -406.4175
   XY=            -25.0301   XZ=              3.8015   YZ=            -40.8331

 Normal termination of Gaussian 16 at Wed May  4 17:21:23 2022.
