 Gaussian 16, Revision A.03,
 Gaussian 16:  ES64L-G16RevA.03 25-Dec-2016

 --------------------------------
 #p wB97XD/Def2SVP td=(nstates=5)
 --------------------------------

 ----------------------------------------------------
 step_251_chromophore_14 TDDFT with wB97XD functional
 ----------------------------------------------------
 Symbolic Z-matrix:
 Charge =  0 Multiplicity = 1

                         Standard orientation:
 ---------------------------------------------------------------------
 Center     Atomic      Atomic             Coordinates (Angstroms)
 Number     Number       Type             X           Y           Z
 ---------------------------------------------------------------------
      1         12           0       -5.201545    1.003789    0.289029
      2          6           0       -4.851144   -2.307215   -0.405432
      3          6           0       -4.044866    0.355770    3.567848
      4          6           0       -4.530767    4.261198    0.594862
      5          6           0       -5.844463    1.645405   -3.206341
      6          7           0       -4.573503   -0.764117    1.389775
      7          6           0       -4.479967   -1.986237    0.981859
      8          6           0       -4.241499   -3.013130    2.145368
      9          6           0       -4.278356   -2.142192    3.458486
     10          6           0       -4.337264   -0.714988    2.812822
     11          6           0       -5.314806   -2.540705    4.510053
     12          6           0       -2.879557   -3.902245    1.918433
     13          6           0       -1.784355   -3.344145    1.024109
     14          6           0       -0.355948   -3.880696    1.117038
     15          8           0       -0.069660   -5.039528    1.531091
     16          8           0        0.540465   -2.899137    0.810106
     17          7           0       -4.388311    2.137651    1.870585
     18          6           0       -4.045454    1.724368    3.135510
     19          6           0       -3.547788    2.807941    3.865981
     20          6           0       -3.629498    3.981905    3.021835
     21          6           0       -4.171177    3.487738    1.728533
     22          6           0       -3.212047    2.665572    5.339215
     23          6           0       -3.199859    5.393701    3.460082
     24          8           0       -2.749395    5.531980    4.619547
     25          6           0       -3.266462    6.577357    2.652636
     26          7           0       -5.035987    2.747310   -1.192908
     27          6           0       -4.935101    3.946055   -0.692826
     28          6           0       -5.198415    5.066007   -1.739319
     29          6           0       -5.673436    4.236417   -2.952214
     30          6           0       -5.550962    2.732664   -2.475800
     31          6           0       -6.217995    6.066780   -1.329907
     32          6           0       -4.849344    4.558352   -4.286640
     33          6           0       -5.644464    5.306288   -5.434456
     34          7           0       -5.450414   -0.045717   -1.467772
     35          6           0       -5.738056    0.297401   -2.794771
     36          6           0       -5.856831   -0.959690   -3.597263
     37          6           0       -5.473627   -1.959643   -2.692194
     38          6           0       -5.202146   -1.369577   -1.422151
     39          6           0       -6.207775   -1.126411   -4.994818
     40          6           0       -5.231784   -3.328515   -2.647873
     41          8           0       -5.333914   -4.245369   -3.476114
     42          6           0       -4.911154   -3.638342   -1.158010
     43          6           0       -5.924340   -4.695255   -0.657739
     44          8           0       -5.679840   -5.765270   -0.126860
     45          8           0       -7.229396   -4.305663   -0.868331
     46          6           0       -8.290215   -5.239548   -0.472389
     47          6           0        1.911686   -3.350850    0.745095
     48          6           0        2.766527   -2.206976    0.469059
     49          6           0        3.720442   -1.645973    1.273952
     50          6           0        4.153139   -2.185075    2.652781
     51          6           0        4.398610   -0.383183    0.790621
     52          6           0        5.822322   -0.654362    0.274222
     53          6           0        6.147691   -0.073213   -1.106176
     54          6           0        7.654656    0.173843   -1.118710
     55          6           0        7.987632    1.133075   -2.379685
     56          6           0        8.373104   -1.214356   -1.252802
     57          6           0        9.472849   -1.370629   -0.161235
     58          6           0       10.814203   -1.906304   -0.872742
     59          6           0       11.634330   -0.618149   -1.321396
     60          6           0       11.887343   -0.702314   -2.836774
     61          6           0       13.037242   -0.621302   -0.688118
     62          6           0       13.859264    0.710681   -0.947296
     63          6           0       14.556055    1.273096    0.345441
     64          6           0       16.049772    1.517250    0.189533
     65          6           0       16.714289    1.286837    1.519728
     66          6           0       16.526092    2.877889   -0.380911
     67          1           0       -3.636686    0.061957    4.536972
     68          1           0       -4.485269    5.348652    0.680997
     69          1           0       -6.206568    1.841480   -4.217612
     70          1           0       -5.149156   -3.613926    2.208741
     71          1           0       -3.317097   -2.133946    3.973248
     72          1           0       -6.055405   -1.747853    4.613102
     73          1           0       -4.868720   -2.685284    5.494708
     74          1           0       -5.821831   -3.490291    4.338604
     75          1           0       -3.300888   -4.845204    1.569194
     76          1           0       -2.291115   -4.089079    2.816983
     77          1           0       -1.788303   -2.282568    1.269994
     78          1           0       -2.175020   -3.430707    0.010052
     79          1           0       -3.695460    3.313066    6.071225
     80          1           0       -2.128595    2.707345    5.453401
     81          1           0       -3.462676    1.655071    5.661399
     82          1           0       -4.247065    6.902484    2.305512
     83          1           0       -2.777463    6.409364    1.693601
     84          1           0       -2.721454    7.423373    3.070192
     85          1           0       -4.371198    5.712394   -2.032278
     86          1           0       -6.742276    4.329153   -3.145159
     87          1           0       -5.818872    7.034199   -1.025507
     88          1           0       -6.695363    5.768769   -0.395728
     89          1           0       -6.941643    6.215634   -2.131163
     90          1           0       -4.567876    3.608748   -4.743774
     91          1           0       -3.996942    5.220523   -4.140993
     92          1           0       -5.039909    6.124416   -5.823950
     93          1           0       -6.502439    5.800202   -4.978173
     94          1           0       -5.766286    4.560258   -6.219976
     95          1           0       -6.888057   -0.299825   -5.201261
     96          1           0       -6.727563   -2.072401   -5.150737
     97          1           0       -5.266265   -1.164971   -5.541899
     98          1           0       -4.025911   -4.260795   -1.029682
     99          1           0       -9.179003   -5.017930   -1.063490
    100          1           0       -8.652242   -5.201936    0.554918
    101          1           0       -8.006122   -6.289086   -0.554397
    102          1           0        1.924584   -4.134033   -0.012226
    103          1           0        2.295367   -3.900286    1.604397
    104          1           0        2.507198   -1.747075   -0.484191
    105          1           0        3.594672   -1.686154    3.445468
    106          1           0        5.236837   -2.121896    2.746117
    107          1           0        4.021788   -3.265450    2.705269
    108          1           0        4.507446    0.268689    1.656682
    109          1           0        3.871633    0.228335    0.058680
    110          1           0        5.829297   -1.727656    0.088333
    111          1           0        6.583627   -0.424684    1.021428
    112          1           0        5.552714    0.803949   -1.357765
    113          1           0        5.959305   -0.721873   -1.961728
    114          1           0        7.951415    0.602472   -0.161920
    115          1           0        8.803257    0.675565   -2.941012
    116          1           0        8.232466    2.107947   -1.959055
    117          1           0        7.105170    1.214672   -3.014752
    118          1           0        8.757885   -1.479159   -2.237786
    119          1           0        7.655394   -2.023162   -1.113827
    120          1           0        9.236794   -2.166370    0.546443
    121          1           0        9.722131   -0.472854    0.404657
    122          1           0       10.530793   -2.517943   -1.729637
    123          1           0       11.511061   -2.465107   -0.248167
    124          1           0       11.217937    0.347431   -1.032862
    125          1           0       12.736593   -1.362793   -3.013375
    126          1           0       12.167381    0.300378   -3.159383
    127          1           0       10.988964   -1.052262   -3.346635
    128          1           0       13.556007   -1.507576   -1.053251
    129          1           0       12.968590   -0.702264    0.396853
    130          1           0       13.200952    1.487232   -1.337747
    131          1           0       14.586104    0.376522   -1.687734
    132          1           0       14.381205    0.583616    1.171472
    133          1           0       14.189011    2.288351    0.493810
    134          1           0       16.502665    0.774894   -0.467040
    135          1           0       16.091575    1.215720    2.411746
    136          1           0       17.498260    2.006680    1.753028
    137          1           0       17.156914    0.294491    1.436924
    138          1           0       16.782082    3.562554    0.427658
    139          1           0       15.780773    3.342077   -1.025402
    140          1           0       17.452899    2.784077   -0.946858
 ---------------------------------------------------------------------

 SCF Done:  E(RwB97XD) =  -3007.83564288     A.U. after   19 cycles

 Excitation energies and oscillator strengths:

 Excited State   1:      Singlet-A      1.6536 eV  749.80 nm  f=0.4186  <S**2>=0.000
     245 -> 248       -0.16625
     246 -> 247        0.68671
     245 <- 248       -0.11156
 This state for optimization and/or second-order correction.
 Total Energy, E(TD-HF/TD-DFT) =  -3007.77487579
 Copying the excited state density for this state as the 1-particle RhoCI density.

 Excited State   2:      Singlet-A      2.1979 eV  564.09 nm  f=0.1138  <S**2>=0.000
     245 -> 247        0.64066
     246 -> 248        0.27477

 Excited State   3:      Singlet-A      3.2223 eV  384.77 nm  f=0.0078  <S**2>=0.000
     241 -> 247        0.15813
     244 -> 247        0.66833
     244 -> 249        0.10498

 Excited State   4:      Singlet-A      3.2829 eV  377.67 nm  f=0.0058  <S**2>=0.000
     239 -> 247       -0.23674
     239 -> 249        0.16015
     240 -> 247       -0.29418
     240 -> 249        0.19682
     241 -> 247        0.42877
     241 -> 249       -0.21629
     244 -> 247       -0.11272
     246 -> 248        0.12845

 Excited State   5:      Singlet-A      3.4390 eV  360.52 nm  f=0.0456  <S**2>=0.000
     240 -> 247        0.47070
     241 -> 247        0.33380
     242 -> 247       -0.19008
     246 -> 248        0.25676

 The electronic state is 1-A.
 Alpha  occ. eigenvalues --  -46.96717 -19.30748 -19.30145 -19.25058 -19.24581
 Alpha  occ. eigenvalues --  -19.24156 -19.22447 -14.47859 -14.46551 -14.45228
 Alpha  occ. eigenvalues --  -14.44420 -10.43612 -10.43601 -10.38842 -10.38217
 Alpha  occ. eigenvalues --  -10.37131 -10.35956 -10.35376 -10.35238 -10.34794
 Alpha  occ. eigenvalues --  -10.34749 -10.34718 -10.34668 -10.34532 -10.33908
 Alpha  occ. eigenvalues --  -10.33572 -10.33426 -10.32999 -10.32996 -10.32601
 Alpha  occ. eigenvalues --  -10.32368 -10.31963 -10.31785 -10.31647 -10.31196
 Alpha  occ. eigenvalues --  -10.31183 -10.31142 -10.31123 -10.31099 -10.30959
 Alpha  occ. eigenvalues --  -10.30879 -10.30794 -10.30270 -10.30227 -10.30043
 Alpha  occ. eigenvalues --  -10.29904 -10.29797 -10.29776 -10.29520 -10.29308
 Alpha  occ. eigenvalues --  -10.29188 -10.29089 -10.29036 -10.28875 -10.28872
 Alpha  occ. eigenvalues --  -10.28818 -10.28811 -10.28765 -10.28737 -10.28626
 Alpha  occ. eigenvalues --  -10.28580 -10.28499 -10.28341 -10.28095 -10.27797
 Alpha  occ. eigenvalues --  -10.27407  -3.22589  -1.96149  -1.95739  -1.95521
 Alpha  occ. eigenvalues --   -1.18444  -1.18324  -1.11402  -1.09817  -1.09572
 Alpha  occ. eigenvalues --   -1.08541  -1.07108  -1.06567  -1.05771  -1.04282
 Alpha  occ. eigenvalues --   -0.95107  -0.92428  -0.91672  -0.91338  -0.91283
 Alpha  occ. eigenvalues --   -0.91026  -0.90636  -0.90390  -0.90146  -0.89420
 Alpha  occ. eigenvalues --   -0.87939  -0.86918  -0.86396  -0.86079  -0.85479
 Alpha  occ. eigenvalues --   -0.84474  -0.84231  -0.83537  -0.82535  -0.82276
 Alpha  occ. eigenvalues --   -0.81318  -0.80652  -0.79871  -0.79293  -0.78334
 Alpha  occ. eigenvalues --   -0.77558  -0.77277  -0.77076  -0.75975  -0.75674
 Alpha  occ. eigenvalues --   -0.75489  -0.74894  -0.73960  -0.71998  -0.71560
 Alpha  occ. eigenvalues --   -0.70881  -0.69758  -0.69168  -0.68470  -0.67999
 Alpha  occ. eigenvalues --   -0.67912  -0.67150  -0.67072  -0.66654  -0.66015
 Alpha  occ. eigenvalues --   -0.65658  -0.65354  -0.64736  -0.64324  -0.62941
 Alpha  occ. eigenvalues --   -0.62414  -0.61996  -0.60973  -0.60585  -0.60150
 Alpha  occ. eigenvalues --   -0.59360  -0.58958  -0.58810  -0.58310  -0.57687
 Alpha  occ. eigenvalues --   -0.57466  -0.56753  -0.56464  -0.56168  -0.55890
 Alpha  occ. eigenvalues --   -0.55624  -0.55486  -0.55425  -0.55169  -0.54735
 Alpha  occ. eigenvalues --   -0.54613  -0.54497  -0.54369  -0.54203  -0.53553
 Alpha  occ. eigenvalues --   -0.53415  -0.53300  -0.52925  -0.52796  -0.52653
 Alpha  occ. eigenvalues --   -0.52280  -0.52257  -0.52113  -0.51807  -0.51516
 Alpha  occ. eigenvalues --   -0.51369  -0.51204  -0.51160  -0.50936  -0.50690
 Alpha  occ. eigenvalues --   -0.50559  -0.50378  -0.50011  -0.49681  -0.49513
 Alpha  occ. eigenvalues --   -0.49352  -0.49296  -0.49095  -0.48843  -0.48789
 Alpha  occ. eigenvalues --   -0.48698  -0.48124  -0.48019  -0.47916  -0.47708
 Alpha  occ. eigenvalues --   -0.47446  -0.47277  -0.47117  -0.46855  -0.46835
 Alpha  occ. eigenvalues --   -0.46801  -0.46538  -0.46422  -0.46339  -0.46174
 Alpha  occ. eigenvalues --   -0.45757  -0.45582  -0.44998  -0.44813  -0.44698
 Alpha  occ. eigenvalues --   -0.44568  -0.44340  -0.44056  -0.43987  -0.43804
 Alpha  occ. eigenvalues --   -0.43665  -0.43343  -0.43138  -0.42931  -0.42827
 Alpha  occ. eigenvalues --   -0.42673  -0.42465  -0.42323  -0.42073  -0.41998
 Alpha  occ. eigenvalues --   -0.41727  -0.41614  -0.41109  -0.40958  -0.40803
 Alpha  occ. eigenvalues --   -0.40253  -0.40186  -0.39985  -0.39882  -0.39862
 Alpha  occ. eigenvalues --   -0.39559  -0.38560  -0.38458  -0.38250  -0.38082
 Alpha  occ. eigenvalues --   -0.37581  -0.37253  -0.36899  -0.36816  -0.36368
 Alpha  occ. eigenvalues --   -0.36279  -0.35746  -0.35148  -0.33840  -0.33230
 Alpha  occ. eigenvalues --   -0.33173  -0.32071  -0.32036  -0.31178  -0.26916
 Alpha  occ. eigenvalues --   -0.23521
 Alpha virt. eigenvalues --   -0.07929  -0.00010   0.01957   0.03780   0.04314
 Alpha virt. eigenvalues --    0.06694   0.07190   0.07272   0.07606   0.09525
 Alpha virt. eigenvalues --    0.10106   0.10926   0.11702   0.12275   0.12547

 Mulliken charges:
               1
     1  Mg   0.958057
     2  C    0.000219
     3  C   -0.071521
     4  C   -0.044002
     5  C   -0.099151
     6  N   -0.349658
     7  C    0.017839
     8  C   -0.053881
     9  C   -0.099630
    10  C    0.038854
    11  C    0.023893
    12  C    0.002418
    13  C   -0.033656
    14  C    0.261158
    15  O   -0.297355
    16  O   -0.337236
    17  N   -0.458819
    18  C    0.154756
    19  C   -0.150643
    20  C   -0.094569
    21  C    0.205850
    22  C    0.091819
    23  C    0.063134
    24  O   -0.267833
    25  C   -0.000019
    26  N   -0.297763
    27  C    0.010987
    28  C   -0.080731
    29  C   -0.045992
    30  C    0.048275
    31  C    0.002536
    32  C   -0.042810
    33  C   -0.064974
    34  N   -0.464423
    35  C    0.133656
    36  C   -0.171266
    37  C   -0.012895
    38  C    0.154631
    39  C    0.081394
    40  C    0.117715
    41  O   -0.219513
    42  C   -0.111066
    43  C    0.243267
    44  O   -0.241854
    45  O   -0.369222
    46  C    0.139666
    47  C    0.265079
    48  C   -0.122932
    49  C   -0.205925
    50  C    0.033863
    51  C    0.070979
    52  C   -0.051934
    53  C   -0.004333
    54  C   -0.222912
    55  C    0.022545
    56  C    0.023139
    57  C   -0.046450
    58  C    0.010991
    59  C   -0.215695
    60  C    0.014925
    61  C   -0.031147
    62  C   -0.035935
    63  C    0.028536
    64  C   -0.211088
    65  C   -0.018702
    66  C   -0.007096
    67  H    0.012184
    68  H   -0.042759
    69  H    0.000789
    70  H    0.051591
    71  H    0.039059
    72  H    0.039118
    73  H    0.035659
    74  H    0.042488
    75  H    0.061899
    76  H    0.040595
    77  H    0.061704
    78  H    0.055741
    79  H    0.060677
    80  H    0.046702
    81  H    0.000478
    82  H    0.063587
    83  H    0.040797
    84  H    0.054588
    85  H    0.045188
    86  H    0.032615
    87  H    0.028484
    88  H    0.031469
    89  H    0.039571
    90  H    0.036062
    91  H    0.040856
    92  H    0.033255
    93  H    0.036275
    94  H    0.047849
    95  H    0.043796
    96  H    0.067127
    97  H    0.074452
    98  H    0.057125
    99  H    0.052526
   100  H    0.037674
   101  H    0.062236
   102  H    0.031116
   103  H    0.023100
   104  H    0.019998
   105  H    0.069975
   106  H    0.037434
   107  H    0.034795
   108  H    0.019112
   109  H    0.026439
   110  H    0.029176
   111  H    0.034443
   112  H    0.014395
   113  H    0.021138
   114  H    0.024806
   115  H    0.029093
   116  H    0.036957
   117  H    0.028420
   118  H    0.013419
   119  H    0.017850
   120  H    0.022697
   121  H    0.031333
   122  H    0.019784
   123  H    0.014610
   124  H    0.021916
   125  H    0.021705
   126  H    0.027265
   127  H    0.028619
   128  H    0.019788
   129  H    0.010603
   130  H    0.026247
   131  H    0.027181
   132  H    0.027766
   133  H    0.020005
   134  H    0.019949
   135  H    0.027000
   136  H    0.021139
   137  H    0.023024
   138  H    0.024456
   139  H    0.025242
   140  H    0.031003
 Sum of Mulliken charges =  -0.00000

 Dipole moment (field-independent basis, Debye):
    X=             -2.4320    Y=              5.1067    Z=             -2.0954  Tot=              6.0319
 Quadrupole moment (field-independent basis, Debye-Ang):
   XX=           -346.5464   YY=           -435.0560   ZZ=           -406.4016
   XY=            -23.1056   XZ=              6.2598   YZ=            -40.8878

 Normal termination of Gaussian 16 at Wed May  4 18:03:46 2022.
