 Gaussian 16, Revision A.03,
 Gaussian 16:  ES64L-G16RevA.03 25-Dec-2016

 --------------------
 #p ZINDO=(nstates=5)
 --------------------

 -----------------------------
 step_251_chromophore_14 ZINDO
 -----------------------------
 Symbolic Z-matrix:
 Charge =  0 Multiplicity = 1

                         Standard orientation:
 ---------------------------------------------------------------------
 Center     Atomic      Atomic             Coordinates (Angstroms)
 Number     Number       Type             X           Y           Z
 ---------------------------------------------------------------------
      1         12           0       -5.201545    1.003789    0.289029
      2          6           0       -4.851144   -2.307215   -0.405432
      3          6           0       -4.044866    0.355770    3.567848
      4          6           0       -4.530767    4.261198    0.594862
      5          6           0       -5.844463    1.645405   -3.206341
      6          7           0       -4.573503   -0.764117    1.389775
      7          6           0       -4.479967   -1.986237    0.981859
      8          6           0       -4.241499   -3.013130    2.145368
      9          6           0       -4.278356   -2.142192    3.458486
     10          6           0       -4.337264   -0.714988    2.812822
     11          6           0       -5.314806   -2.540705    4.510053
     12          6           0       -2.879557   -3.902245    1.918433
     13          6           0       -1.784355   -3.344145    1.024109
     14          6           0       -0.355948   -3.880696    1.117038
     15          8           0       -0.069660   -5.039528    1.531091
     16          8           0        0.540465   -2.899137    0.810106
     17          7           0       -4.388311    2.137651    1.870585
     18          6           0       -4.045454    1.724368    3.135510
     19          6           0       -3.547788    2.807941    3.865981
     20          6           0       -3.629498    3.981905    3.021835
     21          6           0       -4.171177    3.487738    1.728533
     22          6           0       -3.212047    2.665572    5.339215
     23          6           0       -3.199859    5.393701    3.460082
     24          8           0       -2.749395    5.531980    4.619547
     25          6           0       -3.266462    6.577357    2.652636
     26          7           0       -5.035987    2.747310   -1.192908
     27          6           0       -4.935101    3.946055   -0.692826
     28          6           0       -5.198415    5.066007   -1.739319
     29          6           0       -5.673436    4.236417   -2.952214
     30          6           0       -5.550962    2.732664   -2.475800
     31          6           0       -6.217995    6.066780   -1.329907
     32          6           0       -4.849344    4.558352   -4.286640
     33          6           0       -5.644464    5.306288   -5.434456
     34          7           0       -5.450414   -0.045717   -1.467772
     35          6           0       -5.738056    0.297401   -2.794771
     36          6           0       -5.856831   -0.959690   -3.597263
     37          6           0       -5.473627   -1.959643   -2.692194
     38          6           0       -5.202146   -1.369577   -1.422151
     39          6           0       -6.207775   -1.126411   -4.994818
     40          6           0       -5.231784   -3.328515   -2.647873
     41          8           0       -5.333914   -4.245369   -3.476114
     42          6           0       -4.911154   -3.638342   -1.158010
     43          6           0       -5.924340   -4.695255   -0.657739
     44          8           0       -5.679840   -5.765270   -0.126860
     45          8           0       -7.229396   -4.305663   -0.868331
     46          6           0       -8.290215   -5.239548   -0.472389
     47          6           0        1.911686   -3.350850    0.745095
     48          6           0        2.766527   -2.206976    0.469059
     49          6           0        3.720442   -1.645973    1.273952
     50          6           0        4.153139   -2.185075    2.652781
     51          6           0        4.398610   -0.383183    0.790621
     52          6           0        5.822322   -0.654362    0.274222
     53          6           0        6.147691   -0.073213   -1.106176
     54          6           0        7.654656    0.173843   -1.118710
     55          6           0        7.987632    1.133075   -2.379685
     56          6           0        8.373104   -1.214356   -1.252802
     57          6           0        9.472849   -1.370629   -0.161235
     58          6           0       10.814203   -1.906304   -0.872742
     59          6           0       11.634330   -0.618149   -1.321396
     60          6           0       11.887343   -0.702314   -2.836774
     61          6           0       13.037242   -0.621302   -0.688118
     62          6           0       13.859264    0.710681   -0.947296
     63          6           0       14.556055    1.273096    0.345441
     64          6           0       16.049772    1.517250    0.189533
     65          6           0       16.714289    1.286837    1.519728
     66          6           0       16.526092    2.877889   -0.380911
     67          1           0       -3.636686    0.061957    4.536972
     68          1           0       -4.485269    5.348652    0.680997
     69          1           0       -6.206568    1.841480   -4.217612
     70          1           0       -5.149156   -3.613926    2.208741
     71          1           0       -3.317097   -2.133946    3.973248
     72          1           0       -6.055405   -1.747853    4.613102
     73          1           0       -4.868720   -2.685284    5.494708
     74          1           0       -5.821831   -3.490291    4.338604
     75          1           0       -3.300888   -4.845204    1.569194
     76          1           0       -2.291115   -4.089079    2.816983
     77          1           0       -1.788303   -2.282568    1.269994
     78          1           0       -2.175020   -3.430707    0.010052
     79          1           0       -3.695460    3.313066    6.071225
     80          1           0       -2.128595    2.707345    5.453401
     81          1           0       -3.462676    1.655071    5.661399
     82          1           0       -4.247065    6.902484    2.305512
     83          1           0       -2.777463    6.409364    1.693601
     84          1           0       -2.721454    7.423373    3.070192
     85          1           0       -4.371198    5.712394   -2.032278
     86          1           0       -6.742276    4.329153   -3.145159
     87          1           0       -5.818872    7.034199   -1.025507
     88          1           0       -6.695363    5.768769   -0.395728
     89          1           0       -6.941643    6.215634   -2.131163
     90          1           0       -4.567876    3.608748   -4.743774
     91          1           0       -3.996942    5.220523   -4.140993
     92          1           0       -5.039909    6.124416   -5.823950
     93          1           0       -6.502439    5.800202   -4.978173
     94          1           0       -5.766286    4.560258   -6.219976
     95          1           0       -6.888057   -0.299825   -5.201261
     96          1           0       -6.727563   -2.072401   -5.150737
     97          1           0       -5.266265   -1.164971   -5.541899
     98          1           0       -4.025911   -4.260795   -1.029682
     99          1           0       -9.179003   -5.017930   -1.063490
    100          1           0       -8.652242   -5.201936    0.554918
    101          1           0       -8.006122   -6.289086   -0.554397
    102          1           0        1.924584   -4.134033   -0.012226
    103          1           0        2.295367   -3.900286    1.604397
    104          1           0        2.507198   -1.747075   -0.484191
    105          1           0        3.594672   -1.686154    3.445468
    106          1           0        5.236837   -2.121896    2.746117
    107          1           0        4.021788   -3.265450    2.705269
    108          1           0        4.507446    0.268689    1.656682
    109          1           0        3.871633    0.228335    0.058680
    110          1           0        5.829297   -1.727656    0.088333
    111          1           0        6.583627   -0.424684    1.021428
    112          1           0        5.552714    0.803949   -1.357765
    113          1           0        5.959305   -0.721873   -1.961728
    114          1           0        7.951415    0.602472   -0.161920
    115          1           0        8.803257    0.675565   -2.941012
    116          1           0        8.232466    2.107947   -1.959055
    117          1           0        7.105170    1.214672   -3.014752
    118          1           0        8.757885   -1.479159   -2.237786
    119          1           0        7.655394   -2.023162   -1.113827
    120          1           0        9.236794   -2.166370    0.546443
    121          1           0        9.722131   -0.472854    0.404657
    122          1           0       10.530793   -2.517943   -1.729637
    123          1           0       11.511061   -2.465107   -0.248167
    124          1           0       11.217937    0.347431   -1.032862
    125          1           0       12.736593   -1.362793   -3.013375
    126          1           0       12.167381    0.300378   -3.159383
    127          1           0       10.988964   -1.052262   -3.346635
    128          1           0       13.556007   -1.507576   -1.053251
    129          1           0       12.968590   -0.702264    0.396853
    130          1           0       13.200952    1.487232   -1.337747
    131          1           0       14.586104    0.376522   -1.687734
    132          1           0       14.381205    0.583616    1.171472
    133          1           0       14.189011    2.288351    0.493810
    134          1           0       16.502665    0.774894   -0.467040
    135          1           0       16.091575    1.215720    2.411746
    136          1           0       17.498260    2.006680    1.753028
    137          1           0       17.156914    0.294491    1.436924
    138          1           0       16.782082    3.562554    0.427658
    139          1           0       15.780773    3.342077   -1.025402
    140          1           0       17.452899    2.784077   -0.946858
 ---------------------------------------------------------------------

 SCF Done:  E(RZINDO/S) =  -474.170212509     A.U. after   19 cycles

 Excitation energies and oscillator strengths:

 Excited State   1:      Singlet-A      1.2787 eV  969.62 nm  f=0.6277  <S**2>=0.000
     175 ->178         0.17872
     176 ->177         0.66769
 This state for optimization and/or second-order correction.
 Total Energy, E(CIS/TDA) =  -474.123221653
 Copying the excited state density for this state as the 1-particle RhoCI density.

 Excited State   2:      Singlet-A      1.9263 eV  643.63 nm  f=0.0806  <S**2>=0.000
     175 ->177         0.57203
     176 ->178        -0.38436

 Excited State   3:      Singlet-A      2.8119 eV  440.92 nm  f=0.0036  <S**2>=0.000
     168 ->177         0.38459
     168 ->179        -0.40287
     168 ->182         0.14734
     168 ->185         0.13705
     168 ->195         0.11518
     169 ->177        -0.16968
     169 ->179         0.17818

 Excited State   4:      Singlet-A      2.9458 eV  420.89 nm  f=0.4473  <S**2>=0.000
     171 ->177         0.11801
     175 ->177         0.24682
     176 ->178         0.42890
     176 ->179         0.19976
     176 ->180        -0.41892

 Excited State   5:      Singlet-A      2.9656 eV  418.08 nm  f=0.0032  <S**2>=0.000
     170 ->177        -0.22172
     170 ->178         0.11312
     170 ->179        -0.17654
     170 ->182        -0.37620
     170 ->184         0.10203
     170 ->185         0.20080
     170 ->187         0.15931
     171 ->177        -0.15002
     171 ->179        -0.11654
     171 ->182        -0.23960
     171 ->185         0.12851
     171 ->187         0.10213

 The electronic state is 1-A.
 Alpha  occ. eigenvalues --   -1.84511  -1.80407  -1.79507  -1.73387  -1.71959
 Alpha  occ. eigenvalues --   -1.70201  -1.65899  -1.61756  -1.58728  -1.57602
 Alpha  occ. eigenvalues --   -1.56166  -1.51552  -1.48351  -1.47612  -1.46870
 Alpha  occ. eigenvalues --   -1.45086  -1.42694  -1.41689  -1.39743  -1.38186
 Alpha  occ. eigenvalues --   -1.37039  -1.36122  -1.31460  -1.30426  -1.29368
 Alpha  occ. eigenvalues --   -1.27700  -1.27223  -1.23081  -1.21198  -1.18551
 Alpha  occ. eigenvalues --   -1.16183  -1.15383  -1.14903  -1.13658  -1.12287
 Alpha  occ. eigenvalues --   -1.12014  -1.09944  -1.09046  -1.06796  -1.04888
 Alpha  occ. eigenvalues --   -1.02747  -1.01363  -0.99548  -0.97510  -0.96276
 Alpha  occ. eigenvalues --   -0.95638  -0.95272  -0.94476  -0.92990  -0.92024
 Alpha  occ. eigenvalues --   -0.90472  -0.89880  -0.88628  -0.88215  -0.88093
 Alpha  occ. eigenvalues --   -0.86291  -0.84783  -0.84291  -0.83200  -0.82502
 Alpha  occ. eigenvalues --   -0.81633  -0.79089  -0.78366  -0.77574  -0.76744
 Alpha  occ. eigenvalues --   -0.76404  -0.75718  -0.74370  -0.73713  -0.73499
 Alpha  occ. eigenvalues --   -0.72600  -0.72257  -0.71972  -0.71818  -0.70735
 Alpha  occ. eigenvalues --   -0.70510  -0.69827  -0.69476  -0.69033  -0.68033
 Alpha  occ. eigenvalues --   -0.67608  -0.67346  -0.66618  -0.66503  -0.65481
 Alpha  occ. eigenvalues --   -0.65132  -0.64706  -0.64237  -0.63121  -0.62780
 Alpha  occ. eigenvalues --   -0.62577  -0.62398  -0.62190  -0.62064  -0.61736
 Alpha  occ. eigenvalues --   -0.61353  -0.61137  -0.60988  -0.60627  -0.60214
 Alpha  occ. eigenvalues --   -0.59906  -0.59726  -0.59081  -0.58897  -0.58669
 Alpha  occ. eigenvalues --   -0.58211  -0.57418  -0.57240  -0.56666  -0.56437
 Alpha  occ. eigenvalues --   -0.56332  -0.56129  -0.55719  -0.55500  -0.54668
 Alpha  occ. eigenvalues --   -0.54565  -0.54023  -0.53875  -0.53440  -0.52810
 Alpha  occ. eigenvalues --   -0.52195  -0.52066  -0.51957  -0.51505  -0.51434
 Alpha  occ. eigenvalues --   -0.51335  -0.51079  -0.50759  -0.50605  -0.50485
 Alpha  occ. eigenvalues --   -0.50334  -0.49676  -0.49282  -0.49186  -0.49108
 Alpha  occ. eigenvalues --   -0.48914  -0.48621  -0.48311  -0.48000  -0.47724
 Alpha  occ. eigenvalues --   -0.47685  -0.47510  -0.47276  -0.47007  -0.46771
 Alpha  occ. eigenvalues --   -0.46462  -0.46427  -0.46079  -0.45866  -0.45733
 Alpha  occ. eigenvalues --   -0.45474  -0.45072  -0.44408  -0.43816  -0.43393
 Alpha  occ. eigenvalues --   -0.43263  -0.43134  -0.43128  -0.42664  -0.42202
 Alpha  occ. eigenvalues --   -0.41888  -0.41799  -0.41138  -0.39878  -0.39126
 Alpha  occ. eigenvalues --   -0.38962  -0.37709  -0.36098  -0.35907  -0.34553
 Alpha  occ. eigenvalues --   -0.34370  -0.33083  -0.31998  -0.31867  -0.27450
 Alpha  occ. eigenvalues --   -0.22672
 Alpha virt. eigenvalues --   -0.09458  -0.02468  -0.01274   0.00006   0.01006
 Alpha virt. eigenvalues --    0.01101   0.02163   0.02672   0.04078   0.04440
 Alpha virt. eigenvalues --    0.05831   0.06061   0.06673   0.07383   0.07713

 Mulliken charges:
               1
     1  Mg   0.441613
     2  C   -0.085342
     3  C   -0.045283
     4  C   -0.074261
     5  C   -0.054990
     6  N   -0.264983
     7  C    0.181370
     8  C    0.000191
     9  C   -0.004109
    10  C    0.068678
    11  C   -0.045544
    12  C   -0.026965
    13  C    0.008965
    14  C    0.468814
    15  O   -0.524854
    16  O   -0.249538
    17  N   -0.317409
    18  C    0.076663
    19  C    0.020356
    20  C   -0.071987
    21  C    0.108184
    22  C   -0.038596
    23  C    0.332799
    24  O   -0.545951
    25  C   -0.018948
    26  N   -0.277014
    27  C    0.130902
    28  C    0.003600
    29  C   -0.002102
    30  C    0.133630
    31  C   -0.051435
    32  C   -0.045263
    33  C   -0.068626
    34  N   -0.330647
    35  C    0.113883
    36  C    0.067439
    37  C   -0.046159
    38  C    0.130802
    39  C   -0.029277
    40  C    0.333012
    41  O   -0.525954
    42  C    0.051466
    43  C    0.481492
    44  O   -0.511694
    45  O   -0.268504
    46  C    0.075565
    47  C    0.109435
    48  C   -0.093976
    49  C    0.002428
    50  C   -0.040973
    51  C   -0.021778
    52  C   -0.033830
    53  C   -0.030753
    54  C   -0.022134
    55  C   -0.068201
    56  C   -0.035137
    57  C   -0.042125
    58  C   -0.049503
    59  C   -0.022840
    60  C   -0.058167
    61  C   -0.042251
    62  C   -0.049742
    63  C   -0.033358
    64  C   -0.005606
    65  C   -0.058219
    66  C   -0.055774
    67  H    0.039260
    68  H    0.020389
    69  H    0.025392
    70  H    0.043956
    71  H    0.027632
    72  H    0.022113
    73  H    0.018483
    74  H    0.024303
    75  H    0.033803
    76  H    0.034363
    77  H    0.034008
    78  H    0.042633
    79  H    0.041555
    80  H    0.032065
    81  H    0.007828
    82  H    0.039003
    83  H    0.023791
    84  H    0.036406
    85  H    0.037960
    86  H    0.033861
    87  H    0.013603
    88  H    0.018120
    89  H    0.020754
    90  H    0.021055
    91  H    0.029749
    92  H    0.016118
    93  H    0.027291
    94  H    0.029849
    95  H    0.029491
    96  H    0.042150
    97  H    0.050648
    98  H    0.056335
    99  H    0.030203
   100  H    0.035079
   101  H    0.051232
   102  H    0.038641
   103  H    0.045754
   104  H    0.024891
   105  H    0.040761
   106  H    0.024773
   107  H    0.022185
   108  H    0.012363
   109  H    0.026492
   110  H    0.016574
   111  H    0.029322
   112  H    0.013468
   113  H    0.019292
   114  H    0.030090
   115  H    0.024253
   116  H    0.020889
   117  H    0.023094
   118  H    0.027562
   119  H    0.013798
   120  H    0.013181
   121  H    0.029283
   122  H    0.024805
   123  H    0.021610
   124  H    0.029342
   125  H    0.023163
   126  H    0.013124
   127  H    0.017006
   128  H    0.020370
   129  H    0.007920
   130  H    0.023593
   131  H    0.021821
   132  H    0.030760
   133  H    0.022104
   134  H    0.015450
   135  H    0.017420
   136  H    0.015137
   137  H    0.008108
   138  H    0.017769
   139  H    0.015270
   140  H    0.016597
 Sum of Mulliken charges =  -0.00000

 Dipole moment (field-independent basis, Debye):
    X=             -3.5776    Y=              5.8423    Z=             -5.1724  Tot=              8.5841
 N-N= 4.286095060672D+03 E-N= 0.000000000000D+00  KE=-9.245744146380D+03
 Leave Link  601 at Wed May  4 18:23:24 2022, MaxMem=  6710886400 cpu:               0.7 elap:               0.0
 (Enter /sw/apps/gaussian-16.0/g16/l9999.exe)
 1\1\GINC-BP1-COMPUTE135\SP\RZINDO CIS\STO-3G\C55H74Mg1N4O6\OF15641\04-
 May-2022\0\\#p ZINDO=(nstates=5)\\step_251_chromophore_14 ZINDO\\0,1\M
 g,0,46.351,44.492,43.307\C,0,43.076,43.62,43.021\C,0,47.225,41.165,42.
 485\C,0,49.413,45.585,42.543\C,0,45.379,47.958,43.598\N,0,45.255,42.66
 9,42.852\C,0,43.979,42.486,42.768\C,0,43.573,40.972,42.678\C,0,44.934,
 40.187,42.803\C,0,45.929,41.397,42.747\C,0,45.034,39.177,43.947\C,0,42
 .684,40.647,41.336\C,0,42.797,41.581,40.142\C,0,42.366,41.119,38.75\O,

 Normal termination of Gaussian 16 at Wed May  4 18:23:25 2022.
