 Gaussian 16, Revision A.03,
 Gaussian 16:  ES64L-G16RevA.03 25-Dec-2016

 ------------------------------
 #p blyp/Def2SVP td=(nstates=5)
 ------------------------------

 -------------------------------------------------
 step_851_chromophore_5 TDDFT with blyp functional
 -------------------------------------------------
 Symbolic Z-matrix:
 Charge =  0 Multiplicity = 1

                         Standard orientation:
 ---------------------------------------------------------------------
 Center     Atomic      Atomic             Coordinates (Angstroms)
 Number     Number       Type             X           Y           Z
 ---------------------------------------------------------------------
      1         12           0        5.403139    0.588261   -0.222899
      2          6           0        4.531659   -2.664282    0.258242
      3          6           0        3.162128    0.672239   -2.850964
      4          6           0        5.446479    3.916491   -0.108325
      5          6           0        7.074800    0.429806    2.784845
      6          7           0        3.785347   -0.725645   -0.959643
      7          6           0        3.713696   -2.061594   -0.675107
      8          6           0        2.754256   -2.838127   -1.515640
      9          6           0        2.745571   -1.891808   -2.770585
     10          6           0        3.279336   -0.554297   -2.175191
     11          6           0        3.534928   -2.315605   -4.051679
     12          6           0        1.443315   -2.883475   -0.703805
     13          6           0        0.136499   -3.516735   -1.370955
     14          6           0       -1.066676   -2.617378   -1.894007
     15          8           0       -1.145983   -2.192671   -3.047525
     16          8           0       -2.115448   -2.491968   -0.990754
     17          7           0        4.467200    2.141014   -1.432767
     18          6           0        3.633814    1.923530   -2.467699
     19          6           0        3.404319    3.148320   -3.096627
     20          6           0        3.949330    4.251270   -2.255737
     21          6           0        4.673967    3.489738   -1.228261
     22          6           0        2.538879    3.160222   -4.365731
     23          6           0        3.724969    5.741319   -2.477734
     24          8           0        3.123337    6.076888   -3.468060
     25          6           0        4.100756    6.779096   -1.493127
     26          7           0        6.050455    1.912100    1.156707
     27          6           0        6.127338    3.237481    0.907863
     28          6           0        7.079872    3.983101    1.860225
     29          6           0        7.307159    2.930424    2.986077
     30          6           0        6.802530    1.664484    2.280181
     31          6           0        8.365120    4.569662    1.146839
     32          6           0        6.524369    3.093010    4.293009
     33          6           0        7.228846    3.513070    5.536198
     34          7           0        5.950527   -0.843595    1.195093
     35          6           0        6.676854   -0.823421    2.275327
     36          6           0        6.995677   -2.118150    2.763905
     37          6           0        6.153388   -2.935053    1.976953
     38          6           0        5.492705   -2.057928    1.083987
     39          6           0        7.807633   -2.462527    3.906912
     40          6           0        5.708219   -4.337051    1.628279
     41          8           0        6.047266   -5.451168    2.077797
     42          6           0        4.557038   -4.152062    0.500664
     43          6           0        5.082648   -5.055612   -0.625302
     44          8           0        4.707387   -6.159258   -0.982545
     45          8           0        6.063013   -4.378477   -1.318312
     46          6           0        6.456664   -4.756659   -2.701129
     47          6           0       -3.344963   -1.952519   -1.640713
     48          6           0       -3.816378   -0.589040   -1.218205
     49          6           0       -4.413734   -0.221393   -0.051866
     50          6           0       -4.789297   -1.106989    1.139033
     51          6           0       -4.843375    1.224019    0.171001
     52          6           0       -6.154943    1.692556   -0.527038
     53          6           0       -7.152333    2.382250    0.351487
     54          6           0       -8.441357    1.534836    0.601164
     55          6           0       -9.760893    2.332328    0.618712
     56          6           0       -8.461986    0.711736    1.942641
     57          6           0       -9.171262   -0.658944    1.754385
     58          6           0      -10.443135   -0.694589    2.615954
     59          6           0      -11.722216   -0.943386    1.822975
     60          6           0      -11.752800   -2.481405    1.743363
     61          6           0      -12.956462   -0.259324    2.477213
     62          6           0      -14.221807   -0.324684    1.598688
     63          6           0      -14.335006    0.949033    0.692744
     64          6           0      -14.315879    0.524374   -0.818635
     65          6           0      -13.090212    0.895377   -1.656677
     66          6           0      -15.714989    0.780214   -1.399976
     67          1           0        2.601550    0.565428   -3.782084
     68          1           0        5.589774    4.986740    0.057130
     69          1           0        7.694133    0.398422    3.682518
     70          1           0        3.105005   -3.839038   -1.768425
     71          1           0        1.715103   -1.752672   -3.096465
     72          1           0        3.954845   -3.317036   -3.956641
     73          1           0        4.415026   -1.678665   -4.134846
     74          1           0        2.955552   -2.097533   -4.949020
     75          1           0        1.206976   -1.849111   -0.453683
     76          1           0        1.669683   -3.524723    0.147442
     77          1           0       -0.269250   -4.256951   -0.681808
     78          1           0        0.534051   -3.989137   -2.269162
     79          1           0        1.513628    3.456366   -4.140431
     80          1           0        2.446758    2.218845   -4.906696
     81          1           0        3.066073    3.785630   -5.085715
     82          1           0        5.158095    7.032917   -1.565255
     83          1           0        3.787759    6.416183   -0.514759
     84          1           0        3.634816    7.703010   -1.834811
     85          1           0        6.419085    4.773981    2.212933
     86          1           0        8.351247    2.878071    3.292228
     87          1           0        9.151925    3.815447    1.103754
     88          1           0        8.639738    5.473803    1.689281
     89          1           0        8.203043    4.738208    0.081434
     90          1           0        6.088166    2.122962    4.531822
     91          1           0        5.764900    3.859363    4.132417
     92          1           0        7.026286    2.830277    6.361278
     93          1           0        6.882050    4.490026    5.873431
     94          1           0        8.283849    3.387538    5.292725
     95          1           0        8.618992   -1.751728    4.062007
     96          1           0        8.184343   -3.468437    3.720566
     97          1           0        7.116482   -2.485606    4.749305
     98          1           0        3.667520   -4.618455    0.925488
     99          1           0        5.792375   -4.379893   -3.479024
    100          1           0        6.776602   -5.797626   -2.754546
    101          1           0        7.402396   -4.251203   -2.895996
    102          1           0       -4.134330   -2.605212   -1.266257
    103          1           0       -3.341494   -1.906485   -2.730263
    104          1           0       -3.737435    0.202316   -1.962595
    105          1           0       -5.702875   -0.826710    1.662437
    106          1           0       -4.016064   -1.145462    1.907039
    107          1           0       -5.023260   -2.084948    0.718275
    108          1           0       -4.084084    1.898373   -0.227627
    109          1           0       -4.806982    1.411819    1.243756
    110          1           0       -6.580205    0.971822   -1.225554
    111          1           0       -5.773983    2.531781   -1.108739
    112          1           0       -7.352249    3.319173   -0.167806
    113          1           0       -6.652470    2.651455    1.282714
    114          1           0       -8.523595    0.842857   -0.236477
    115          1           0      -10.304505    2.388096    1.560912
    116          1           0      -10.399976    1.864530   -0.129964
    117          1           0       -9.593316    3.362828    0.305828
    118          1           0       -8.977750    1.340684    2.669041
    119          1           0       -7.465706    0.658393    2.381444
    120          1           0       -8.377503   -1.332976    2.079360
    121          1           0       -9.303580   -1.048573    0.744443
    122          1           0      -10.562788    0.289238    3.069409
    123          1           0      -10.310761   -1.497903    3.341910
    124          1           0      -11.594328   -0.557156    0.812187
    125          1           0      -12.438847   -2.770037    2.539276
    126          1           0      -10.815576   -3.024375    1.869430
    127          1           0      -12.128841   -2.660520    0.736441
    128          1           0      -12.692282    0.769848    2.719393
    129          1           0      -13.088433   -0.568209    3.514442
    130          1           0      -15.097179   -0.398756    2.244035
    131          1           0      -14.258352   -1.180765    0.924015
    132          1           0      -13.476602    1.609136    0.810440
    133          1           0      -15.268128    1.402733    1.027424
    134          1           0      -14.245309   -0.546705   -1.006355
    135          1           0      -13.432373    1.669408   -2.343323
    136          1           0      -12.651014    0.022462   -2.139513
    137          1           0      -12.327573    1.389464   -1.055388
    138          1           0      -15.592147    1.091820   -2.437722
    139          1           0      -16.314327    1.559684   -0.927553
    140          1           0      -16.221629   -0.177206   -1.519559
 ---------------------------------------------------------------------

 SCF Done:  E(RB-LYP) =  -3007.31150243     A.U. after   20 cycles

 Excitation energies and oscillator strengths:

 Excited State   1:      Singlet-A      1.7706 eV  700.25 nm  f=0.0137  <S**2>=0.000
     244 -> 247        0.69150
     246 -> 247        0.13055
 This state for optimization and/or second-order correction.
 Total Energy, E(TD-HF/TD-DFT) =  -3007.24643506
 Copying the excited state density for this state as the 1-particle RhoCI density.

 Excited State   2:      Singlet-A      1.8426 eV  672.87 nm  f=0.2810  <S**2>=0.000
     243 -> 247        0.13112
     244 -> 247       -0.11705
     245 -> 247        0.10945
     245 -> 248       -0.17071
     246 -> 247        0.66342
     246 <- 247       -0.14786

 Excited State   3:      Singlet-A      1.9074 eV  650.01 nm  f=0.0608  <S**2>=0.000
     243 -> 247        0.49712
     245 -> 247        0.44646
     246 -> 247       -0.16048
     246 -> 248        0.10980

 Excited State   4:      Singlet-A      2.0425 eV  607.02 nm  f=0.0466  <S**2>=0.000
     242 -> 247       -0.15490
     243 -> 247        0.48017
     245 -> 247       -0.45321
     246 -> 248       -0.16543

 Excited State   5:      Singlet-A      2.2707 eV  546.01 nm  f=0.0239  <S**2>=0.000
     242 -> 247        0.67001
     245 -> 247       -0.14072
     246 -> 248       -0.10443

 The electronic state is 1-A.
 Alpha  occ. eigenvalues --  -46.27846 -18.82257 -18.81530 -18.77015 -18.76663
 Alpha  occ. eigenvalues --  -18.76316 -18.74847 -14.03438 -14.03300 -14.00563
 Alpha  occ. eigenvalues --  -14.00416 -10.04582 -10.04287 -10.00684  -9.99337
 Alpha  occ. eigenvalues --   -9.98535  -9.97234  -9.96659  -9.96552  -9.96294
 Alpha  occ. eigenvalues --   -9.96205  -9.96097  -9.94730  -9.94693  -9.94616
 Alpha  occ. eigenvalues --   -9.94551  -9.94339  -9.94301  -9.94146  -9.94125
 Alpha  occ. eigenvalues --   -9.94091  -9.94012  -9.93501  -9.93461  -9.93354
 Alpha  occ. eigenvalues --   -9.93352  -9.93172  -9.92984  -9.92924  -9.92854
 Alpha  occ. eigenvalues --   -9.92558  -9.92440  -9.92270  -9.92258  -9.92171
 Alpha  occ. eigenvalues --   -9.91930  -9.91897  -9.91708  -9.91609  -9.91563
 Alpha  occ. eigenvalues --   -9.91528  -9.91432  -9.91361  -9.91335  -9.91311
 Alpha  occ. eigenvalues --   -9.91178  -9.91080  -9.91069  -9.91051  -9.91037
 Alpha  occ. eigenvalues --   -9.90988  -9.90828  -9.90557  -9.90484  -9.90443
 Alpha  occ. eigenvalues --   -9.90426  -2.92554  -1.72913  -1.72478  -1.72262
 Alpha  occ. eigenvalues --   -0.96988  -0.96987  -0.92057  -0.90286  -0.89333
 Alpha  occ. eigenvalues --   -0.89121  -0.89066  -0.87420  -0.86650  -0.85141
 Alpha  occ. eigenvalues --   -0.75821  -0.73554  -0.73331  -0.73016  -0.72862
 Alpha  occ. eigenvalues --   -0.72104  -0.71764  -0.71509  -0.70941  -0.70915
 Alpha  occ. eigenvalues --   -0.68859  -0.68524  -0.68336  -0.68071  -0.67344
 Alpha  occ. eigenvalues --   -0.66553  -0.66294  -0.65539  -0.65234  -0.64983
 Alpha  occ. eigenvalues --   -0.63924  -0.63009  -0.62806  -0.61807  -0.61330
 Alpha  occ. eigenvalues --   -0.60623  -0.60453  -0.60031  -0.59314  -0.58450
 Alpha  occ. eigenvalues --   -0.58265  -0.57725  -0.56911  -0.55812  -0.54576
 Alpha  occ. eigenvalues --   -0.54134  -0.54015  -0.52793  -0.52204  -0.51765
 Alpha  occ. eigenvalues --   -0.51392  -0.51045  -0.50791  -0.50722  -0.49873
 Alpha  occ. eigenvalues --   -0.49775  -0.49439  -0.49164  -0.48683  -0.46741
 Alpha  occ. eigenvalues --   -0.46234  -0.46044  -0.45252  -0.44846  -0.44711
 Alpha  occ. eigenvalues --   -0.44160  -0.43217  -0.43083  -0.42474  -0.42251
 Alpha  occ. eigenvalues --   -0.42012  -0.41979  -0.41627  -0.41362  -0.41047
 Alpha  occ. eigenvalues --   -0.41014  -0.40627  -0.40510  -0.40328  -0.40237
 Alpha  occ. eigenvalues --   -0.40134  -0.39801  -0.39686  -0.39590  -0.39461
 Alpha  occ. eigenvalues --   -0.39231  -0.39030  -0.38775  -0.38768  -0.38232
 Alpha  occ. eigenvalues --   -0.38116  -0.38037  -0.37590  -0.37546  -0.37440
 Alpha  occ. eigenvalues --   -0.37318  -0.36969  -0.36937  -0.36705  -0.36454
 Alpha  occ. eigenvalues --   -0.36330  -0.36304  -0.36161  -0.35862  -0.35779
 Alpha  occ. eigenvalues --   -0.35575  -0.35419  -0.35008  -0.34907  -0.34826
 Alpha  occ. eigenvalues --   -0.34712  -0.34584  -0.34351  -0.34242  -0.34152
 Alpha  occ. eigenvalues --   -0.34030  -0.33547  -0.33410  -0.33343  -0.33204
 Alpha  occ. eigenvalues --   -0.32999  -0.32842  -0.32834  -0.32655  -0.32548
 Alpha  occ. eigenvalues --   -0.32447  -0.32259  -0.31998  -0.31845  -0.31633
 Alpha  occ. eigenvalues --   -0.31345  -0.31282  -0.31186  -0.30905  -0.30754
 Alpha  occ. eigenvalues --   -0.30447  -0.30318  -0.30178  -0.30064  -0.29852
 Alpha  occ. eigenvalues --   -0.29538  -0.29479  -0.29431  -0.29153  -0.29068
 Alpha  occ. eigenvalues --   -0.28789  -0.28647  -0.28326  -0.28238  -0.27958
 Alpha  occ. eigenvalues --   -0.27823  -0.27574  -0.26841  -0.26651  -0.26582
 Alpha  occ. eigenvalues --   -0.26355  -0.25843  -0.25527  -0.25299  -0.25024
 Alpha  occ. eigenvalues --   -0.24411  -0.24166  -0.23799  -0.23739  -0.23263
 Alpha  occ. eigenvalues --   -0.23120  -0.22706  -0.22116  -0.21416  -0.20750
 Alpha  occ. eigenvalues --   -0.20422  -0.19467  -0.18940  -0.18282  -0.17388
 Alpha  occ. eigenvalues --   -0.16138
 Alpha virt. eigenvalues --   -0.11834  -0.06566  -0.06245  -0.04482  -0.04460
 Alpha virt. eigenvalues --   -0.03582  -0.03298  -0.02689  -0.01731   0.00257
 Alpha virt. eigenvalues --    0.00790   0.01994   0.02004   0.02189   0.02346

 Mulliken charges:
               1
     1  Mg   0.697796
     2  C    0.075080
     3  C   -0.063576
     4  C   -0.051436
     5  C   -0.120106
     6  N   -0.190021
     7  C   -0.109926
     8  C    0.021240
     9  C    0.000028
    10  C   -0.023639
    11  C    0.136031
    12  C    0.105695
    13  C    0.141968
    14  C    0.100299
    15  O   -0.207891
    16  O   -0.272504
    17  N   -0.256927
    18  C    0.180778
    19  C   -0.148520
    20  C    0.025021
    21  C    0.128825
    22  C    0.172096
    23  C   -0.113398
    24  O   -0.149660
    25  C    0.157533
    26  N   -0.257480
    27  C   -0.028057
    28  C    0.049199
    29  C    0.022948
    30  C    0.065792
    31  C    0.146125
    32  C    0.074434
    33  C    0.092877
    34  N   -0.160625
    35  C    0.092723
    36  C   -0.206164
    37  C    0.084832
    38  C    0.039765
    39  C    0.186464
    40  C   -0.046511
    41  O   -0.148325
    42  C    0.015911
    43  C    0.119866
    44  O   -0.157035
    45  O   -0.299874
    46  C    0.223574
    47  C    0.354109
    48  C   -0.131771
    49  C   -0.141285
    50  C    0.144983
    51  C    0.117964
    52  C    0.089055
    53  C    0.131088
    54  C   -0.088122
    55  C    0.100696
    56  C    0.080825
    57  C    0.096380
    58  C    0.127513
    59  C   -0.107952
    60  C    0.112000
    61  C    0.100359
    62  C    0.097699
    63  C    0.128168
    64  C   -0.142582
    65  C    0.134747
    66  C    0.109097
    67  H   -0.065353
    68  H   -0.078279
    69  H   -0.078296
    70  H   -0.026368
    71  H   -0.019226
    72  H    0.003265
    73  H   -0.021542
    74  H    0.008296
    75  H   -0.004797
    76  H   -0.014844
    77  H   -0.000203
    78  H   -0.003089
    79  H    0.014092
    80  H   -0.027791
    81  H    0.003230
    82  H    0.005465
    83  H    0.016966
    84  H   -0.012255
    85  H   -0.032374
    86  H   -0.039005
    87  H   -0.011866
    88  H    0.009349
    89  H   -0.008706
    90  H   -0.014747
    91  H   -0.026721
    92  H   -0.014568
    93  H   -0.003417
    94  H   -0.022795
    95  H   -0.005227
    96  H    0.012618
    97  H    0.012006
    98  H    0.007319
    99  H    0.012548
   100  H    0.025592
   101  H   -0.001396
   102  H   -0.019418
   103  H    0.005994
   104  H   -0.039286
   105  H   -0.013009
   106  H    0.014635
   107  H   -0.018732
   108  H   -0.028932
   109  H   -0.036144
   110  H   -0.022125
   111  H   -0.039889
   112  H   -0.042890
   113  H   -0.038884
   114  H   -0.038026
   115  H   -0.007916
   116  H   -0.005805
   117  H   -0.029674
   118  H   -0.037145
   119  H   -0.039550
   120  H   -0.045524
   121  H   -0.029533
   122  H   -0.044296
   123  H   -0.032113
   124  H   -0.043953
   125  H   -0.015694
   126  H   -0.007331
   127  H   -0.019195
   128  H   -0.044125
   129  H   -0.051329
   130  H   -0.039253
   131  H   -0.029557
   132  H   -0.023255
   133  H   -0.023939
   134  H   -0.035827
   135  H   -0.025459
   136  H   -0.005917
   137  H   -0.033545
   138  H   -0.045361
   139  H   -0.006570
   140  H   -0.017501
 Sum of Mulliken charges =  -0.00000

 Dipole moment (field-independent basis, Debye):
    X=              1.2304    Y=              3.9257    Z=              1.8733  Tot=              4.5204
 Quadrupole moment (field-independent basis, Debye-Ang):
   XX=           -357.6404   YY=           -451.2744   ZZ=           -403.3032
   XY=             34.3699   XZ=             -4.2864   YZ=             33.5390

 Normal termination of Gaussian 16 at Thu May  5 13:30:27 2022.
