 Gaussian 16, Revision A.03,
 Gaussian 16:  ES64L-G16RevA.03 25-Dec-2016

 -----------------------------------
 #p cam-b3lyp/Def2SVP td=(nstates=5)
 -----------------------------------

 ------------------------------------------------------
 step_851_chromophore_5 TDDFT with cam-b3lyp functional
 ------------------------------------------------------
 Symbolic Z-matrix:
 Charge =  0 Multiplicity = 1

                         Standard orientation:
 ---------------------------------------------------------------------
 Center     Atomic      Atomic             Coordinates (Angstroms)
 Number     Number       Type             X           Y           Z
 ---------------------------------------------------------------------
      1         12           0        5.403139    0.588261   -0.222899
      2          6           0        4.531659   -2.664282    0.258242
      3          6           0        3.162128    0.672239   -2.850964
      4          6           0        5.446479    3.916491   -0.108325
      5          6           0        7.074800    0.429806    2.784845
      6          7           0        3.785347   -0.725645   -0.959643
      7          6           0        3.713696   -2.061594   -0.675107
      8          6           0        2.754256   -2.838127   -1.515640
      9          6           0        2.745571   -1.891808   -2.770585
     10          6           0        3.279336   -0.554297   -2.175191
     11          6           0        3.534928   -2.315605   -4.051679
     12          6           0        1.443315   -2.883475   -0.703805
     13          6           0        0.136499   -3.516735   -1.370955
     14          6           0       -1.066676   -2.617378   -1.894007
     15          8           0       -1.145983   -2.192671   -3.047525
     16          8           0       -2.115448   -2.491968   -0.990754
     17          7           0        4.467200    2.141014   -1.432767
     18          6           0        3.633814    1.923530   -2.467699
     19          6           0        3.404319    3.148320   -3.096627
     20          6           0        3.949330    4.251270   -2.255737
     21          6           0        4.673967    3.489738   -1.228261
     22          6           0        2.538879    3.160222   -4.365731
     23          6           0        3.724969    5.741319   -2.477734
     24          8           0        3.123337    6.076888   -3.468060
     25          6           0        4.100756    6.779096   -1.493127
     26          7           0        6.050455    1.912100    1.156707
     27          6           0        6.127338    3.237481    0.907863
     28          6           0        7.079872    3.983101    1.860225
     29          6           0        7.307159    2.930424    2.986077
     30          6           0        6.802530    1.664484    2.280181
     31          6           0        8.365120    4.569662    1.146839
     32          6           0        6.524369    3.093010    4.293009
     33          6           0        7.228846    3.513070    5.536198
     34          7           0        5.950527   -0.843595    1.195093
     35          6           0        6.676854   -0.823421    2.275327
     36          6           0        6.995677   -2.118150    2.763905
     37          6           0        6.153388   -2.935053    1.976953
     38          6           0        5.492705   -2.057928    1.083987
     39          6           0        7.807633   -2.462527    3.906912
     40          6           0        5.708219   -4.337051    1.628279
     41          8           0        6.047266   -5.451168    2.077797
     42          6           0        4.557038   -4.152062    0.500664
     43          6           0        5.082648   -5.055612   -0.625302
     44          8           0        4.707387   -6.159258   -0.982545
     45          8           0        6.063013   -4.378477   -1.318312
     46          6           0        6.456664   -4.756659   -2.701129
     47          6           0       -3.344963   -1.952519   -1.640713
     48          6           0       -3.816378   -0.589040   -1.218205
     49          6           0       -4.413734   -0.221393   -0.051866
     50          6           0       -4.789297   -1.106989    1.139033
     51          6           0       -4.843375    1.224019    0.171001
     52          6           0       -6.154943    1.692556   -0.527038
     53          6           0       -7.152333    2.382250    0.351487
     54          6           0       -8.441357    1.534836    0.601164
     55          6           0       -9.760893    2.332328    0.618712
     56          6           0       -8.461986    0.711736    1.942641
     57          6           0       -9.171262   -0.658944    1.754385
     58          6           0      -10.443135   -0.694589    2.615954
     59          6           0      -11.722216   -0.943386    1.822975
     60          6           0      -11.752800   -2.481405    1.743363
     61          6           0      -12.956462   -0.259324    2.477213
     62          6           0      -14.221807   -0.324684    1.598688
     63          6           0      -14.335006    0.949033    0.692744
     64          6           0      -14.315879    0.524374   -0.818635
     65          6           0      -13.090212    0.895377   -1.656677
     66          6           0      -15.714989    0.780214   -1.399976
     67          1           0        2.601550    0.565428   -3.782084
     68          1           0        5.589774    4.986740    0.057130
     69          1           0        7.694133    0.398422    3.682518
     70          1           0        3.105005   -3.839038   -1.768425
     71          1           0        1.715103   -1.752672   -3.096465
     72          1           0        3.954845   -3.317036   -3.956641
     73          1           0        4.415026   -1.678665   -4.134846
     74          1           0        2.955552   -2.097533   -4.949020
     75          1           0        1.206976   -1.849111   -0.453683
     76          1           0        1.669683   -3.524723    0.147442
     77          1           0       -0.269250   -4.256951   -0.681808
     78          1           0        0.534051   -3.989137   -2.269162
     79          1           0        1.513628    3.456366   -4.140431
     80          1           0        2.446758    2.218845   -4.906696
     81          1           0        3.066073    3.785630   -5.085715
     82          1           0        5.158095    7.032917   -1.565255
     83          1           0        3.787759    6.416183   -0.514759
     84          1           0        3.634816    7.703010   -1.834811
     85          1           0        6.419085    4.773981    2.212933
     86          1           0        8.351247    2.878071    3.292228
     87          1           0        9.151925    3.815447    1.103754
     88          1           0        8.639738    5.473803    1.689281
     89          1           0        8.203043    4.738208    0.081434
     90          1           0        6.088166    2.122962    4.531822
     91          1           0        5.764900    3.859363    4.132417
     92          1           0        7.026286    2.830277    6.361278
     93          1           0        6.882050    4.490026    5.873431
     94          1           0        8.283849    3.387538    5.292725
     95          1           0        8.618992   -1.751728    4.062007
     96          1           0        8.184343   -3.468437    3.720566
     97          1           0        7.116482   -2.485606    4.749305
     98          1           0        3.667520   -4.618455    0.925488
     99          1           0        5.792375   -4.379893   -3.479024
    100          1           0        6.776602   -5.797626   -2.754546
    101          1           0        7.402396   -4.251203   -2.895996
    102          1           0       -4.134330   -2.605212   -1.266257
    103          1           0       -3.341494   -1.906485   -2.730263
    104          1           0       -3.737435    0.202316   -1.962595
    105          1           0       -5.702875   -0.826710    1.662437
    106          1           0       -4.016064   -1.145462    1.907039
    107          1           0       -5.023260   -2.084948    0.718275
    108          1           0       -4.084084    1.898373   -0.227627
    109          1           0       -4.806982    1.411819    1.243756
    110          1           0       -6.580205    0.971822   -1.225554
    111          1           0       -5.773983    2.531781   -1.108739
    112          1           0       -7.352249    3.319173   -0.167806
    113          1           0       -6.652470    2.651455    1.282714
    114          1           0       -8.523595    0.842857   -0.236477
    115          1           0      -10.304505    2.388096    1.560912
    116          1           0      -10.399976    1.864530   -0.129964
    117          1           0       -9.593316    3.362828    0.305828
    118          1           0       -8.977750    1.340684    2.669041
    119          1           0       -7.465706    0.658393    2.381444
    120          1           0       -8.377503   -1.332976    2.079360
    121          1           0       -9.303580   -1.048573    0.744443
    122          1           0      -10.562788    0.289238    3.069409
    123          1           0      -10.310761   -1.497903    3.341910
    124          1           0      -11.594328   -0.557156    0.812187
    125          1           0      -12.438847   -2.770037    2.539276
    126          1           0      -10.815576   -3.024375    1.869430
    127          1           0      -12.128841   -2.660520    0.736441
    128          1           0      -12.692282    0.769848    2.719393
    129          1           0      -13.088433   -0.568209    3.514442
    130          1           0      -15.097179   -0.398756    2.244035
    131          1           0      -14.258352   -1.180765    0.924015
    132          1           0      -13.476602    1.609136    0.810440
    133          1           0      -15.268128    1.402733    1.027424
    134          1           0      -14.245309   -0.546705   -1.006355
    135          1           0      -13.432373    1.669408   -2.343323
    136          1           0      -12.651014    0.022462   -2.139513
    137          1           0      -12.327573    1.389464   -1.055388
    138          1           0      -15.592147    1.091820   -2.437722
    139          1           0      -16.314327    1.559684   -0.927553
    140          1           0      -16.221629   -0.177206   -1.519559
 ---------------------------------------------------------------------

 SCF Done:  E(RCAM-B3LYP) =  -3007.11088924     A.U. after   16 cycles

 Excitation energies and oscillator strengths:

 Excited State   1:      Singlet-A      1.7371 eV  713.73 nm  f=0.3922  <S**2>=0.000
     245 -> 248        0.16541
     246 -> 247        0.68897
     245 <- 248        0.10226
 This state for optimization and/or second-order correction.
 Total Energy, E(TD-HF/TD-DFT) =  -3007.04705095
 Copying the excited state density for this state as the 1-particle RhoCI density.

 Excited State   2:      Singlet-A      2.2215 eV  558.11 nm  f=0.1372  <S**2>=0.000
     244 -> 247        0.10333
     245 -> 247        0.65061
     246 -> 248       -0.24735

 Excited State   3:      Singlet-A      3.0107 eV  411.82 nm  f=0.0120  <S**2>=0.000
     244 -> 247        0.68533
     246 -> 248        0.10208

 Excited State   4:      Singlet-A      3.4570 eV  358.65 nm  f=0.0005  <S**2>=0.000
     241 -> 247        0.20423
     241 -> 249        0.12869
     241 -> 250       -0.12116
     243 -> 247        0.60125
     246 -> 248        0.14513

 Excited State   5:      Singlet-A      3.5448 eV  349.77 nm  f=0.0002  <S**2>=0.000
     240 -> 247        0.55859
     240 -> 248       -0.13583
     240 -> 249       -0.15759
     240 -> 250        0.15101
     240 -> 251       -0.23570
     241 -> 247        0.17424

 The electronic state is 1-A.
 Alpha  occ. eigenvalues --  -46.89483 -19.25130 -19.24378 -19.20050 -19.19731
 Alpha  occ. eigenvalues --  -19.19411 -19.18258 -14.42470 -14.42086 -14.38932
 Alpha  occ. eigenvalues --  -14.38800 -10.40013 -10.39726 -10.36072 -10.34629
 Alpha  occ. eigenvalues --  -10.32542 -10.31369 -10.31340 -10.31262 -10.31140
 Alpha  occ. eigenvalues --  -10.30390 -10.30335 -10.29157 -10.29076 -10.28639
 Alpha  occ. eigenvalues --  -10.28497 -10.28478 -10.28428 -10.28277 -10.28207
 Alpha  occ. eigenvalues --  -10.28171 -10.28124 -10.27939 -10.27668 -10.27651
 Alpha  occ. eigenvalues --  -10.27516 -10.27266 -10.27174 -10.26971 -10.26913
 Alpha  occ. eigenvalues --  -10.26765 -10.26041 -10.26017 -10.25891 -10.25863
 Alpha  occ. eigenvalues --  -10.25810 -10.25484 -10.25475 -10.25453 -10.25439
 Alpha  occ. eigenvalues --  -10.25392 -10.25292 -10.25038 -10.24993 -10.24931
 Alpha  occ. eigenvalues --  -10.24816 -10.24762 -10.24744 -10.24708 -10.24682
 Alpha  occ. eigenvalues --  -10.24609 -10.24422 -10.24109 -10.24092 -10.24059
 Alpha  occ. eigenvalues --  -10.24018  -3.18088  -1.92924  -1.92585  -1.92372
 Alpha  occ. eigenvalues --   -1.15476  -1.15435  -1.10704  -1.08496  -1.06997
 Alpha  occ. eigenvalues --   -1.06959  -1.06839  -1.05263  -1.04316  -1.02906
 Alpha  occ. eigenvalues --   -0.92934  -0.90399  -0.89979  -0.89819  -0.89656
 Alpha  occ. eigenvalues --   -0.88832  -0.88430  -0.87964  -0.87541  -0.87480
 Alpha  occ. eigenvalues --   -0.85331  -0.84988  -0.84597  -0.84472  -0.83587
 Alpha  occ. eigenvalues --   -0.82604  -0.82479  -0.81655  -0.80967  -0.80842
 Alpha  occ. eigenvalues --   -0.79678  -0.78604  -0.78340  -0.77496  -0.76814
 Alpha  occ. eigenvalues --   -0.75991  -0.75823  -0.75439  -0.74576  -0.73643
 Alpha  occ. eigenvalues --   -0.73340  -0.72737  -0.71848  -0.70669  -0.69078
 Alpha  occ. eigenvalues --   -0.68735  -0.68486  -0.67500  -0.66545  -0.65820
 Alpha  occ. eigenvalues --   -0.65566  -0.65208  -0.64845  -0.64792  -0.63882
 Alpha  occ. eigenvalues --   -0.63584  -0.63096  -0.63005  -0.62570  -0.60367
 Alpha  occ. eigenvalues --   -0.59931  -0.59442  -0.58674  -0.58288  -0.58145
 Alpha  occ. eigenvalues --   -0.57581  -0.56557  -0.56424  -0.55850  -0.55548
 Alpha  occ. eigenvalues --   -0.54899  -0.54877  -0.54461  -0.54053  -0.53988
 Alpha  occ. eigenvalues --   -0.53870  -0.53658  -0.53287  -0.53045  -0.52963
 Alpha  occ. eigenvalues --   -0.52826  -0.52757  -0.52487  -0.52319  -0.52050
 Alpha  occ. eigenvalues --   -0.51952  -0.51716  -0.51413  -0.51151  -0.50578
 Alpha  occ. eigenvalues --   -0.50512  -0.50423  -0.50075  -0.49962  -0.49659
 Alpha  occ. eigenvalues --   -0.49574  -0.49378  -0.49279  -0.49011  -0.48864
 Alpha  occ. eigenvalues --   -0.48754  -0.48458  -0.48286  -0.48147  -0.47780
 Alpha  occ. eigenvalues --   -0.47606  -0.47385  -0.47071  -0.46916  -0.46739
 Alpha  occ. eigenvalues --   -0.46632  -0.46561  -0.46435  -0.46103  -0.45969
 Alpha  occ. eigenvalues --   -0.45900  -0.45441  -0.45302  -0.45057  -0.44915
 Alpha  occ. eigenvalues --   -0.44704  -0.44580  -0.44501  -0.44356  -0.44207
 Alpha  occ. eigenvalues --   -0.44133  -0.43863  -0.43475  -0.43381  -0.43114
 Alpha  occ. eigenvalues --   -0.42943  -0.42928  -0.42616  -0.42448  -0.42198
 Alpha  occ. eigenvalues --   -0.41943  -0.41911  -0.41596  -0.41323  -0.41131
 Alpha  occ. eigenvalues --   -0.40966  -0.40865  -0.40546  -0.40512  -0.40256
 Alpha  occ. eigenvalues --   -0.40119  -0.39881  -0.39539  -0.39302  -0.38882
 Alpha  occ. eigenvalues --   -0.38723  -0.38427  -0.37700  -0.37546  -0.37453
 Alpha  occ. eigenvalues --   -0.37097  -0.37004  -0.36588  -0.36248  -0.35992
 Alpha  occ. eigenvalues --   -0.35518  -0.34924  -0.34415  -0.34250  -0.34154
 Alpha  occ. eigenvalues --   -0.33710  -0.33517  -0.33322  -0.31459  -0.30825
 Alpha  occ. eigenvalues --   -0.30690  -0.30025  -0.29858  -0.28975  -0.24290
 Alpha  occ. eigenvalues --   -0.21542
 Alpha virt. eigenvalues --   -0.09056  -0.01277   0.00184   0.00678   0.02424
 Alpha virt. eigenvalues --    0.03970   0.04240   0.04936   0.05425   0.07248
 Alpha virt. eigenvalues --    0.08050   0.08180   0.08518   0.08606   0.08798

 Mulliken charges:
               1
     1  Mg   0.831490
     2  C    0.051500
     3  C   -0.074805
     4  C   -0.075361
     5  C   -0.116722
     6  N   -0.253961
     7  C   -0.071711
     8  C   -0.035617
     9  C   -0.054620
    10  C   -0.007350
    11  C    0.082737
    12  C    0.062605
    13  C    0.075661
    14  C    0.179075
    15  O   -0.251804
    16  O   -0.336642
    17  N   -0.346567
    18  C    0.185139
    19  C   -0.149826
    20  C   -0.043056
    21  C    0.162170
    22  C    0.117780
    23  C   -0.032301
    24  O   -0.188681
    25  C    0.071496
    26  N   -0.331335
    27  C   -0.000310
    28  C   -0.013611
    29  C   -0.027879
    30  C    0.071327
    31  C    0.088028
    32  C    0.021039
    33  C    0.029970
    34  N   -0.252306
    35  C    0.088096
    36  C   -0.200706
    37  C    0.009793
    38  C    0.070376
    39  C    0.130887
    40  C    0.057892
    41  O   -0.187767
    42  C   -0.058700
    43  C    0.204895
    44  O   -0.196426
    45  O   -0.362616
    46  C    0.190866
    47  C    0.313892
    48  C   -0.152827
    49  C   -0.160511
    50  C    0.089663
    51  C    0.058274
    52  C    0.027651
    53  C    0.077845
    54  C   -0.140023
    55  C    0.048363
    56  C    0.029436
    57  C    0.041711
    58  C    0.068524
    59  C   -0.152568
    60  C    0.052522
    61  C    0.045310
    62  C    0.041096
    63  C    0.072694
    64  C   -0.201251
    65  C    0.079364
    66  C    0.050185
    67  H   -0.027623
    68  H   -0.044212
    69  H   -0.042610
    70  H    0.008049
    71  H    0.017291
    72  H    0.022170
    73  H    0.004751
    74  H    0.033147
    75  H    0.026551
    76  H    0.014346
    77  H    0.033859
    78  H    0.028458
    79  H    0.042145
    80  H    0.000263
    81  H    0.031630
    82  H    0.034989
    83  H    0.043306
    84  H    0.024919
    85  H    0.002755
    86  H   -0.003139
    87  H    0.013643
    88  H    0.033421
    89  H    0.016774
    90  H    0.017506
    91  H    0.000407
    92  H    0.010403
    93  H    0.019897
    94  H   -0.000768
    95  H    0.017733
    96  H    0.038118
    97  H    0.037584
    98  H    0.047672
    99  H    0.028332
   100  H    0.050138
   101  H    0.022528
   102  H    0.009502
   103  H    0.040669
   104  H   -0.006972
   105  H    0.006541
   106  H    0.040034
   107  H    0.004327
   108  H    0.002235
   109  H   -0.006792
   110  H    0.006935
   111  H   -0.008373
   112  H   -0.011838
   113  H   -0.010571
   114  H   -0.007222
   115  H    0.011315
   116  H    0.011792
   117  H   -0.003467
   118  H   -0.007783
   119  H   -0.013631
   120  H   -0.015867
   121  H   -0.001539
   122  H   -0.017298
   123  H   -0.002189
   124  H   -0.017410
   125  H    0.009064
   126  H    0.016512
   127  H    0.003252
   128  H   -0.015339
   129  H   -0.020346
   130  H   -0.008139
   131  H   -0.002082
   132  H    0.001821
   133  H    0.005671
   134  H   -0.004575
   135  H   -0.000258
   136  H    0.017088
   137  H   -0.015197
   138  H   -0.019436
   139  H    0.016581
   140  H    0.007057
 Sum of Mulliken charges =  -0.00000

 Dipole moment (field-independent basis, Debye):
    X=              1.2084    Y=              4.6265    Z=              1.3292  Tot=              4.9630
 Quadrupole moment (field-independent basis, Debye-Ang):
   XX=           -359.1472   YY=           -448.4509   ZZ=           -401.6669
   XY=             38.3239   XZ=             -6.4687   YZ=             34.1683

 Normal termination of Gaussian 16 at Thu May  5 12:02:08 2022.
