 Gaussian 16, Revision A.03,
 Gaussian 16:  ES64L-G16RevA.03 25-Dec-2016

 ---------------------------------
 #p PBE1PBE/Def2SVP td=(nstates=5)
 ---------------------------------

 ----------------------------------------------------
 step_851_chromophore_5 TDDFT with PBE1PBE functional
 ----------------------------------------------------
 Symbolic Z-matrix:
 Charge =  0 Multiplicity = 1

                         Standard orientation:
 ---------------------------------------------------------------------
 Center     Atomic      Atomic             Coordinates (Angstroms)
 Number     Number       Type             X           Y           Z
 ---------------------------------------------------------------------
      1         12           0        5.403139    0.588261   -0.222899
      2          6           0        4.531659   -2.664282    0.258242
      3          6           0        3.162128    0.672239   -2.850964
      4          6           0        5.446479    3.916491   -0.108325
      5          6           0        7.074800    0.429806    2.784845
      6          7           0        3.785347   -0.725645   -0.959643
      7          6           0        3.713696   -2.061594   -0.675107
      8          6           0        2.754256   -2.838127   -1.515640
      9          6           0        2.745571   -1.891808   -2.770585
     10          6           0        3.279336   -0.554297   -2.175191
     11          6           0        3.534928   -2.315605   -4.051679
     12          6           0        1.443315   -2.883475   -0.703805
     13          6           0        0.136499   -3.516735   -1.370955
     14          6           0       -1.066676   -2.617378   -1.894007
     15          8           0       -1.145983   -2.192671   -3.047525
     16          8           0       -2.115448   -2.491968   -0.990754
     17          7           0        4.467200    2.141014   -1.432767
     18          6           0        3.633814    1.923530   -2.467699
     19          6           0        3.404319    3.148320   -3.096627
     20          6           0        3.949330    4.251270   -2.255737
     21          6           0        4.673967    3.489738   -1.228261
     22          6           0        2.538879    3.160222   -4.365731
     23          6           0        3.724969    5.741319   -2.477734
     24          8           0        3.123337    6.076888   -3.468060
     25          6           0        4.100756    6.779096   -1.493127
     26          7           0        6.050455    1.912100    1.156707
     27          6           0        6.127338    3.237481    0.907863
     28          6           0        7.079872    3.983101    1.860225
     29          6           0        7.307159    2.930424    2.986077
     30          6           0        6.802530    1.664484    2.280181
     31          6           0        8.365120    4.569662    1.146839
     32          6           0        6.524369    3.093010    4.293009
     33          6           0        7.228846    3.513070    5.536198
     34          7           0        5.950527   -0.843595    1.195093
     35          6           0        6.676854   -0.823421    2.275327
     36          6           0        6.995677   -2.118150    2.763905
     37          6           0        6.153388   -2.935053    1.976953
     38          6           0        5.492705   -2.057928    1.083987
     39          6           0        7.807633   -2.462527    3.906912
     40          6           0        5.708219   -4.337051    1.628279
     41          8           0        6.047266   -5.451168    2.077797
     42          6           0        4.557038   -4.152062    0.500664
     43          6           0        5.082648   -5.055612   -0.625302
     44          8           0        4.707387   -6.159258   -0.982545
     45          8           0        6.063013   -4.378477   -1.318312
     46          6           0        6.456664   -4.756659   -2.701129
     47          6           0       -3.344963   -1.952519   -1.640713
     48          6           0       -3.816378   -0.589040   -1.218205
     49          6           0       -4.413734   -0.221393   -0.051866
     50          6           0       -4.789297   -1.106989    1.139033
     51          6           0       -4.843375    1.224019    0.171001
     52          6           0       -6.154943    1.692556   -0.527038
     53          6           0       -7.152333    2.382250    0.351487
     54          6           0       -8.441357    1.534836    0.601164
     55          6           0       -9.760893    2.332328    0.618712
     56          6           0       -8.461986    0.711736    1.942641
     57          6           0       -9.171262   -0.658944    1.754385
     58          6           0      -10.443135   -0.694589    2.615954
     59          6           0      -11.722216   -0.943386    1.822975
     60          6           0      -11.752800   -2.481405    1.743363
     61          6           0      -12.956462   -0.259324    2.477213
     62          6           0      -14.221807   -0.324684    1.598688
     63          6           0      -14.335006    0.949033    0.692744
     64          6           0      -14.315879    0.524374   -0.818635
     65          6           0      -13.090212    0.895377   -1.656677
     66          6           0      -15.714989    0.780214   -1.399976
     67          1           0        2.601550    0.565428   -3.782084
     68          1           0        5.589774    4.986740    0.057130
     69          1           0        7.694133    0.398422    3.682518
     70          1           0        3.105005   -3.839038   -1.768425
     71          1           0        1.715103   -1.752672   -3.096465
     72          1           0        3.954845   -3.317036   -3.956641
     73          1           0        4.415026   -1.678665   -4.134846
     74          1           0        2.955552   -2.097533   -4.949020
     75          1           0        1.206976   -1.849111   -0.453683
     76          1           0        1.669683   -3.524723    0.147442
     77          1           0       -0.269250   -4.256951   -0.681808
     78          1           0        0.534051   -3.989137   -2.269162
     79          1           0        1.513628    3.456366   -4.140431
     80          1           0        2.446758    2.218845   -4.906696
     81          1           0        3.066073    3.785630   -5.085715
     82          1           0        5.158095    7.032917   -1.565255
     83          1           0        3.787759    6.416183   -0.514759
     84          1           0        3.634816    7.703010   -1.834811
     85          1           0        6.419085    4.773981    2.212933
     86          1           0        8.351247    2.878071    3.292228
     87          1           0        9.151925    3.815447    1.103754
     88          1           0        8.639738    5.473803    1.689281
     89          1           0        8.203043    4.738208    0.081434
     90          1           0        6.088166    2.122962    4.531822
     91          1           0        5.764900    3.859363    4.132417
     92          1           0        7.026286    2.830277    6.361278
     93          1           0        6.882050    4.490026    5.873431
     94          1           0        8.283849    3.387538    5.292725
     95          1           0        8.618992   -1.751728    4.062007
     96          1           0        8.184343   -3.468437    3.720566
     97          1           0        7.116482   -2.485606    4.749305
     98          1           0        3.667520   -4.618455    0.925488
     99          1           0        5.792375   -4.379893   -3.479024
    100          1           0        6.776602   -5.797626   -2.754546
    101          1           0        7.402396   -4.251203   -2.895996
    102          1           0       -4.134330   -2.605212   -1.266257
    103          1           0       -3.341494   -1.906485   -2.730263
    104          1           0       -3.737435    0.202316   -1.962595
    105          1           0       -5.702875   -0.826710    1.662437
    106          1           0       -4.016064   -1.145462    1.907039
    107          1           0       -5.023260   -2.084948    0.718275
    108          1           0       -4.084084    1.898373   -0.227627
    109          1           0       -4.806982    1.411819    1.243756
    110          1           0       -6.580205    0.971822   -1.225554
    111          1           0       -5.773983    2.531781   -1.108739
    112          1           0       -7.352249    3.319173   -0.167806
    113          1           0       -6.652470    2.651455    1.282714
    114          1           0       -8.523595    0.842857   -0.236477
    115          1           0      -10.304505    2.388096    1.560912
    116          1           0      -10.399976    1.864530   -0.129964
    117          1           0       -9.593316    3.362828    0.305828
    118          1           0       -8.977750    1.340684    2.669041
    119          1           0       -7.465706    0.658393    2.381444
    120          1           0       -8.377503   -1.332976    2.079360
    121          1           0       -9.303580   -1.048573    0.744443
    122          1           0      -10.562788    0.289238    3.069409
    123          1           0      -10.310761   -1.497903    3.341910
    124          1           0      -11.594328   -0.557156    0.812187
    125          1           0      -12.438847   -2.770037    2.539276
    126          1           0      -10.815576   -3.024375    1.869430
    127          1           0      -12.128841   -2.660520    0.736441
    128          1           0      -12.692282    0.769848    2.719393
    129          1           0      -13.088433   -0.568209    3.514442
    130          1           0      -15.097179   -0.398756    2.244035
    131          1           0      -14.258352   -1.180765    0.924015
    132          1           0      -13.476602    1.609136    0.810440
    133          1           0      -15.268128    1.402733    1.027424
    134          1           0      -14.245309   -0.546705   -1.006355
    135          1           0      -13.432373    1.669408   -2.343323
    136          1           0      -12.651014    0.022462   -2.139513
    137          1           0      -12.327573    1.389464   -1.055388
    138          1           0      -15.592147    1.091820   -2.437722
    139          1           0      -16.314327    1.559684   -0.927553
    140          1           0      -16.221629   -0.177206   -1.519559
 ---------------------------------------------------------------------

 SCF Done:  E(RPBE1PBE) =  -3005.30094232     A.U. after   15 cycles

 Excitation energies and oscillator strengths:

 Excited State   1:      Singlet-A      1.8846 eV  657.89 nm  f=0.3784  <S**2>=0.000
     245 -> 248        0.16152
     246 -> 247        0.69612
     246 <- 247       -0.11235
 This state for optimization and/or second-order correction.
 Total Energy, E(TD-HF/TD-DFT) =  -3005.23168527
 Copying the excited state density for this state as the 1-particle RhoCI density.

 Excited State   2:      Singlet-A      2.2211 eV  558.21 nm  f=0.1223  <S**2>=0.000
     244 -> 247        0.11943
     245 -> 247        0.65736
     246 -> 248       -0.22308

 Excited State   3:      Singlet-A      2.7285 eV  454.41 nm  f=0.0179  <S**2>=0.000
     244 -> 247        0.68925

 Excited State   4:      Singlet-A      2.9427 eV  421.32 nm  f=0.0001  <S**2>=0.000
     242 -> 247        0.68018
     242 -> 249       -0.10224
     242 -> 251       -0.10844

 Excited State   5:      Singlet-A      2.9886 eV  414.85 nm  f=0.0026  <S**2>=0.000
     240 -> 247        0.25257
     240 -> 249        0.11501
     241 -> 247        0.62438
     241 -> 249        0.11444

 The electronic state is 1-A.
 Alpha  occ. eigenvalues --  -46.92853 -19.25820 -19.25051 -19.20324 -19.20010
 Alpha  occ. eigenvalues --  -19.19793 -19.18304 -14.41847 -14.41645 -14.38501
 Alpha  occ. eigenvalues --  -14.38491 -10.37061 -10.36818 -10.33420 -10.31608
 Alpha  occ. eigenvalues --  -10.29770 -10.28933 -10.28803 -10.28732 -10.28567
 Alpha  occ. eigenvalues --  -10.28251 -10.28248 -10.26861 -10.26475 -10.26442
 Alpha  occ. eigenvalues --  -10.26426 -10.26149 -10.25996 -10.25937 -10.25907
 Alpha  occ. eigenvalues --  -10.25882 -10.25827 -10.25744 -10.25427 -10.25235
 Alpha  occ. eigenvalues --  -10.25171 -10.25095 -10.24727 -10.24620 -10.24382
 Alpha  occ. eigenvalues --  -10.24172 -10.23765 -10.23484 -10.23452 -10.23442
 Alpha  occ. eigenvalues --  -10.23261 -10.23228 -10.23158 -10.22941 -10.22914
 Alpha  occ. eigenvalues --  -10.22849 -10.22746 -10.22740 -10.22654 -10.22493
 Alpha  occ. eigenvalues --  -10.22374 -10.22362 -10.22306 -10.22293 -10.22226
 Alpha  occ. eigenvalues --  -10.22165 -10.21819 -10.21619 -10.21497 -10.21492
 Alpha  occ. eigenvalues --  -10.21412  -3.15035  -1.87810  -1.87453  -1.87241
 Alpha  occ. eigenvalues --   -1.10259  -1.10221  -1.05306  -1.03357  -1.01877
 Alpha  occ. eigenvalues --   -1.01817  -1.01741  -0.99829  -0.98935  -0.97430
 Alpha  occ. eigenvalues --   -0.87334  -0.84485  -0.84311  -0.83987  -0.83827
 Alpha  occ. eigenvalues --   -0.83131  -0.82543  -0.82436  -0.81854  -0.81611
 Alpha  occ. eigenvalues --   -0.79498  -0.79132  -0.78800  -0.78742  -0.77793
 Alpha  occ. eigenvalues --   -0.76819  -0.76636  -0.75842  -0.75291  -0.75090
 Alpha  occ. eigenvalues --   -0.73840  -0.72953  -0.72661  -0.71744  -0.71116
 Alpha  occ. eigenvalues --   -0.70128  -0.69940  -0.69748  -0.68697  -0.67830
 Alpha  occ. eigenvalues --   -0.67736  -0.67056  -0.66250  -0.64960  -0.63506
 Alpha  occ. eigenvalues --   -0.63127  -0.62894  -0.61816  -0.60802  -0.60226
 Alpha  occ. eigenvalues --   -0.59991  -0.59444  -0.59366  -0.59320  -0.58071
 Alpha  occ. eigenvalues --   -0.58010  -0.57598  -0.57264  -0.56741  -0.54894
 Alpha  occ. eigenvalues --   -0.54475  -0.54076  -0.53284  -0.52895  -0.52601
 Alpha  occ. eigenvalues --   -0.51969  -0.50991  -0.50977  -0.50337  -0.50003
 Alpha  occ. eigenvalues --   -0.49457  -0.49355  -0.48841  -0.48596  -0.48527
 Alpha  occ. eigenvalues --   -0.48344  -0.48258  -0.47833  -0.47623  -0.47488
 Alpha  occ. eigenvalues --   -0.47303  -0.47184  -0.47068  -0.46829  -0.46534
 Alpha  occ. eigenvalues --   -0.46454  -0.46188  -0.46001  -0.45729  -0.45109
 Alpha  occ. eigenvalues --   -0.45066  -0.44924  -0.44636  -0.44518  -0.44295
 Alpha  occ. eigenvalues --   -0.44102  -0.43976  -0.43851  -0.43605  -0.43489
 Alpha  occ. eigenvalues --   -0.43370  -0.43060  -0.42914  -0.42801  -0.42418
 Alpha  occ. eigenvalues --   -0.42407  -0.41981  -0.41687  -0.41557  -0.41451
 Alpha  occ. eigenvalues --   -0.41237  -0.41183  -0.41027  -0.40768  -0.40727
 Alpha  occ. eigenvalues --   -0.40504  -0.40227  -0.40085  -0.39878  -0.39685
 Alpha  occ. eigenvalues --   -0.39476  -0.39330  -0.39223  -0.39177  -0.38900
 Alpha  occ. eigenvalues --   -0.38843  -0.38583  -0.38303  -0.38142  -0.37864
 Alpha  occ. eigenvalues --   -0.37720  -0.37678  -0.37342  -0.37296  -0.37078
 Alpha  occ. eigenvalues --   -0.36797  -0.36585  -0.36344  -0.36024  -0.36010
 Alpha  occ. eigenvalues --   -0.35757  -0.35690  -0.35411  -0.35290  -0.35079
 Alpha  occ. eigenvalues --   -0.34899  -0.34730  -0.34401  -0.34060  -0.33795
 Alpha  occ. eigenvalues --   -0.33534  -0.33195  -0.32710  -0.32592  -0.32273
 Alpha  occ. eigenvalues --   -0.32015  -0.31895  -0.31541  -0.31112  -0.30852
 Alpha  occ. eigenvalues --   -0.30462  -0.30028  -0.29515  -0.29107  -0.28978
 Alpha  occ. eigenvalues --   -0.28763  -0.28593  -0.28441  -0.27065  -0.25893
 Alpha  occ. eigenvalues --   -0.25522  -0.25399  -0.25338  -0.24426  -0.21169
 Alpha  occ. eigenvalues --   -0.19134
 Alpha virt. eigenvalues --   -0.11488  -0.04856  -0.03921  -0.02240  -0.01952
 Alpha virt. eigenvalues --   -0.00492  -0.00269   0.00395   0.01094   0.03304
 Alpha virt. eigenvalues --    0.03809   0.04863   0.04933   0.05117   0.05181

 Mulliken charges:
               1
     1  Mg   0.972327
     2  C    0.041833
     3  C   -0.065069
     4  C   -0.070356
     5  C   -0.098138
     6  N   -0.354758
     7  C    0.003425
     8  C   -0.114947
     9  C   -0.126526
    10  C    0.022780
    11  C    0.023003
    12  C    0.016327
    13  C    0.001313
    14  C    0.241220
    15  O   -0.282569
    16  O   -0.364471
    17  N   -0.457838
    18  C    0.208761
    19  C   -0.175551
    20  C   -0.089455
    21  C    0.187742
    22  C    0.060997
    23  C    0.018737
    24  O   -0.224301
    25  C   -0.002287
    26  N   -0.436367
    27  C    0.033894
    28  C   -0.091485
    29  C   -0.098113
    30  C    0.095874
    31  C    0.029995
    32  C   -0.032325
    33  C   -0.041845
    34  N   -0.386709
    35  C    0.106153
    36  C   -0.217750
    37  C   -0.028969
    38  C    0.120973
    39  C    0.072135
    40  C    0.155431
    41  O   -0.229810
    42  C   -0.169395
    43  C    0.294175
    44  O   -0.235304
    45  O   -0.391792
    46  C    0.134340
    47  C    0.262943
    48  C   -0.160641
    49  C   -0.198455
    50  C    0.019675
    51  C   -0.004578
    52  C   -0.036288
    53  C    0.025068
    54  C   -0.223983
    55  C   -0.016348
    56  C   -0.027024
    57  C   -0.012390
    58  C    0.003127
    59  C   -0.234078
    60  C   -0.006894
    61  C   -0.012292
    62  C   -0.023038
    63  C    0.013804
    64  C   -0.284486
    65  C    0.005578
    66  C   -0.010234
    67  H    0.003332
    68  H   -0.010181
    69  H   -0.009895
    70  H    0.049453
    71  H    0.056187
    72  H    0.052413
    73  H    0.033594
    74  H    0.059166
    75  H    0.060446
    76  H    0.049404
    77  H    0.064617
    78  H    0.061524
    79  H    0.068576
    80  H    0.025918
    81  H    0.058452
    82  H    0.061156
    83  H    0.068248
    84  H    0.052229
    85  H    0.039133
    86  H    0.033157
    87  H    0.040823
    88  H    0.060508
    89  H    0.044704
    90  H    0.051006
    91  H    0.034202
    92  H    0.038485
    93  H    0.047447
    94  H    0.026526
    95  H    0.045146
    96  H    0.067110
    97  H    0.067378
    98  H    0.083984
    99  H    0.052325
   100  H    0.070780
   101  H    0.044616
   102  H    0.038150
   103  H    0.067450
   104  H    0.022951
   105  H    0.040165
   106  H    0.067594
   107  H    0.031995
   108  H    0.035239
   109  H    0.024383
   110  H    0.037279
   111  H    0.026093
   112  H    0.020630
   113  H    0.021713
   114  H    0.031051
   115  H    0.037099
   116  H    0.045813
   117  H    0.024404
   118  H    0.024223
   119  H    0.018195
   120  H    0.018530
   121  H    0.027386
   122  H    0.015148
   123  H    0.031615
   124  H    0.025510
   125  H    0.037623
   126  H    0.043725
   127  H    0.030313
   128  H    0.017290
   129  H    0.011446
   130  H    0.024965
   131  H    0.031230
   132  H    0.034218
   133  H    0.037683
   134  H    0.032528
   135  H    0.027867
   136  H    0.043258
   137  H    0.021759
   138  H    0.008897
   139  H    0.042939
   140  H    0.034907
 Sum of Mulliken charges =  -0.00000

 Dipole moment (field-independent basis, Debye):
    X=              1.3865    Y=              4.4289    Z=              1.6789  Tot=              4.9352
 Quadrupole moment (field-independent basis, Debye-Ang):
   XX=           -353.2409   YY=           -445.9055   ZZ=           -397.7542
   XY=             37.5254   XZ=             -3.7549   YZ=             34.9437

 Normal termination of Gaussian 16 at Thu May  5 12:25:30 2022.
