 Gaussian 16, Revision A.03,
 Gaussian 16:  ES64L-G16RevA.03 25-Dec-2016

 --------------------------------
 #p wB97XD/Def2SVP td=(nstates=5)
 --------------------------------

 ---------------------------------------------------
 step_851_chromophore_5 TDDFT with wB97XD functional
 ---------------------------------------------------
 Symbolic Z-matrix:
 Charge =  0 Multiplicity = 1

                         Standard orientation:
 ---------------------------------------------------------------------
 Center     Atomic      Atomic             Coordinates (Angstroms)
 Number     Number       Type             X           Y           Z
 ---------------------------------------------------------------------
      1         12           0        5.403139    0.588261   -0.222899
      2          6           0        4.531659   -2.664282    0.258242
      3          6           0        3.162128    0.672239   -2.850964
      4          6           0        5.446479    3.916491   -0.108325
      5          6           0        7.074800    0.429806    2.784845
      6          7           0        3.785347   -0.725645   -0.959643
      7          6           0        3.713696   -2.061594   -0.675107
      8          6           0        2.754256   -2.838127   -1.515640
      9          6           0        2.745571   -1.891808   -2.770585
     10          6           0        3.279336   -0.554297   -2.175191
     11          6           0        3.534928   -2.315605   -4.051679
     12          6           0        1.443315   -2.883475   -0.703805
     13          6           0        0.136499   -3.516735   -1.370955
     14          6           0       -1.066676   -2.617378   -1.894007
     15          8           0       -1.145983   -2.192671   -3.047525
     16          8           0       -2.115448   -2.491968   -0.990754
     17          7           0        4.467200    2.141014   -1.432767
     18          6           0        3.633814    1.923530   -2.467699
     19          6           0        3.404319    3.148320   -3.096627
     20          6           0        3.949330    4.251270   -2.255737
     21          6           0        4.673967    3.489738   -1.228261
     22          6           0        2.538879    3.160222   -4.365731
     23          6           0        3.724969    5.741319   -2.477734
     24          8           0        3.123337    6.076888   -3.468060
     25          6           0        4.100756    6.779096   -1.493127
     26          7           0        6.050455    1.912100    1.156707
     27          6           0        6.127338    3.237481    0.907863
     28          6           0        7.079872    3.983101    1.860225
     29          6           0        7.307159    2.930424    2.986077
     30          6           0        6.802530    1.664484    2.280181
     31          6           0        8.365120    4.569662    1.146839
     32          6           0        6.524369    3.093010    4.293009
     33          6           0        7.228846    3.513070    5.536198
     34          7           0        5.950527   -0.843595    1.195093
     35          6           0        6.676854   -0.823421    2.275327
     36          6           0        6.995677   -2.118150    2.763905
     37          6           0        6.153388   -2.935053    1.976953
     38          6           0        5.492705   -2.057928    1.083987
     39          6           0        7.807633   -2.462527    3.906912
     40          6           0        5.708219   -4.337051    1.628279
     41          8           0        6.047266   -5.451168    2.077797
     42          6           0        4.557038   -4.152062    0.500664
     43          6           0        5.082648   -5.055612   -0.625302
     44          8           0        4.707387   -6.159258   -0.982545
     45          8           0        6.063013   -4.378477   -1.318312
     46          6           0        6.456664   -4.756659   -2.701129
     47          6           0       -3.344963   -1.952519   -1.640713
     48          6           0       -3.816378   -0.589040   -1.218205
     49          6           0       -4.413734   -0.221393   -0.051866
     50          6           0       -4.789297   -1.106989    1.139033
     51          6           0       -4.843375    1.224019    0.171001
     52          6           0       -6.154943    1.692556   -0.527038
     53          6           0       -7.152333    2.382250    0.351487
     54          6           0       -8.441357    1.534836    0.601164
     55          6           0       -9.760893    2.332328    0.618712
     56          6           0       -8.461986    0.711736    1.942641
     57          6           0       -9.171262   -0.658944    1.754385
     58          6           0      -10.443135   -0.694589    2.615954
     59          6           0      -11.722216   -0.943386    1.822975
     60          6           0      -11.752800   -2.481405    1.743363
     61          6           0      -12.956462   -0.259324    2.477213
     62          6           0      -14.221807   -0.324684    1.598688
     63          6           0      -14.335006    0.949033    0.692744
     64          6           0      -14.315879    0.524374   -0.818635
     65          6           0      -13.090212    0.895377   -1.656677
     66          6           0      -15.714989    0.780214   -1.399976
     67          1           0        2.601550    0.565428   -3.782084
     68          1           0        5.589774    4.986740    0.057130
     69          1           0        7.694133    0.398422    3.682518
     70          1           0        3.105005   -3.839038   -1.768425
     71          1           0        1.715103   -1.752672   -3.096465
     72          1           0        3.954845   -3.317036   -3.956641
     73          1           0        4.415026   -1.678665   -4.134846
     74          1           0        2.955552   -2.097533   -4.949020
     75          1           0        1.206976   -1.849111   -0.453683
     76          1           0        1.669683   -3.524723    0.147442
     77          1           0       -0.269250   -4.256951   -0.681808
     78          1           0        0.534051   -3.989137   -2.269162
     79          1           0        1.513628    3.456366   -4.140431
     80          1           0        2.446758    2.218845   -4.906696
     81          1           0        3.066073    3.785630   -5.085715
     82          1           0        5.158095    7.032917   -1.565255
     83          1           0        3.787759    6.416183   -0.514759
     84          1           0        3.634816    7.703010   -1.834811
     85          1           0        6.419085    4.773981    2.212933
     86          1           0        8.351247    2.878071    3.292228
     87          1           0        9.151925    3.815447    1.103754
     88          1           0        8.639738    5.473803    1.689281
     89          1           0        8.203043    4.738208    0.081434
     90          1           0        6.088166    2.122962    4.531822
     91          1           0        5.764900    3.859363    4.132417
     92          1           0        7.026286    2.830277    6.361278
     93          1           0        6.882050    4.490026    5.873431
     94          1           0        8.283849    3.387538    5.292725
     95          1           0        8.618992   -1.751728    4.062007
     96          1           0        8.184343   -3.468437    3.720566
     97          1           0        7.116482   -2.485606    4.749305
     98          1           0        3.667520   -4.618455    0.925488
     99          1           0        5.792375   -4.379893   -3.479024
    100          1           0        6.776602   -5.797626   -2.754546
    101          1           0        7.402396   -4.251203   -2.895996
    102          1           0       -4.134330   -2.605212   -1.266257
    103          1           0       -3.341494   -1.906485   -2.730263
    104          1           0       -3.737435    0.202316   -1.962595
    105          1           0       -5.702875   -0.826710    1.662437
    106          1           0       -4.016064   -1.145462    1.907039
    107          1           0       -5.023260   -2.084948    0.718275
    108          1           0       -4.084084    1.898373   -0.227627
    109          1           0       -4.806982    1.411819    1.243756
    110          1           0       -6.580205    0.971822   -1.225554
    111          1           0       -5.773983    2.531781   -1.108739
    112          1           0       -7.352249    3.319173   -0.167806
    113          1           0       -6.652470    2.651455    1.282714
    114          1           0       -8.523595    0.842857   -0.236477
    115          1           0      -10.304505    2.388096    1.560912
    116          1           0      -10.399976    1.864530   -0.129964
    117          1           0       -9.593316    3.362828    0.305828
    118          1           0       -8.977750    1.340684    2.669041
    119          1           0       -7.465706    0.658393    2.381444
    120          1           0       -8.377503   -1.332976    2.079360
    121          1           0       -9.303580   -1.048573    0.744443
    122          1           0      -10.562788    0.289238    3.069409
    123          1           0      -10.310761   -1.497903    3.341910
    124          1           0      -11.594328   -0.557156    0.812187
    125          1           0      -12.438847   -2.770037    2.539276
    126          1           0      -10.815576   -3.024375    1.869430
    127          1           0      -12.128841   -2.660520    0.736441
    128          1           0      -12.692282    0.769848    2.719393
    129          1           0      -13.088433   -0.568209    3.514442
    130          1           0      -15.097179   -0.398756    2.244035
    131          1           0      -14.258352   -1.180765    0.924015
    132          1           0      -13.476602    1.609136    0.810440
    133          1           0      -15.268128    1.402733    1.027424
    134          1           0      -14.245309   -0.546705   -1.006355
    135          1           0      -13.432373    1.669408   -2.343323
    136          1           0      -12.651014    0.022462   -2.139513
    137          1           0      -12.327573    1.389464   -1.055388
    138          1           0      -15.592147    1.091820   -2.437722
    139          1           0      -16.314327    1.559684   -0.927553
    140          1           0      -16.221629   -0.177206   -1.519559
 ---------------------------------------------------------------------

 SCF Done:  E(RwB97XD) =  -3007.81221136     A.U. after   17 cycles

 Excitation energies and oscillator strengths:

 Excited State   1:      Singlet-A      1.6902 eV  733.53 nm  f=0.3921  <S**2>=0.000
     245 -> 248        0.16985
     246 -> 247        0.68663
     245 <- 248        0.10987
 This state for optimization and/or second-order correction.
 Total Energy, E(TD-HF/TD-DFT) =  -3007.75009638
 Copying the excited state density for this state as the 1-particle RhoCI density.

 Excited State   2:      Singlet-A      2.1680 eV  571.88 nm  f=0.1336  <S**2>=0.000
     244 -> 247        0.10932
     245 -> 247        0.64776
     246 -> 248       -0.24982

 Excited State   3:      Singlet-A      3.0289 eV  409.34 nm  f=0.0108  <S**2>=0.000
     244 -> 247        0.67907
     246 -> 248        0.11302

 Excited State   4:      Singlet-A      3.5014 eV  354.10 nm  f=0.0035  <S**2>=0.000
     240 -> 247       -0.17342
     241 -> 247        0.13647
     241 -> 249        0.16930
     243 -> 247        0.57273
     243 -> 249        0.11402
     246 -> 248        0.17351

 Excited State   5:      Singlet-A      3.5534 eV  348.92 nm  f=0.0009  <S**2>=0.000
     240 -> 247        0.53460
     240 -> 248       -0.13375
     240 -> 249       -0.23242
     240 -> 251       -0.24142
     241 -> 247        0.14723
     243 -> 247        0.13927

 The electronic state is 1-A.
 Alpha  occ. eigenvalues --  -46.95839 -19.30383 -19.29591 -19.24992 -19.24683
 Alpha  occ. eigenvalues --  -19.24446 -19.23294 -14.47062 -14.46670 -14.43552
 Alpha  occ. eigenvalues --  -14.43315 -10.43846 -10.43606 -10.40108 -10.38606
 Alpha  occ. eigenvalues --  -10.36293 -10.35426 -10.35317 -10.35268 -10.35248
 Alpha  occ. eigenvalues --  -10.34362 -10.34289 -10.33204 -10.33145 -10.32716
 Alpha  occ. eigenvalues --  -10.32695 -10.32391 -10.32349 -10.32266 -10.32243
 Alpha  occ. eigenvalues --  -10.32179 -10.32092 -10.31971 -10.31859 -10.31735
 Alpha  occ. eigenvalues --  -10.31517 -10.31191 -10.31148 -10.31041 -10.30999
 Alpha  occ. eigenvalues --  -10.30653 -10.29977 -10.29925 -10.29712 -10.29697
 Alpha  occ. eigenvalues --  -10.29667 -10.29506 -10.29445 -10.29433 -10.29314
 Alpha  occ. eigenvalues --  -10.29233 -10.29221 -10.28994 -10.28956 -10.28850
 Alpha  occ. eigenvalues --  -10.28740 -10.28713 -10.28678 -10.28638 -10.28591
 Alpha  occ. eigenvalues --  -10.28529 -10.28241 -10.27985 -10.27937 -10.27933
 Alpha  occ. eigenvalues --  -10.27834  -3.21885  -1.95408  -1.95049  -1.94836
 Alpha  occ. eigenvalues --   -1.17635  -1.17610  -1.12946  -1.10698  -1.09170
 Alpha  occ. eigenvalues --   -1.09161  -1.08877  -1.07275  -1.06315  -1.05000
 Alpha  occ. eigenvalues --   -0.94866  -0.92160  -0.91822  -0.91629  -0.91482
 Alpha  occ. eigenvalues --   -0.90770  -0.90205  -0.89856  -0.89466  -0.89265
 Alpha  occ. eigenvalues --   -0.87261  -0.86918  -0.86457  -0.86346  -0.85487
 Alpha  occ. eigenvalues --   -0.84478  -0.84361  -0.83569  -0.82909  -0.82729
 Alpha  occ. eigenvalues --   -0.81499  -0.80502  -0.80246  -0.79468  -0.78736
 Alpha  occ. eigenvalues --   -0.77811  -0.77625  -0.77395  -0.76383  -0.75480
 Alpha  occ. eigenvalues --   -0.75304  -0.74675  -0.73817  -0.72598  -0.71001
 Alpha  occ. eigenvalues --   -0.70596  -0.70457  -0.69520  -0.68425  -0.67711
 Alpha  occ. eigenvalues --   -0.67523  -0.67054  -0.66854  -0.66768  -0.65688
 Alpha  occ. eigenvalues --   -0.65551  -0.64989  -0.64908  -0.64389  -0.62296
 Alpha  occ. eigenvalues --   -0.61948  -0.61418  -0.60686  -0.60291  -0.60086
 Alpha  occ. eigenvalues --   -0.59470  -0.58437  -0.58410  -0.57836  -0.57445
 Alpha  occ. eigenvalues --   -0.56823  -0.56761  -0.56324  -0.55967  -0.55868
 Alpha  occ. eigenvalues --   -0.55773  -0.55594  -0.55240  -0.54920  -0.54899
 Alpha  occ. eigenvalues --   -0.54724  -0.54698  -0.54415  -0.54212  -0.53957
 Alpha  occ. eigenvalues --   -0.53845  -0.53625  -0.53305  -0.53041  -0.52516
 Alpha  occ. eigenvalues --   -0.52397  -0.52299  -0.52025  -0.51892  -0.51589
 Alpha  occ. eigenvalues --   -0.51441  -0.51317  -0.51191  -0.50889  -0.50768
 Alpha  occ. eigenvalues --   -0.50702  -0.50343  -0.50172  -0.50050  -0.49672
 Alpha  occ. eigenvalues --   -0.49536  -0.49272  -0.49037  -0.48805  -0.48653
 Alpha  occ. eigenvalues --   -0.48481  -0.48466  -0.48370  -0.47999  -0.47853
 Alpha  occ. eigenvalues --   -0.47753  -0.47334  -0.47245  -0.46991  -0.46828
 Alpha  occ. eigenvalues --   -0.46617  -0.46457  -0.46419  -0.46228  -0.46093
 Alpha  occ. eigenvalues --   -0.46060  -0.45733  -0.45397  -0.45302  -0.45058
 Alpha  occ. eigenvalues --   -0.44921  -0.44788  -0.44499  -0.44430  -0.44112
 Alpha  occ. eigenvalues --   -0.43957  -0.43815  -0.43473  -0.43179  -0.43028
 Alpha  occ. eigenvalues --   -0.42850  -0.42789  -0.42444  -0.42344  -0.42129
 Alpha  occ. eigenvalues --   -0.41977  -0.41769  -0.41435  -0.41157  -0.40753
 Alpha  occ. eigenvalues --   -0.40577  -0.40260  -0.39678  -0.39575  -0.39326
 Alpha  occ. eigenvalues --   -0.38976  -0.38939  -0.38598  -0.38112  -0.37851
 Alpha  occ. eigenvalues --   -0.37458  -0.36939  -0.36426  -0.36126  -0.36039
 Alpha  occ. eigenvalues --   -0.35542  -0.35519  -0.35351  -0.33664  -0.32775
 Alpha  occ. eigenvalues --   -0.32666  -0.32047  -0.31963  -0.31220  -0.26218
 Alpha  occ. eigenvalues --   -0.23359
 Alpha virt. eigenvalues --   -0.07387   0.00645   0.02438   0.03728   0.04519
 Alpha virt. eigenvalues --    0.06239   0.06499   0.07202   0.07826   0.10003
 Alpha virt. eigenvalues --    0.10629   0.11439   0.11588   0.11652   0.11791

 Mulliken charges:
               1
     1  Mg   0.965737
     2  C    0.042186
     3  C   -0.084311
     4  C   -0.088452
     5  C   -0.120055
     6  N   -0.320559
     7  C   -0.033714
     8  C   -0.083133
     9  C   -0.103994
    10  C    0.014456
    11  C    0.037551
    12  C    0.026778
    13  C    0.017583
    14  C    0.230573
    15  O   -0.281209
    16  O   -0.364926
    17  N   -0.426593
    18  C    0.202580
    19  C   -0.166592
    20  C   -0.085780
    21  C    0.187917
    22  C    0.071896
    23  C    0.017111
    24  O   -0.219370
    25  C    0.006572
    26  N   -0.404725
    27  C    0.025843
    28  C   -0.065840
    29  C   -0.073937
    30  C    0.089749
    31  C    0.039826
    32  C   -0.020850
    33  C   -0.025378
    34  N   -0.343198
    35  C    0.095714
    36  C   -0.212845
    37  C   -0.031083
    38  C    0.100200
    39  C    0.084095
    40  C    0.134946
    41  O   -0.222556
    42  C   -0.127510
    43  C    0.269319
    44  O   -0.228621
    45  O   -0.391084
    46  C    0.151988
    47  C    0.279728
    48  C   -0.172826
    49  C   -0.187124
    50  C    0.041586
    51  C    0.014010
    52  C   -0.022089
    53  C    0.037942
    54  C   -0.192894
    55  C    0.003135
    56  C   -0.004702
    57  C   -0.005340
    58  C    0.030840
    59  C   -0.200210
    60  C    0.003206
    61  C    0.005543
    62  C   -0.004326
    63  C    0.030650
    64  C   -0.257748
    65  C    0.029796
    66  C    0.002425
    67  H   -0.002138
    68  H   -0.021014
    69  H   -0.016424
    70  H    0.034770
    71  H    0.043922
    72  H    0.041113
    73  H    0.025619
    74  H    0.055661
    75  H    0.051712
    76  H    0.039440
    77  H    0.061105
    78  H    0.054533
    79  H    0.066170
    80  H    0.022095
    81  H    0.055230
    82  H    0.058308
    83  H    0.063918
    84  H    0.051477
    85  H    0.028491
    86  H    0.021017
    87  H    0.035443
    88  H    0.056216
    89  H    0.037977
    90  H    0.041667
    91  H    0.024864
    92  H    0.032908
    93  H    0.041971
    94  H    0.018800
    95  H    0.038822
    96  H    0.061994
    97  H    0.061095
    98  H    0.078188
    99  H    0.045448
   100  H    0.067879
   101  H    0.040683
   102  H    0.032133
   103  H    0.064106
   104  H    0.019880
   105  H    0.026515
   106  H    0.063402
   107  H    0.024783
   108  H    0.027861
   109  H    0.015562
   110  H    0.029416
   111  H    0.018520
   112  H    0.013220
   113  H    0.012606
   114  H    0.015246
   115  H    0.028580
   116  H    0.032923
   117  H    0.018946
   118  H    0.013407
   119  H    0.007472
   120  H    0.010585
   121  H    0.019578
   122  H    0.000097
   123  H    0.022127
   124  H    0.002789
   125  H    0.030783
   126  H    0.037911
   127  H    0.024521
   128  H    0.006076
   129  H    0.004102
   130  H    0.019102
   131  H    0.018234
   132  H    0.021539
   133  H    0.030366
   134  H    0.019015
   135  H    0.021429
   136  H    0.039100
   137  H    0.003112
   138  H    0.001640
   139  H    0.037082
   140  H    0.029367
 Sum of Mulliken charges =  -0.00000

 Dipole moment (field-independent basis, Debye):
    X=              1.2240    Y=              4.8053    Z=              1.2037  Tot=              5.1028
 Quadrupole moment (field-independent basis, Debye-Ang):
   XX=           -354.8720   YY=           -444.5757   ZZ=           -397.5793
   XY=             39.3374   XZ=             -6.4942   YZ=             34.2287

 Normal termination of Gaussian 16 at Thu May  5 13:12:54 2022.
