 Gaussian 16, Revision A.03,
 Gaussian 16:  ES64L-G16RevA.03 25-Dec-2016

 --------------------
 #p ZINDO=(nstates=5)
 --------------------

 ----------------------------
 step_851_chromophore_5 ZINDO
 ----------------------------
 Symbolic Z-matrix:
 Charge =  0 Multiplicity = 1

                         Standard orientation:
 ---------------------------------------------------------------------
 Center     Atomic      Atomic             Coordinates (Angstroms)
 Number     Number       Type             X           Y           Z
 ---------------------------------------------------------------------
      1         12           0        5.403139    0.588261   -0.222899
      2          6           0        4.531659   -2.664282    0.258242
      3          6           0        3.162128    0.672239   -2.850964
      4          6           0        5.446479    3.916491   -0.108325
      5          6           0        7.074800    0.429806    2.784845
      6          7           0        3.785347   -0.725645   -0.959643
      7          6           0        3.713696   -2.061594   -0.675107
      8          6           0        2.754256   -2.838127   -1.515640
      9          6           0        2.745571   -1.891808   -2.770585
     10          6           0        3.279336   -0.554297   -2.175191
     11          6           0        3.534928   -2.315605   -4.051679
     12          6           0        1.443315   -2.883475   -0.703805
     13          6           0        0.136499   -3.516735   -1.370955
     14          6           0       -1.066676   -2.617378   -1.894007
     15          8           0       -1.145983   -2.192671   -3.047525
     16          8           0       -2.115448   -2.491968   -0.990754
     17          7           0        4.467200    2.141014   -1.432767
     18          6           0        3.633814    1.923530   -2.467699
     19          6           0        3.404319    3.148320   -3.096627
     20          6           0        3.949330    4.251270   -2.255737
     21          6           0        4.673967    3.489738   -1.228261
     22          6           0        2.538879    3.160222   -4.365731
     23          6           0        3.724969    5.741319   -2.477734
     24          8           0        3.123337    6.076888   -3.468060
     25          6           0        4.100756    6.779096   -1.493127
     26          7           0        6.050455    1.912100    1.156707
     27          6           0        6.127338    3.237481    0.907863
     28          6           0        7.079872    3.983101    1.860225
     29          6           0        7.307159    2.930424    2.986077
     30          6           0        6.802530    1.664484    2.280181
     31          6           0        8.365120    4.569662    1.146839
     32          6           0        6.524369    3.093010    4.293009
     33          6           0        7.228846    3.513070    5.536198
     34          7           0        5.950527   -0.843595    1.195093
     35          6           0        6.676854   -0.823421    2.275327
     36          6           0        6.995677   -2.118150    2.763905
     37          6           0        6.153388   -2.935053    1.976953
     38          6           0        5.492705   -2.057928    1.083987
     39          6           0        7.807633   -2.462527    3.906912
     40          6           0        5.708219   -4.337051    1.628279
     41          8           0        6.047266   -5.451168    2.077797
     42          6           0        4.557038   -4.152062    0.500664
     43          6           0        5.082648   -5.055612   -0.625302
     44          8           0        4.707387   -6.159258   -0.982545
     45          8           0        6.063013   -4.378477   -1.318312
     46          6           0        6.456664   -4.756659   -2.701129
     47          6           0       -3.344963   -1.952519   -1.640713
     48          6           0       -3.816378   -0.589040   -1.218205
     49          6           0       -4.413734   -0.221393   -0.051866
     50          6           0       -4.789297   -1.106989    1.139033
     51          6           0       -4.843375    1.224019    0.171001
     52          6           0       -6.154943    1.692556   -0.527038
     53          6           0       -7.152333    2.382250    0.351487
     54          6           0       -8.441357    1.534836    0.601164
     55          6           0       -9.760893    2.332328    0.618712
     56          6           0       -8.461986    0.711736    1.942641
     57          6           0       -9.171262   -0.658944    1.754385
     58          6           0      -10.443135   -0.694589    2.615954
     59          6           0      -11.722216   -0.943386    1.822975
     60          6           0      -11.752800   -2.481405    1.743363
     61          6           0      -12.956462   -0.259324    2.477213
     62          6           0      -14.221807   -0.324684    1.598688
     63          6           0      -14.335006    0.949033    0.692744
     64          6           0      -14.315879    0.524374   -0.818635
     65          6           0      -13.090212    0.895377   -1.656677
     66          6           0      -15.714989    0.780214   -1.399976
     67          1           0        2.601550    0.565428   -3.782084
     68          1           0        5.589774    4.986740    0.057130
     69          1           0        7.694133    0.398422    3.682518
     70          1           0        3.105005   -3.839038   -1.768425
     71          1           0        1.715103   -1.752672   -3.096465
     72          1           0        3.954845   -3.317036   -3.956641
     73          1           0        4.415026   -1.678665   -4.134846
     74          1           0        2.955552   -2.097533   -4.949020
     75          1           0        1.206976   -1.849111   -0.453683
     76          1           0        1.669683   -3.524723    0.147442
     77          1           0       -0.269250   -4.256951   -0.681808
     78          1           0        0.534051   -3.989137   -2.269162
     79          1           0        1.513628    3.456366   -4.140431
     80          1           0        2.446758    2.218845   -4.906696
     81          1           0        3.066073    3.785630   -5.085715
     82          1           0        5.158095    7.032917   -1.565255
     83          1           0        3.787759    6.416183   -0.514759
     84          1           0        3.634816    7.703010   -1.834811
     85          1           0        6.419085    4.773981    2.212933
     86          1           0        8.351247    2.878071    3.292228
     87          1           0        9.151925    3.815447    1.103754
     88          1           0        8.639738    5.473803    1.689281
     89          1           0        8.203043    4.738208    0.081434
     90          1           0        6.088166    2.122962    4.531822
     91          1           0        5.764900    3.859363    4.132417
     92          1           0        7.026286    2.830277    6.361278
     93          1           0        6.882050    4.490026    5.873431
     94          1           0        8.283849    3.387538    5.292725
     95          1           0        8.618992   -1.751728    4.062007
     96          1           0        8.184343   -3.468437    3.720566
     97          1           0        7.116482   -2.485606    4.749305
     98          1           0        3.667520   -4.618455    0.925488
     99          1           0        5.792375   -4.379893   -3.479024
    100          1           0        6.776602   -5.797626   -2.754546
    101          1           0        7.402396   -4.251203   -2.895996
    102          1           0       -4.134330   -2.605212   -1.266257
    103          1           0       -3.341494   -1.906485   -2.730263
    104          1           0       -3.737435    0.202316   -1.962595
    105          1           0       -5.702875   -0.826710    1.662437
    106          1           0       -4.016064   -1.145462    1.907039
    107          1           0       -5.023260   -2.084948    0.718275
    108          1           0       -4.084084    1.898373   -0.227627
    109          1           0       -4.806982    1.411819    1.243756
    110          1           0       -6.580205    0.971822   -1.225554
    111          1           0       -5.773983    2.531781   -1.108739
    112          1           0       -7.352249    3.319173   -0.167806
    113          1           0       -6.652470    2.651455    1.282714
    114          1           0       -8.523595    0.842857   -0.236477
    115          1           0      -10.304505    2.388096    1.560912
    116          1           0      -10.399976    1.864530   -0.129964
    117          1           0       -9.593316    3.362828    0.305828
    118          1           0       -8.977750    1.340684    2.669041
    119          1           0       -7.465706    0.658393    2.381444
    120          1           0       -8.377503   -1.332976    2.079360
    121          1           0       -9.303580   -1.048573    0.744443
    122          1           0      -10.562788    0.289238    3.069409
    123          1           0      -10.310761   -1.497903    3.341910
    124          1           0      -11.594328   -0.557156    0.812187
    125          1           0      -12.438847   -2.770037    2.539276
    126          1           0      -10.815576   -3.024375    1.869430
    127          1           0      -12.128841   -2.660520    0.736441
    128          1           0      -12.692282    0.769848    2.719393
    129          1           0      -13.088433   -0.568209    3.514442
    130          1           0      -15.097179   -0.398756    2.244035
    131          1           0      -14.258352   -1.180765    0.924015
    132          1           0      -13.476602    1.609136    0.810440
    133          1           0      -15.268128    1.402733    1.027424
    134          1           0      -14.245309   -0.546705   -1.006355
    135          1           0      -13.432373    1.669408   -2.343323
    136          1           0      -12.651014    0.022462   -2.139513
    137          1           0      -12.327573    1.389464   -1.055388
    138          1           0      -15.592147    1.091820   -2.437722
    139          1           0      -16.314327    1.559684   -0.927553
    140          1           0      -16.221629   -0.177206   -1.519559
 ---------------------------------------------------------------------

 SCF Done:  E(RZINDO/S) =  -474.463828775     A.U. after   20 cycles

 Excitation energies and oscillator strengths:

 Excited State   1:      Singlet-A      1.2458 eV  995.24 nm  f=0.5941  <S**2>=0.000
     175 ->178         0.17258
     176 ->177         0.66820
 This state for optimization and/or second-order correction.
 Total Energy, E(CIS/TDA) =  -474.418047334
 Copying the excited state density for this state as the 1-particle RhoCI density.

 Excited State   2:      Singlet-A      1.9027 eV  651.63 nm  f=0.0769  <S**2>=0.000
     175 ->177         0.57308
     176 ->178        -0.37791

 Excited State   3:      Singlet-A      2.8913 eV  428.81 nm  f=0.0116  <S**2>=0.000
     171 ->177        -0.12995
     176 ->179         0.11320
     176 ->180         0.67288

 Excited State   4:      Singlet-A      2.9304 eV  423.10 nm  f=0.1949  <S**2>=0.000
     171 ->177        -0.30871
     172 ->177         0.44133
     175 ->177         0.15110
     176 ->178         0.32711
     176 ->179        -0.15243
     176 ->180        -0.13143

 Excited State   5:      Singlet-A      2.9778 eV  416.36 nm  f=0.1578  <S**2>=0.000
     168 ->177         0.19514
     168 ->178        -0.10341
     168 ->179        -0.20496
     168 ->182        -0.19164
     168 ->186        -0.15802
     171 ->177        -0.16620
     172 ->177         0.17233
     174 ->177         0.16498
     175 ->177        -0.15434
     176 ->178        -0.20110
     176 ->179         0.33632
     176 ->180        -0.10414

 The electronic state is 1-A.
 Alpha  occ. eigenvalues --   -1.89549  -1.83949  -1.82136  -1.73571  -1.70701
 Alpha  occ. eigenvalues --   -1.70377  -1.66918  -1.61441  -1.60824  -1.55563
 Alpha  occ. eigenvalues --   -1.55479  -1.50445  -1.49797  -1.46992  -1.46870
 Alpha  occ. eigenvalues --   -1.44197  -1.43309  -1.41130  -1.39320  -1.39047
 Alpha  occ. eigenvalues --   -1.36304  -1.35256  -1.33897  -1.31138  -1.28992
 Alpha  occ. eigenvalues --   -1.26983  -1.26531  -1.23800  -1.21821  -1.19076
 Alpha  occ. eigenvalues --   -1.17935  -1.16924  -1.15174  -1.14579  -1.13513
 Alpha  occ. eigenvalues --   -1.12978  -1.09793  -1.09735  -1.06914  -1.04646
 Alpha  occ. eigenvalues --   -1.02486  -1.01318  -0.99816  -0.98139  -0.97188
 Alpha  occ. eigenvalues --   -0.94716  -0.94298  -0.94130  -0.93702  -0.92106
 Alpha  occ. eigenvalues --   -0.91375  -0.91164  -0.89242  -0.88483  -0.86908
 Alpha  occ. eigenvalues --   -0.86386  -0.85750  -0.83340  -0.82582  -0.81512
 Alpha  occ. eigenvalues --   -0.79588  -0.78176  -0.77499  -0.77415  -0.77120
 Alpha  occ. eigenvalues --   -0.75185  -0.74939  -0.74681  -0.74059  -0.72809
 Alpha  occ. eigenvalues --   -0.72465  -0.72046  -0.71360  -0.71159  -0.70830
 Alpha  occ. eigenvalues --   -0.69909  -0.69627  -0.69108  -0.68402  -0.67754
 Alpha  occ. eigenvalues --   -0.67534  -0.67018  -0.66389  -0.66323  -0.66136
 Alpha  occ. eigenvalues --   -0.65851  -0.65464  -0.65194  -0.64296  -0.64069
 Alpha  occ. eigenvalues --   -0.63870  -0.63512  -0.63162  -0.62641  -0.62177
 Alpha  occ. eigenvalues --   -0.62059  -0.61490  -0.60499  -0.60377  -0.59956
 Alpha  occ. eigenvalues --   -0.59741  -0.59722  -0.58986  -0.58683  -0.58279
 Alpha  occ. eigenvalues --   -0.57670  -0.57213  -0.56716  -0.56596  -0.56465
 Alpha  occ. eigenvalues --   -0.56326  -0.55743  -0.55445  -0.55274  -0.55178
 Alpha  occ. eigenvalues --   -0.54765  -0.54545  -0.54127  -0.53620  -0.53530
 Alpha  occ. eigenvalues --   -0.52907  -0.52716  -0.52356  -0.52066  -0.51948
 Alpha  occ. eigenvalues --   -0.51422  -0.50977  -0.50580  -0.50467  -0.50092
 Alpha  occ. eigenvalues --   -0.49957  -0.49748  -0.49385  -0.49145  -0.49045
 Alpha  occ. eigenvalues --   -0.48847  -0.48605  -0.48156  -0.48027  -0.47591
 Alpha  occ. eigenvalues --   -0.47490  -0.47401  -0.47252  -0.46880  -0.46629
 Alpha  occ. eigenvalues --   -0.46490  -0.46270  -0.45861  -0.45536  -0.45314
 Alpha  occ. eigenvalues --   -0.44882  -0.44429  -0.43933  -0.43685  -0.43396
 Alpha  occ. eigenvalues --   -0.43029  -0.42454  -0.41949  -0.41679  -0.41458
 Alpha  occ. eigenvalues --   -0.41396  -0.40951  -0.40424  -0.39462  -0.39057
 Alpha  occ. eigenvalues --   -0.38361  -0.37508  -0.35618  -0.34994  -0.34900
 Alpha  occ. eigenvalues --   -0.32979  -0.32634  -0.32477  -0.31788  -0.26881
 Alpha  occ. eigenvalues --   -0.22036
 Alpha virt. eigenvalues --   -0.08849  -0.01866  -0.00557   0.00250   0.01132
 Alpha virt. eigenvalues --    0.01243   0.02992   0.03145   0.04483   0.04700
 Alpha virt. eigenvalues --    0.05871   0.06623   0.07238   0.07678   0.08131

 Mulliken charges:
               1
     1  Mg   0.437186
     2  C   -0.041294
     3  C   -0.073067
     4  C   -0.102100
     5  C   -0.074886
     6  N   -0.274918
     7  C    0.107127
     8  C    0.005513
     9  C   -0.000396
    10  C    0.161894
    11  C   -0.051198
    12  C   -0.016182
    13  C   -0.005408
    14  C    0.459104
    15  O   -0.513486
    16  O   -0.260236
    17  N   -0.351136
    18  C    0.140452
    19  C    0.051986
    20  C   -0.063308
    21  C    0.145715
    22  C   -0.040852
    23  C    0.336642
    24  O   -0.518022
    25  C   -0.027624
    26  N   -0.278254
    27  C    0.163171
    28  C    0.000610
    29  C    0.002303
    30  C    0.102820
    31  C   -0.048418
    32  C   -0.028528
    33  C   -0.059330
    34  N   -0.294835
    35  C    0.092445
    36  C    0.014302
    37  C   -0.077769
    38  C    0.101620
    39  C   -0.033465
    40  C    0.316505
    41  O   -0.517663
    42  C    0.053179
    43  C    0.490786
    44  O   -0.515331
    45  O   -0.288672
    46  C    0.074015
    47  C    0.103859
    48  C   -0.090329
    49  C    0.001075
    50  C   -0.043532
    51  C   -0.024645
    52  C   -0.030674
    53  C   -0.028336
    54  C   -0.017025
    55  C   -0.061020
    56  C   -0.036068
    57  C   -0.039262
    58  C   -0.032768
    59  C   -0.014659
    60  C   -0.058270
    61  C   -0.032843
    62  C   -0.037927
    63  C   -0.035163
    64  C   -0.023134
    65  C   -0.055362
    66  C   -0.059679
    67  H    0.031484
    68  H    0.012340
    69  H    0.014959
    70  H    0.040112
    71  H    0.033299
    72  H    0.031496
    73  H    0.014446
    74  H    0.032393
    75  H    0.034979
    76  H    0.028732
    77  H    0.040351
    78  H    0.039134
    79  H    0.043762
    80  H    0.020913
    81  H    0.035092
    82  H    0.040956
    83  H    0.040656
    84  H    0.039426
    85  H    0.028803
    86  H    0.029740
    87  H    0.025343
    88  H    0.028512
    89  H    0.024942
    90  H    0.026090
    91  H    0.015716
    92  H    0.015202
    93  H    0.024394
    94  H    0.022478
    95  H    0.025233
    96  H    0.034190
    97  H    0.036546
    98  H    0.060399
    99  H    0.047565
   100  H    0.056186
   101  H    0.022140
   102  H    0.032125
   103  H    0.060666
   104  H    0.030534
   105  H    0.023488
   106  H    0.035637
   107  H    0.018638
   108  H    0.014716
   109  H    0.019736
   110  H    0.031439
   111  H    0.009016
   112  H    0.016587
   113  H    0.020161
   114  H    0.020645
   115  H    0.024405
   116  H    0.015069
   117  H    0.011999
   118  H    0.019298
   119  H    0.013275
   120  H    0.006362
   121  H    0.029168
   122  H    0.015766
   123  H    0.022223
   124  H    0.021086
   125  H    0.021507
   126  H    0.025266
   127  H    0.012343
   128  H    0.011707
   129  H    0.015716
   130  H    0.013379
   131  H    0.025877
   132  H    0.025082
   133  H    0.026120
   134  H    0.015870
   135  H    0.018201
   136  H    0.026236
   137  H    0.016831
   138  H    0.005056
   139  H    0.025960
   140  H    0.019570
 Sum of Mulliken charges =  -0.00000

 Dipole moment (field-independent basis, Debye):
    X=              1.0220    Y=              6.8548    Z=              1.0728  Tot=              7.0131
 N-N= 4.342841238001D+03 E-N= 0.000000000000D+00  KE=-9.359719375879D+03
 Leave Link  601 at Thu May  5 13:30:36 2022, MaxMem=  6710886400 cpu:               1.1 elap:               0.1
 (Enter /sw/apps/gaussian-16.0/g16/l9999.exe)
 1\1\GINC-BP1-COMPUTE183\SP\RZINDO CIS\STO-3G\C55H74Mg1N4O6\OF15641\05-
 May-2022\0\\#p ZINDO=(nstates=5)\\step_851_chromophore_5 ZINDO\\0,1\Mg
 ,0,24.449,-6.273,45.988\C,0,26.886,-4.089,45.06\C,0,22.241,-4.434,44.0
 7\C,0,22.331,-8.843,46.024\C,0,26.938,-8.263,47.296\N,0,24.629,-4.681,
 44.465\C,0,25.72,-3.863,44.358\C,0,25.525,-2.655,43.502\C,0,23.964,-2.
 536,43.642\C,0,23.567,-3.97,44.105\C,0,23.363,-1.435,44.575\C,0,26.042
 ,-3.056,42.105\C,0,25.85,-2.043,40.884\C,0,24.758,-2.28,39.752\O,0,23.

 Normal termination of Gaussian 16 at Thu May  5 13:30:36 2022.
