 Gaussian 16, Revision A.03,
 Gaussian 16:  ES64L-G16RevA.03 25-Dec-2016

 ------------------------------
 #p blyp/Def2SVP td=(nstates=5)
 ------------------------------

 --------------------------------------------------
 step_1001_chromophore_6 TDDFT with blyp functional
 --------------------------------------------------
 Symbolic Z-matrix:
 Charge =  0 Multiplicity = 1

                         Standard orientation:
 ---------------------------------------------------------------------
 Center     Atomic      Atomic             Coordinates (Angstroms)
 Number     Number       Type             X           Y           Z
 ---------------------------------------------------------------------
      1         12           0       -5.259282    0.950639   -0.330575
      2          6           0       -3.940804   -2.247537   -0.411875
      3          6           0       -1.988334    2.185112   -0.218062
      4          6           0       -6.434556    4.035719    0.197666
      5          6           0       -8.454848   -0.418425    0.247737
      6          7           0       -3.192452    0.053025   -0.275212
      7          6           0       -2.917556   -1.280454   -0.471932
      8          6           0       -1.408803   -1.461128   -0.504597
      9          6           0       -0.809437   -0.045993   -0.289484
     10          6           0       -2.090779    0.800527   -0.281340
     11          6           0       -0.075359    0.142963    1.098657
     12          6           0       -0.920165   -2.176233   -1.790365
     13          6           0       -0.118802   -3.497729   -1.541549
     14          6           0        0.911918   -3.529855   -0.376692
     15          8           0        0.705896   -4.004120    0.687394
     16          8           0        1.992360   -2.741526   -0.736056
     17          7           0       -4.352198    2.809563   -0.229778
     18          6           0       -3.017631    3.174314   -0.285052
     19          6           0       -2.915589    4.653481   -0.402846
     20          6           0       -4.237211    5.160098   -0.168680
     21          6           0       -5.041997    3.962026   -0.115272
     22          6           0       -1.671325    5.305404   -0.897238
     23          6           0       -4.678526    6.595420   -0.033185
     24          8           0       -5.867340    6.967778    0.015677
     25          6           0       -3.649565    7.648466   -0.033462
     26          7           0       -7.209955    1.715991    0.010653
     27          6           0       -7.315987    2.973002    0.360447
     28          6           0       -8.753371    3.183244    0.886700
     29          6           0       -9.503841    1.810822    0.529925
     30          6           0       -8.333673    0.959810    0.198583
     31          6           0       -8.839336    3.567368    2.495950
     32          6           0      -10.374376    1.927989   -0.760287
     33          6           0      -11.656193    1.163096   -0.924214
     34          7           0       -6.105976   -0.936679   -0.208255
     35          6           0       -7.395456   -1.363401    0.002953
     36          6           0       -7.452044   -2.826738   -0.136273
     37          6           0       -6.108846   -3.205974   -0.228173
     38          6           0       -5.302496   -2.010222   -0.272740
     39          6           0       -8.600741   -3.685304   -0.027233
     40          6           0       -5.222918   -4.294627   -0.360075
     41          8           0       -5.452892   -5.486789   -0.449025
     42          6           0       -3.729294   -3.737177   -0.353788
     43          6           0       -2.992058   -4.311724    0.813735
     44          8           0       -2.971706   -3.910142    1.933820
     45          8           0       -2.338342   -5.496643    0.493844
     46          6           0       -1.597232   -6.261903    1.502386
     47          6           0        2.899559   -2.205587    0.357587
     48          6           0        4.044121   -3.164648    0.567609
     49          6           0        5.151190   -2.997573    1.290874
     50          6           0        5.420401   -1.816374    2.241259
     51          6           0        6.196595   -4.079652    1.363551
     52          6           0        7.060627   -4.100776    0.082302
     53          6           0        7.939982   -2.886094   -0.243706
     54          6           0        7.405103   -2.069672   -1.448708
     55          6           0        8.055082   -2.569880   -2.727101
     56          6           0        7.713874   -0.512468   -1.197705
     57          6           0        9.156780   -0.165609   -0.610200
     58          6           0        9.821962    0.995056   -1.431640
     59          6           0       10.665511    1.840190   -0.505277
     60          6           0        9.835779    2.601580    0.565032
     61          6           0       11.600703    2.859036   -1.241495
     62          6           0       13.053572    2.475045   -0.847675
     63          6           0       13.771705    3.436083    0.177334
     64          6           0       14.846369    2.664174    0.990055
     65          6           0       16.313634    3.304407    0.742683
     66          6           0       14.483012    2.608075    2.475853
     67          1           0       -0.934848    2.473855   -0.227369
     68          1           0       -6.847801    4.918753    0.689509
     69          1           0       -9.459805   -0.811713    0.413750
     70          1           0       -1.100301   -2.157343    0.275478
     71          1           0       -0.129591    0.301760   -1.067513
     72          1           0        0.124211   -0.709549    1.748860
     73          1           0       -0.502315    0.865415    1.794525
     74          1           0        0.905219    0.532984    0.824917
     75          1           0       -0.405668   -1.437364   -2.404477
     76          1           0       -1.820113   -2.394906   -2.365549
     77          1           0        0.584315   -3.727074   -2.342254
     78          1           0       -0.753772   -4.381292   -1.608024
     79          1           0       -0.997989    4.664291   -1.467644
     80          1           0       -1.315819    5.644727    0.074922
     81          1           0       -1.749739    6.232671   -1.465112
     82          1           0       -2.844960    7.459407    0.678138
     83          1           0       -4.162766    8.589576    0.161268
     84          1           0       -3.242863    7.791917   -1.035294
     85          1           0       -9.165134    4.011879    0.310082
     86          1           0      -10.142922    1.436889    1.330063
     87          1           0       -7.835033    3.400497    2.885428
     88          1           0       -9.534804    2.965201    3.080128
     89          1           0       -8.998747    4.601167    2.802603
     90          1           0       -9.899355    1.719914   -1.719428
     91          1           0      -10.728588    2.958024   -0.738203
     92          1           0      -11.612239    0.613938   -1.864692
     93          1           0      -12.544429    1.793390   -0.897608
     94          1           0      -11.700181    0.419732   -0.128632
     95          1           0       -9.307900   -3.300359   -0.760542
     96          1           0       -9.084472   -3.742587    0.948183
     97          1           0       -8.299420   -4.693440   -0.310415
     98          1           0       -3.271706   -3.933256   -1.323661
     99          1           0       -0.534232   -6.022741    1.485849
    100          1           0       -1.854960   -7.240994    1.099886
    101          1           0       -2.084339   -6.101788    2.465104
    102          1           0        2.441841   -2.062956    1.336416
    103          1           0        3.372178   -1.258093    0.097225
    104          1           0        3.999155   -4.133756    0.070132
    105          1           0        4.721026   -0.995246    2.087270
    106          1           0        6.423054   -1.472100    1.988705
    107          1           0        5.426873   -2.160685    3.275946
    108          1           0        5.578878   -4.973728    1.451195
    109          1           0        6.782748   -3.945251    2.271879
    110          1           0        6.376748   -4.284273   -0.746855
    111          1           0        7.757547   -4.935023    0.167567
    112          1           0        8.930280   -3.229570   -0.543934
    113          1           0        7.920477   -2.330359    0.693945
    114          1           0        6.316878   -2.135587   -1.466276
    115          1           0        8.450024   -1.743638   -3.318728
    116          1           0        7.258950   -2.943630   -3.370404
    117          1           0        8.882556   -3.270735   -2.620203
    118          1           0        6.964795   -0.357463   -0.421271
    119          1           0        7.429559    0.165014   -2.002133
    120          1           0        9.793444   -1.047675   -0.682229
    121          1           0        9.004487    0.071916    0.443430
    122          1           0        8.962324    1.570505   -1.775909
    123          1           0       10.590829    0.678843   -2.136028
    124          1           0       11.188408    1.008393   -0.035004
    125          1           0       10.075432    2.093156    1.499209
    126          1           0        8.745914    2.628627    0.549303
    127          1           0       10.234875    3.575013    0.849074
    128          1           0       11.296733    3.873907   -0.985711
    129          1           0       11.503639    2.708865   -2.316747
    130          1           0       13.623692    2.605026   -1.767837
    131          1           0       13.147284    1.418945   -0.593996
    132          1           0       13.076098    3.977423    0.817564
    133          1           0       14.339666    4.190567   -0.367152
    134          1           0       15.071886    1.618929    0.778187
    135          1           0       16.393024    4.387784    0.837988
    136          1           0       16.582148    3.100971   -0.293725
    137          1           0       17.045289    2.807203    1.379308
    138          1           0       13.554855    3.103788    2.758552
    139          1           0       15.249004    3.200840    2.978154
    140          1           0       14.542115    1.564531    2.784873
 ---------------------------------------------------------------------

 SCF Done:  E(RB-LYP) =  -3007.34236937     A.U. after   22 cycles

 Excitation energies and oscillator strengths:

 Excited State   1:      Singlet-A      1.8045 eV  687.07 nm  f=0.3175  <S**2>=0.000
     245 -> 248        0.18224
     246 -> 247        0.68750
     246 <- 247       -0.15198
 This state for optimization and/or second-order correction.
 Total Energy, E(TD-HF/TD-DFT) =  -3007.27605398
 Copying the excited state density for this state as the 1-particle RhoCI density.

 Excited State   2:      Singlet-A      1.8788 eV  659.93 nm  f=0.0074  <S**2>=0.000
     244 -> 247        0.64473
     245 -> 247       -0.26540

 Excited State   3:      Singlet-A      1.9668 eV  630.37 nm  f=0.0305  <S**2>=0.000
     243 -> 247        0.47963
     244 -> 247       -0.24917
     245 -> 247       -0.42564
     246 -> 248        0.13604

 Excited State   4:      Singlet-A      2.0610 eV  601.57 nm  f=0.0401  <S**2>=0.000
     243 -> 247        0.50653
     244 -> 247        0.12947
     245 -> 247        0.42017
     246 -> 248       -0.18874

 Excited State   5:      Singlet-A      2.4097 eV  514.51 nm  f=0.0001  <S**2>=0.000
     242 -> 247        0.70707

 The electronic state is 1-A.
 Alpha  occ. eigenvalues --  -46.27115 -18.82808 -18.79106 -18.78164 -18.75440
 Alpha  occ. eigenvalues --  -18.75386 -18.75070 -14.03166 -14.02448 -14.01587
 Alpha  occ. eigenvalues --  -14.00907 -10.04909 -10.02578  -9.99907  -9.99371
 Alpha  occ. eigenvalues --   -9.98896  -9.96434  -9.96309  -9.96128  -9.95911
 Alpha  occ. eigenvalues --   -9.95903  -9.95668  -9.95614  -9.95605  -9.94899
 Alpha  occ. eigenvalues --   -9.94463  -9.94341  -9.93831  -9.93818  -9.93698
 Alpha  occ. eigenvalues --   -9.93624  -9.93605  -9.93474  -9.93446  -9.93412
 Alpha  occ. eigenvalues --   -9.93266  -9.92920  -9.92910  -9.92767  -9.92667
 Alpha  occ. eigenvalues --   -9.92603  -9.92480  -9.92236  -9.92176  -9.92174
 Alpha  occ. eigenvalues --   -9.92129  -9.91980  -9.91860  -9.91720  -9.91667
 Alpha  occ. eigenvalues --   -9.91646  -9.91593  -9.91587  -9.91435  -9.91429
 Alpha  occ. eigenvalues --   -9.91407  -9.91382  -9.91320  -9.91294  -9.91061
 Alpha  occ. eigenvalues --   -9.91047  -9.91043  -9.90728  -9.90647  -9.90623
 Alpha  occ. eigenvalues --   -9.90493  -2.91741  -1.72182  -1.71616  -1.71450
 Alpha  occ. eigenvalues --   -0.98562  -0.96272  -0.91441  -0.91050  -0.90435
 Alpha  occ. eigenvalues --   -0.88282  -0.86965  -0.86461  -0.85885  -0.85329
 Alpha  occ. eigenvalues --   -0.75583  -0.74350  -0.73080  -0.72714  -0.72495
 Alpha  occ. eigenvalues --   -0.71799  -0.71441  -0.71224  -0.70817  -0.70498
 Alpha  occ. eigenvalues --   -0.70178  -0.69007  -0.67912  -0.67034  -0.66797
 Alpha  occ. eigenvalues --   -0.66347  -0.66100  -0.65416  -0.64894  -0.64164
 Alpha  occ. eigenvalues --   -0.63667  -0.63313  -0.62682  -0.61648  -0.61163
 Alpha  occ. eigenvalues --   -0.60273  -0.60044  -0.59895  -0.59660  -0.59066
 Alpha  occ. eigenvalues --   -0.58462  -0.57728  -0.56752  -0.56084  -0.54486
 Alpha  occ. eigenvalues --   -0.53949  -0.53793  -0.52919  -0.52418  -0.51705
 Alpha  occ. eigenvalues --   -0.51671  -0.51468  -0.50742  -0.50178  -0.49985
 Alpha  occ. eigenvalues --   -0.49353  -0.48733  -0.47936  -0.47130  -0.47004
 Alpha  occ. eigenvalues --   -0.46348  -0.46112  -0.45735  -0.44979  -0.44409
 Alpha  occ. eigenvalues --   -0.44239  -0.43330  -0.43073  -0.42697  -0.42549
 Alpha  occ. eigenvalues --   -0.41925  -0.41690  -0.41638  -0.41407  -0.40921
 Alpha  occ. eigenvalues --   -0.40747  -0.40511  -0.40170  -0.40044  -0.39977
 Alpha  occ. eigenvalues --   -0.39836  -0.39665  -0.39559  -0.39433  -0.39299
 Alpha  occ. eigenvalues --   -0.38777  -0.38699  -0.38672  -0.38594  -0.38516
 Alpha  occ. eigenvalues --   -0.38279  -0.37821  -0.37736  -0.37440  -0.37261
 Alpha  occ. eigenvalues --   -0.37135  -0.37017  -0.36875  -0.36673  -0.36357
 Alpha  occ. eigenvalues --   -0.36294  -0.35960  -0.35788  -0.35652  -0.35523
 Alpha  occ. eigenvalues --   -0.35322  -0.35067  -0.34934  -0.34812  -0.34762
 Alpha  occ. eigenvalues --   -0.34583  -0.34478  -0.34397  -0.34324  -0.34004
 Alpha  occ. eigenvalues --   -0.33942  -0.33571  -0.33238  -0.33086  -0.33012
 Alpha  occ. eigenvalues --   -0.32920  -0.32718  -0.32544  -0.32497  -0.32383
 Alpha  occ. eigenvalues --   -0.32146  -0.32074  -0.31972  -0.31917  -0.31697
 Alpha  occ. eigenvalues --   -0.31603  -0.31505  -0.31144  -0.30883  -0.30671
 Alpha  occ. eigenvalues --   -0.30543  -0.30271  -0.30112  -0.29965  -0.29801
 Alpha  occ. eigenvalues --   -0.29736  -0.29490  -0.29462  -0.29201  -0.28855
 Alpha  occ. eigenvalues --   -0.28643  -0.28536  -0.28510  -0.27943  -0.27542
 Alpha  occ. eigenvalues --   -0.27438  -0.27316  -0.26905  -0.26614  -0.26476
 Alpha  occ. eigenvalues --   -0.26340  -0.25903  -0.25794  -0.25453  -0.25092
 Alpha  occ. eigenvalues --   -0.24445  -0.24044  -0.23605  -0.23326  -0.22949
 Alpha  occ. eigenvalues --   -0.22939  -0.22536  -0.21867  -0.20841  -0.20668
 Alpha  occ. eigenvalues --   -0.20473  -0.20252  -0.18679  -0.18240  -0.17133
 Alpha  occ. eigenvalues --   -0.15627
 Alpha virt. eigenvalues --   -0.11396  -0.06681  -0.06359  -0.04663  -0.03392
 Alpha virt. eigenvalues --   -0.01968  -0.01860  -0.01192  -0.01065   0.00465
 Alpha virt. eigenvalues --    0.01001   0.01212   0.02012   0.02472   0.02778

 Mulliken charges:
               1
     1  Mg   0.696059
     2  C   -0.025874
     3  C   -0.039459
     4  C   -0.031118
     5  C   -0.083058
     6  N   -0.184646
     7  C   -0.081745
     8  C    0.000544
     9  C    0.009452
    10  C   -0.020931
    11  C    0.085207
    12  C    0.150407
    13  C    0.116352
    14  C    0.081539
    15  O   -0.139195
    16  O   -0.299974
    17  N   -0.276993
    18  C    0.121359
    19  C   -0.134123
    20  C    0.035466
    21  C    0.116139
    22  C    0.162541
    23  C   -0.073017
    24  O   -0.184288
    25  C    0.139323
    26  N   -0.209284
    27  C    0.003521
    28  C    0.017868
    29  C    0.021734
    30  C    0.075564
    31  C    0.086744
    32  C    0.060920
    33  C    0.074406
    34  N   -0.256385
    35  C    0.097124
    36  C   -0.178113
    37  C    0.151700
    38  C    0.094145
    39  C    0.172165
    40  C   -0.124275
    41  O   -0.124339
    42  C    0.074933
    43  C    0.140021
    44  O   -0.151406
    45  O   -0.305970
    46  C    0.208227
    47  C    0.324036
    48  C   -0.117845
    49  C   -0.188447
    50  C    0.143793
    51  C    0.157283
    52  C    0.092339
    53  C    0.089878
    54  C   -0.096197
    55  C    0.137088
    56  C    0.056685
    57  C    0.042808
    58  C    0.144781
    59  C   -0.130482
    60  C    0.109240
    61  C    0.152001
    62  C    0.046801
    63  C    0.144314
    64  C   -0.111759
    65  C    0.059339
    66  C    0.112143
    67  H   -0.073574
    68  H   -0.028936
    69  H   -0.066637
    70  H    0.014380
    71  H   -0.017493
    72  H    0.011318
    73  H   -0.000478
    74  H   -0.019514
    75  H   -0.030255
    76  H   -0.023642
    77  H   -0.020578
    78  H    0.001561
    79  H    0.010203
    80  H    0.005048
    81  H   -0.007513
    82  H    0.002282
    83  H   -0.010681
    84  H    0.012209
    85  H   -0.015759
    86  H   -0.031832
    87  H   -0.010422
    88  H   -0.004804
    89  H   -0.001113
    90  H   -0.010132
    91  H   -0.026477
    92  H   -0.012370
    93  H   -0.003041
    94  H   -0.023404
    95  H   -0.008903
    96  H    0.010680
    97  H    0.003255
    98  H   -0.007715
    99  H    0.033432
   100  H    0.012331
   101  H    0.014142
   102  H    0.018435
   103  H    0.015076
   104  H   -0.035441
   105  H   -0.023541
   106  H   -0.010070
   107  H    0.012108
   108  H   -0.019348
   109  H   -0.041286
   110  H   -0.030908
   111  H   -0.036930
   112  H   -0.024854
   113  H   -0.033064
   114  H   -0.027180
   115  H   -0.026949
   116  H   -0.018564
   117  H   -0.014269
   118  H   -0.047750
   119  H   -0.027634
   120  H   -0.020830
   121  H   -0.021641
   122  H   -0.036328
   123  H   -0.028279
   124  H   -0.026186
   125  H   -0.035325
   126  H   -0.011657
   127  H   -0.028053
   128  H   -0.027605
   129  H   -0.046140
   130  H   -0.037507
   131  H   -0.020822
   132  H   -0.029086
   133  H   -0.038406
   134  H   -0.030466
   135  H   -0.010326
   136  H   -0.017535
   137  H   -0.015227
   138  H   -0.017239
   139  H   -0.029274
   140  H   -0.012531
 Sum of Mulliken charges =  -0.00000

 Dipole moment (field-independent basis, Debye):
    X=              4.3924    Y=              3.1229    Z=             -1.3160  Tot=              5.5478
 Quadrupole moment (field-independent basis, Debye-Ang):
   XX=           -383.9360   YY=           -438.1706   ZZ=           -404.7737
   XY=             -9.6437   XZ=              4.0409   YZ=              1.3747

 Normal termination of Gaussian 16 at Tue Apr 26 23:38:55 2022.
