 Gaussian 16, Revision A.03,
 Gaussian 16:  ES64L-G16RevA.03 25-Dec-2016

 -----------------------------------
 #p cam-b3lyp/Def2SVP td=(nstates=5)
 -----------------------------------

 -------------------------------------------------------
 step_1001_chromophore_6 TDDFT with cam-b3lyp functional
 -------------------------------------------------------
 Symbolic Z-matrix:
 Charge =  0 Multiplicity = 1

                         Standard orientation:
 ---------------------------------------------------------------------
 Center     Atomic      Atomic             Coordinates (Angstroms)
 Number     Number       Type             X           Y           Z
 ---------------------------------------------------------------------
      1         12           0       -5.259282    0.950639   -0.330575
      2          6           0       -3.940804   -2.247537   -0.411875
      3          6           0       -1.988334    2.185112   -0.218062
      4          6           0       -6.434556    4.035719    0.197666
      5          6           0       -8.454848   -0.418425    0.247737
      6          7           0       -3.192452    0.053025   -0.275212
      7          6           0       -2.917556   -1.280454   -0.471932
      8          6           0       -1.408803   -1.461128   -0.504597
      9          6           0       -0.809437   -0.045993   -0.289484
     10          6           0       -2.090779    0.800527   -0.281340
     11          6           0       -0.075359    0.142963    1.098657
     12          6           0       -0.920165   -2.176233   -1.790365
     13          6           0       -0.118802   -3.497729   -1.541549
     14          6           0        0.911918   -3.529855   -0.376692
     15          8           0        0.705896   -4.004120    0.687394
     16          8           0        1.992360   -2.741526   -0.736056
     17          7           0       -4.352198    2.809563   -0.229778
     18          6           0       -3.017631    3.174314   -0.285052
     19          6           0       -2.915589    4.653481   -0.402846
     20          6           0       -4.237211    5.160098   -0.168680
     21          6           0       -5.041997    3.962026   -0.115272
     22          6           0       -1.671325    5.305404   -0.897238
     23          6           0       -4.678526    6.595420   -0.033185
     24          8           0       -5.867340    6.967778    0.015677
     25          6           0       -3.649565    7.648466   -0.033462
     26          7           0       -7.209955    1.715991    0.010653
     27          6           0       -7.315987    2.973002    0.360447
     28          6           0       -8.753371    3.183244    0.886700
     29          6           0       -9.503841    1.810822    0.529925
     30          6           0       -8.333673    0.959810    0.198583
     31          6           0       -8.839336    3.567368    2.495950
     32          6           0      -10.374376    1.927989   -0.760287
     33          6           0      -11.656193    1.163096   -0.924214
     34          7           0       -6.105976   -0.936679   -0.208255
     35          6           0       -7.395456   -1.363401    0.002953
     36          6           0       -7.452044   -2.826738   -0.136273
     37          6           0       -6.108846   -3.205974   -0.228173
     38          6           0       -5.302496   -2.010222   -0.272740
     39          6           0       -8.600741   -3.685304   -0.027233
     40          6           0       -5.222918   -4.294627   -0.360075
     41          8           0       -5.452892   -5.486789   -0.449025
     42          6           0       -3.729294   -3.737177   -0.353788
     43          6           0       -2.992058   -4.311724    0.813735
     44          8           0       -2.971706   -3.910142    1.933820
     45          8           0       -2.338342   -5.496643    0.493844
     46          6           0       -1.597232   -6.261903    1.502386
     47          6           0        2.899559   -2.205587    0.357587
     48          6           0        4.044121   -3.164648    0.567609
     49          6           0        5.151190   -2.997573    1.290874
     50          6           0        5.420401   -1.816374    2.241259
     51          6           0        6.196595   -4.079652    1.363551
     52          6           0        7.060627   -4.100776    0.082302
     53          6           0        7.939982   -2.886094   -0.243706
     54          6           0        7.405103   -2.069672   -1.448708
     55          6           0        8.055082   -2.569880   -2.727101
     56          6           0        7.713874   -0.512468   -1.197705
     57          6           0        9.156780   -0.165609   -0.610200
     58          6           0        9.821962    0.995056   -1.431640
     59          6           0       10.665511    1.840190   -0.505277
     60          6           0        9.835779    2.601580    0.565032
     61          6           0       11.600703    2.859036   -1.241495
     62          6           0       13.053572    2.475045   -0.847675
     63          6           0       13.771705    3.436083    0.177334
     64          6           0       14.846369    2.664174    0.990055
     65          6           0       16.313634    3.304407    0.742683
     66          6           0       14.483012    2.608075    2.475853
     67          1           0       -0.934848    2.473855   -0.227369
     68          1           0       -6.847801    4.918753    0.689509
     69          1           0       -9.459805   -0.811713    0.413750
     70          1           0       -1.100301   -2.157343    0.275478
     71          1           0       -0.129591    0.301760   -1.067513
     72          1           0        0.124211   -0.709549    1.748860
     73          1           0       -0.502315    0.865415    1.794525
     74          1           0        0.905219    0.532984    0.824917
     75          1           0       -0.405668   -1.437364   -2.404477
     76          1           0       -1.820113   -2.394906   -2.365549
     77          1           0        0.584315   -3.727074   -2.342254
     78          1           0       -0.753772   -4.381292   -1.608024
     79          1           0       -0.997989    4.664291   -1.467644
     80          1           0       -1.315819    5.644727    0.074922
     81          1           0       -1.749739    6.232671   -1.465112
     82          1           0       -2.844960    7.459407    0.678138
     83          1           0       -4.162766    8.589576    0.161268
     84          1           0       -3.242863    7.791917   -1.035294
     85          1           0       -9.165134    4.011879    0.310082
     86          1           0      -10.142922    1.436889    1.330063
     87          1           0       -7.835033    3.400497    2.885428
     88          1           0       -9.534804    2.965201    3.080128
     89          1           0       -8.998747    4.601167    2.802603
     90          1           0       -9.899355    1.719914   -1.719428
     91          1           0      -10.728588    2.958024   -0.738203
     92          1           0      -11.612239    0.613938   -1.864692
     93          1           0      -12.544429    1.793390   -0.897608
     94          1           0      -11.700181    0.419732   -0.128632
     95          1           0       -9.307900   -3.300359   -0.760542
     96          1           0       -9.084472   -3.742587    0.948183
     97          1           0       -8.299420   -4.693440   -0.310415
     98          1           0       -3.271706   -3.933256   -1.323661
     99          1           0       -0.534232   -6.022741    1.485849
    100          1           0       -1.854960   -7.240994    1.099886
    101          1           0       -2.084339   -6.101788    2.465104
    102          1           0        2.441841   -2.062956    1.336416
    103          1           0        3.372178   -1.258093    0.097225
    104          1           0        3.999155   -4.133756    0.070132
    105          1           0        4.721026   -0.995246    2.087270
    106          1           0        6.423054   -1.472100    1.988705
    107          1           0        5.426873   -2.160685    3.275946
    108          1           0        5.578878   -4.973728    1.451195
    109          1           0        6.782748   -3.945251    2.271879
    110          1           0        6.376748   -4.284273   -0.746855
    111          1           0        7.757547   -4.935023    0.167567
    112          1           0        8.930280   -3.229570   -0.543934
    113          1           0        7.920477   -2.330359    0.693945
    114          1           0        6.316878   -2.135587   -1.466276
    115          1           0        8.450024   -1.743638   -3.318728
    116          1           0        7.258950   -2.943630   -3.370404
    117          1           0        8.882556   -3.270735   -2.620203
    118          1           0        6.964795   -0.357463   -0.421271
    119          1           0        7.429559    0.165014   -2.002133
    120          1           0        9.793444   -1.047675   -0.682229
    121          1           0        9.004487    0.071916    0.443430
    122          1           0        8.962324    1.570505   -1.775909
    123          1           0       10.590829    0.678843   -2.136028
    124          1           0       11.188408    1.008393   -0.035004
    125          1           0       10.075432    2.093156    1.499209
    126          1           0        8.745914    2.628627    0.549303
    127          1           0       10.234875    3.575013    0.849074
    128          1           0       11.296733    3.873907   -0.985711
    129          1           0       11.503639    2.708865   -2.316747
    130          1           0       13.623692    2.605026   -1.767837
    131          1           0       13.147284    1.418945   -0.593996
    132          1           0       13.076098    3.977423    0.817564
    133          1           0       14.339666    4.190567   -0.367152
    134          1           0       15.071886    1.618929    0.778187
    135          1           0       16.393024    4.387784    0.837988
    136          1           0       16.582148    3.100971   -0.293725
    137          1           0       17.045289    2.807203    1.379308
    138          1           0       13.554855    3.103788    2.758552
    139          1           0       15.249004    3.200840    2.978154
    140          1           0       14.542115    1.564531    2.784873
 ---------------------------------------------------------------------

 SCF Done:  E(RCAM-B3LYP) =  -3007.14029685     A.U. after   17 cycles

 Excitation energies and oscillator strengths:

 Excited State   1:      Singlet-A      1.7089 eV  725.53 nm  f=0.3988  <S**2>=0.000
     245 -> 248       -0.18434
     246 -> 247        0.68529
     245 <- 248       -0.10887
 This state for optimization and/or second-order correction.
 Total Energy, E(TD-HF/TD-DFT) =  -3007.07749677
 Copying the excited state density for this state as the 1-particle RhoCI density.

 Excited State   2:      Singlet-A      2.2517 eV  550.62 nm  f=0.1047  <S**2>=0.000
     245 -> 247        0.63762
     246 -> 248        0.29680

 Excited State   3:      Singlet-A      3.4482 eV  359.56 nm  f=0.1914  <S**2>=0.000
     239 -> 249        0.12084
     241 -> 247        0.44930
     244 -> 247       -0.24955
     245 -> 247        0.15301
     246 -> 248       -0.39702

 Excited State   4:      Singlet-A      3.4597 eV  358.37 nm  f=0.0026  <S**2>=0.000
     241 -> 249       -0.10292
     242 -> 247        0.56768
     242 -> 249        0.24739
     242 -> 250        0.23016

 Excited State   5:      Singlet-A      3.5335 eV  350.89 nm  f=0.3559  <S**2>=0.000
     241 -> 247       -0.14706
     244 -> 247        0.48091
     245 -> 247        0.20367
     246 -> 248       -0.43399

 The electronic state is 1-A.
 Alpha  occ. eigenvalues --  -46.88652 -19.25679 -19.21879 -19.21165 -19.18890
 Alpha  occ. eigenvalues --  -19.18498 -19.18068 -14.42164 -14.41058 -14.40189
 Alpha  occ. eigenvalues --  -14.39260 -10.40139 -10.37992 -10.35364 -10.34079
 Alpha  occ. eigenvalues --  -10.33556 -10.30975 -10.30767 -10.30662 -10.30620
 Alpha  occ. eigenvalues --  -10.30177 -10.30065 -10.29979 -10.29649 -10.29464
 Alpha  occ. eigenvalues --  -10.28515 -10.28409 -10.27831 -10.27790 -10.27741
 Alpha  occ. eigenvalues --  -10.27730 -10.27699 -10.27685 -10.27570 -10.27414
 Alpha  occ. eigenvalues --  -10.27410 -10.27266 -10.27254 -10.26759 -10.26638
 Alpha  occ. eigenvalues --  -10.26514 -10.26261 -10.26199 -10.25956 -10.25944
 Alpha  occ. eigenvalues --  -10.25889 -10.25878 -10.25664 -10.25532 -10.25380
 Alpha  occ. eigenvalues --  -10.25346 -10.25305 -10.25180 -10.25143 -10.25137
 Alpha  occ. eigenvalues --  -10.25100 -10.25080 -10.24988 -10.24902 -10.24743
 Alpha  occ. eigenvalues --  -10.24736 -10.24715 -10.24494 -10.24285 -10.24261
 Alpha  occ. eigenvalues --  -10.24068  -3.17184  -1.92101  -1.91631  -1.91487
 Alpha  occ. eigenvalues --   -1.17065  -1.14844  -1.09304  -1.09268  -1.09019
 Alpha  occ. eigenvalues --   -1.06097  -1.04712  -1.04157  -1.03546  -1.02819
 Alpha  occ. eigenvalues --   -0.92681  -0.91304  -0.89905  -0.89456  -0.89167
 Alpha  occ. eigenvalues --   -0.88480  -0.88283  -0.87994  -0.87410  -0.86989
 Alpha  occ. eigenvalues --   -0.86582  -0.85312  -0.84184  -0.83216  -0.82924
 Alpha  occ. eigenvalues --   -0.82545  -0.82255  -0.81434  -0.80719  -0.79912
 Alpha  occ. eigenvalues --   -0.79437  -0.79239  -0.78304  -0.77062  -0.76576
 Alpha  occ. eigenvalues --   -0.75581  -0.75394  -0.75250  -0.74886  -0.74325
 Alpha  occ. eigenvalues --   -0.73507  -0.72701  -0.71652  -0.70910  -0.69160
 Alpha  occ. eigenvalues --   -0.68666  -0.68203  -0.67445  -0.66776  -0.65918
 Alpha  occ. eigenvalues --   -0.65761  -0.65683  -0.64838  -0.64088  -0.63691
 Alpha  occ. eigenvalues --   -0.63355  -0.62656  -0.61727  -0.60861  -0.60684
 Alpha  occ. eigenvalues --   -0.59884  -0.59685  -0.59227  -0.58279  -0.57926
 Alpha  occ. eigenvalues --   -0.57603  -0.56615  -0.56477  -0.55899  -0.55644
 Alpha  occ. eigenvalues --   -0.55312  -0.54840  -0.54500  -0.54368  -0.53667
 Alpha  occ. eigenvalues --   -0.53455  -0.53164  -0.53101  -0.52942  -0.52558
 Alpha  occ. eigenvalues --   -0.52523  -0.52352  -0.52175  -0.51931  -0.51871
 Alpha  occ. eigenvalues --   -0.51772  -0.51187  -0.51143  -0.51068  -0.51006
 Alpha  occ. eigenvalues --   -0.50583  -0.50424  -0.50199  -0.50013  -0.49674
 Alpha  occ. eigenvalues --   -0.49383  -0.49370  -0.49134  -0.48872  -0.48787
 Alpha  occ. eigenvalues --   -0.48468  -0.48209  -0.48068  -0.47985  -0.47769
 Alpha  occ. eigenvalues --   -0.47547  -0.47404  -0.46788  -0.46744  -0.46719
 Alpha  occ. eigenvalues --   -0.46422  -0.46310  -0.46197  -0.46164  -0.45844
 Alpha  occ. eigenvalues --   -0.45681  -0.45412  -0.45051  -0.44813  -0.44728
 Alpha  occ. eigenvalues --   -0.44443  -0.44387  -0.44271  -0.44125  -0.44078
 Alpha  occ. eigenvalues --   -0.43817  -0.43718  -0.43589  -0.43523  -0.43427
 Alpha  occ. eigenvalues --   -0.43357  -0.43048  -0.42826  -0.42324  -0.42070
 Alpha  occ. eigenvalues --   -0.41830  -0.41769  -0.41485  -0.41297  -0.41185
 Alpha  occ. eigenvalues --   -0.40888  -0.40661  -0.40556  -0.40303  -0.39991
 Alpha  occ. eigenvalues --   -0.39742  -0.39524  -0.39504  -0.39478  -0.38880
 Alpha  occ. eigenvalues --   -0.38437  -0.38267  -0.37980  -0.37577  -0.37439
 Alpha  occ. eigenvalues --   -0.37346  -0.36681  -0.36392  -0.36161  -0.36082
 Alpha  occ. eigenvalues --   -0.34961  -0.34571  -0.34523  -0.34369  -0.33806
 Alpha  occ. eigenvalues --   -0.33665  -0.33260  -0.32807  -0.31440  -0.30897
 Alpha  occ. eigenvalues --   -0.30270  -0.30017  -0.29952  -0.29657  -0.23930
 Alpha  occ. eigenvalues --   -0.20885
 Alpha virt. eigenvalues --   -0.08512  -0.01512   0.00039   0.02233   0.02999
 Alpha virt. eigenvalues --    0.04635   0.05256   0.05969   0.06320   0.06558
 Alpha virt. eigenvalues --    0.07476   0.07896   0.08750   0.09000   0.09250

 Mulliken charges:
               1
     1  Mg   0.830888
     2  C   -0.044209
     3  C   -0.052066
     4  C   -0.046920
     5  C   -0.085112
     6  N   -0.252929
     7  C   -0.039090
     8  C   -0.054883
     9  C   -0.040263
    10  C    0.000236
    11  C    0.029408
    12  C    0.099881
    13  C    0.046750
    14  C    0.154810
    15  O   -0.177885
    16  O   -0.364682
    17  N   -0.365293
    18  C    0.125164
    19  C   -0.127852
    20  C   -0.034053
    21  C    0.142856
    22  C    0.096110
    23  C    0.009247
    24  O   -0.222643
    25  C    0.052008
    26  N   -0.288470
    27  C    0.028580
    28  C   -0.040478
    29  C   -0.038621
    30  C    0.092271
    31  C    0.032826
    32  C    0.009725
    33  C    0.014707
    34  N   -0.345417
    35  C    0.100053
    36  C   -0.168493
    37  C    0.068897
    38  C    0.125908
    39  C    0.113149
    40  C   -0.026162
    41  O   -0.164618
    42  C    0.000382
    43  C    0.222917
    44  O   -0.186576
    45  O   -0.369671
    46  C    0.172540
    47  C    0.293691
    48  C   -0.134602
    49  C   -0.214532
    50  C    0.089592
    51  C    0.092303
    52  C    0.043139
    53  C    0.031531
    54  C   -0.144797
    55  C    0.072821
    56  C    0.015101
    57  C   -0.015508
    58  C    0.095185
    59  C   -0.178433
    60  C    0.044812
    61  C    0.091132
    62  C   -0.006732
    63  C    0.090406
    64  C   -0.171506
    65  C    0.004371
    66  C    0.051911
    67  H   -0.036206
    68  H    0.007063
    69  H   -0.031687
    70  H    0.044087
    71  H    0.016832
    72  H    0.034984
    73  H    0.026555
    74  H    0.002161
    75  H    0.001613
    76  H    0.007996
    77  H    0.014190
    78  H    0.033782
    79  H    0.039238
    80  H    0.031309
    81  H    0.021426
    82  H    0.030644
    83  H    0.027099
    84  H    0.040532
    85  H    0.019327
    86  H    0.004351
    87  H    0.013531
    88  H    0.019076
    89  H    0.022595
    90  H    0.018285
    91  H    0.001160
    92  H    0.011689
    93  H    0.020415
    94  H   -0.002942
    95  H    0.015240
    96  H    0.035928
    97  H    0.031527
    98  H    0.033614
    99  H    0.053435
   100  H    0.035247
   101  H    0.039227
   102  H    0.046443
   103  H    0.039373
   104  H   -0.002256
   105  H   -0.000340
   106  H    0.009508
   107  H    0.036914
   108  H    0.013102
   109  H   -0.009419
   110  H   -0.004235
   111  H   -0.006114
   112  H    0.003912
   113  H   -0.008604
   114  H    0.004121
   115  H   -0.001780
   116  H    0.006356
   117  H    0.009772
   118  H   -0.022609
   119  H    0.000309
   120  H    0.006146
   121  H    0.005873
   122  H   -0.008800
   123  H   -0.000713
   124  H    0.003397
   125  H   -0.010425
   126  H    0.012919
   127  H   -0.003470
   128  H    0.001797
   129  H   -0.013639
   130  H   -0.008655
   131  H    0.005871
   132  H   -0.003385
   133  H   -0.008490
   134  H    0.001107
   135  H    0.012234
   136  H    0.005755
   137  H    0.008649
   138  H    0.006329
   139  H   -0.004174
   140  H    0.011088
 Sum of Mulliken charges =  -0.00000

 Dipole moment (field-independent basis, Debye):
    X=              4.9917    Y=              4.0152    Z=             -1.3516  Tot=              6.5472
 Quadrupole moment (field-independent basis, Debye-Ang):
   XX=           -386.6789   YY=           -433.2530   ZZ=           -404.6186
   XY=            -11.8980   XZ=              3.7748   YZ=              1.6178

 Normal termination of Gaussian 16 at Tue Apr 26 22:43:54 2022.
