 Gaussian 16, Revision A.03,
 Gaussian 16:  ES64L-G16RevA.03 25-Dec-2016

 ---------------------------------
 #p PBE1PBE/Def2SVP td=(nstates=5)
 ---------------------------------

 -----------------------------------------------------
 step_1001_chromophore_6 TDDFT with PBE1PBE functional
 -----------------------------------------------------
 Symbolic Z-matrix:
 Charge =  0 Multiplicity = 1

                         Standard orientation:
 ---------------------------------------------------------------------
 Center     Atomic      Atomic             Coordinates (Angstroms)
 Number     Number       Type             X           Y           Z
 ---------------------------------------------------------------------
      1         12           0       -5.259282    0.950639   -0.330575
      2          6           0       -3.940804   -2.247537   -0.411875
      3          6           0       -1.988334    2.185112   -0.218062
      4          6           0       -6.434556    4.035719    0.197666
      5          6           0       -8.454848   -0.418425    0.247737
      6          7           0       -3.192452    0.053025   -0.275212
      7          6           0       -2.917556   -1.280454   -0.471932
      8          6           0       -1.408803   -1.461128   -0.504597
      9          6           0       -0.809437   -0.045993   -0.289484
     10          6           0       -2.090779    0.800527   -0.281340
     11          6           0       -0.075359    0.142963    1.098657
     12          6           0       -0.920165   -2.176233   -1.790365
     13          6           0       -0.118802   -3.497729   -1.541549
     14          6           0        0.911918   -3.529855   -0.376692
     15          8           0        0.705896   -4.004120    0.687394
     16          8           0        1.992360   -2.741526   -0.736056
     17          7           0       -4.352198    2.809563   -0.229778
     18          6           0       -3.017631    3.174314   -0.285052
     19          6           0       -2.915589    4.653481   -0.402846
     20          6           0       -4.237211    5.160098   -0.168680
     21          6           0       -5.041997    3.962026   -0.115272
     22          6           0       -1.671325    5.305404   -0.897238
     23          6           0       -4.678526    6.595420   -0.033185
     24          8           0       -5.867340    6.967778    0.015677
     25          6           0       -3.649565    7.648466   -0.033462
     26          7           0       -7.209955    1.715991    0.010653
     27          6           0       -7.315987    2.973002    0.360447
     28          6           0       -8.753371    3.183244    0.886700
     29          6           0       -9.503841    1.810822    0.529925
     30          6           0       -8.333673    0.959810    0.198583
     31          6           0       -8.839336    3.567368    2.495950
     32          6           0      -10.374376    1.927989   -0.760287
     33          6           0      -11.656193    1.163096   -0.924214
     34          7           0       -6.105976   -0.936679   -0.208255
     35          6           0       -7.395456   -1.363401    0.002953
     36          6           0       -7.452044   -2.826738   -0.136273
     37          6           0       -6.108846   -3.205974   -0.228173
     38          6           0       -5.302496   -2.010222   -0.272740
     39          6           0       -8.600741   -3.685304   -0.027233
     40          6           0       -5.222918   -4.294627   -0.360075
     41          8           0       -5.452892   -5.486789   -0.449025
     42          6           0       -3.729294   -3.737177   -0.353788
     43          6           0       -2.992058   -4.311724    0.813735
     44          8           0       -2.971706   -3.910142    1.933820
     45          8           0       -2.338342   -5.496643    0.493844
     46          6           0       -1.597232   -6.261903    1.502386
     47          6           0        2.899559   -2.205587    0.357587
     48          6           0        4.044121   -3.164648    0.567609
     49          6           0        5.151190   -2.997573    1.290874
     50          6           0        5.420401   -1.816374    2.241259
     51          6           0        6.196595   -4.079652    1.363551
     52          6           0        7.060627   -4.100776    0.082302
     53          6           0        7.939982   -2.886094   -0.243706
     54          6           0        7.405103   -2.069672   -1.448708
     55          6           0        8.055082   -2.569880   -2.727101
     56          6           0        7.713874   -0.512468   -1.197705
     57          6           0        9.156780   -0.165609   -0.610200
     58          6           0        9.821962    0.995056   -1.431640
     59          6           0       10.665511    1.840190   -0.505277
     60          6           0        9.835779    2.601580    0.565032
     61          6           0       11.600703    2.859036   -1.241495
     62          6           0       13.053572    2.475045   -0.847675
     63          6           0       13.771705    3.436083    0.177334
     64          6           0       14.846369    2.664174    0.990055
     65          6           0       16.313634    3.304407    0.742683
     66          6           0       14.483012    2.608075    2.475853
     67          1           0       -0.934848    2.473855   -0.227369
     68          1           0       -6.847801    4.918753    0.689509
     69          1           0       -9.459805   -0.811713    0.413750
     70          1           0       -1.100301   -2.157343    0.275478
     71          1           0       -0.129591    0.301760   -1.067513
     72          1           0        0.124211   -0.709549    1.748860
     73          1           0       -0.502315    0.865415    1.794525
     74          1           0        0.905219    0.532984    0.824917
     75          1           0       -0.405668   -1.437364   -2.404477
     76          1           0       -1.820113   -2.394906   -2.365549
     77          1           0        0.584315   -3.727074   -2.342254
     78          1           0       -0.753772   -4.381292   -1.608024
     79          1           0       -0.997989    4.664291   -1.467644
     80          1           0       -1.315819    5.644727    0.074922
     81          1           0       -1.749739    6.232671   -1.465112
     82          1           0       -2.844960    7.459407    0.678138
     83          1           0       -4.162766    8.589576    0.161268
     84          1           0       -3.242863    7.791917   -1.035294
     85          1           0       -9.165134    4.011879    0.310082
     86          1           0      -10.142922    1.436889    1.330063
     87          1           0       -7.835033    3.400497    2.885428
     88          1           0       -9.534804    2.965201    3.080128
     89          1           0       -8.998747    4.601167    2.802603
     90          1           0       -9.899355    1.719914   -1.719428
     91          1           0      -10.728588    2.958024   -0.738203
     92          1           0      -11.612239    0.613938   -1.864692
     93          1           0      -12.544429    1.793390   -0.897608
     94          1           0      -11.700181    0.419732   -0.128632
     95          1           0       -9.307900   -3.300359   -0.760542
     96          1           0       -9.084472   -3.742587    0.948183
     97          1           0       -8.299420   -4.693440   -0.310415
     98          1           0       -3.271706   -3.933256   -1.323661
     99          1           0       -0.534232   -6.022741    1.485849
    100          1           0       -1.854960   -7.240994    1.099886
    101          1           0       -2.084339   -6.101788    2.465104
    102          1           0        2.441841   -2.062956    1.336416
    103          1           0        3.372178   -1.258093    0.097225
    104          1           0        3.999155   -4.133756    0.070132
    105          1           0        4.721026   -0.995246    2.087270
    106          1           0        6.423054   -1.472100    1.988705
    107          1           0        5.426873   -2.160685    3.275946
    108          1           0        5.578878   -4.973728    1.451195
    109          1           0        6.782748   -3.945251    2.271879
    110          1           0        6.376748   -4.284273   -0.746855
    111          1           0        7.757547   -4.935023    0.167567
    112          1           0        8.930280   -3.229570   -0.543934
    113          1           0        7.920477   -2.330359    0.693945
    114          1           0        6.316878   -2.135587   -1.466276
    115          1           0        8.450024   -1.743638   -3.318728
    116          1           0        7.258950   -2.943630   -3.370404
    117          1           0        8.882556   -3.270735   -2.620203
    118          1           0        6.964795   -0.357463   -0.421271
    119          1           0        7.429559    0.165014   -2.002133
    120          1           0        9.793444   -1.047675   -0.682229
    121          1           0        9.004487    0.071916    0.443430
    122          1           0        8.962324    1.570505   -1.775909
    123          1           0       10.590829    0.678843   -2.136028
    124          1           0       11.188408    1.008393   -0.035004
    125          1           0       10.075432    2.093156    1.499209
    126          1           0        8.745914    2.628627    0.549303
    127          1           0       10.234875    3.575013    0.849074
    128          1           0       11.296733    3.873907   -0.985711
    129          1           0       11.503639    2.708865   -2.316747
    130          1           0       13.623692    2.605026   -1.767837
    131          1           0       13.147284    1.418945   -0.593996
    132          1           0       13.076098    3.977423    0.817564
    133          1           0       14.339666    4.190567   -0.367152
    134          1           0       15.071886    1.618929    0.778187
    135          1           0       16.393024    4.387784    0.837988
    136          1           0       16.582148    3.100971   -0.293725
    137          1           0       17.045289    2.807203    1.379308
    138          1           0       13.554855    3.103788    2.758552
    139          1           0       15.249004    3.200840    2.978154
    140          1           0       14.542115    1.564531    2.784873
 ---------------------------------------------------------------------

 SCF Done:  E(RPBE1PBE) =  -3005.32851580     A.U. after   15 cycles

 Excitation energies and oscillator strengths:

 Excited State   1:      Singlet-A      1.8564 eV  667.87 nm  f=0.3871  <S**2>=0.000
     245 -> 248       -0.17867
     246 -> 247        0.69279
     246 <- 247       -0.10922
 This state for optimization and/or second-order correction.
 Total Energy, E(TD-HF/TD-DFT) =  -3005.26029396
 Copying the excited state density for this state as the 1-particle RhoCI density.

 Excited State   2:      Singlet-A      2.2423 eV  552.94 nm  f=0.1019  <S**2>=0.000
     245 -> 247        0.65100
     246 -> 248        0.26791

 Excited State   3:      Singlet-A      2.9327 eV  422.77 nm  f=0.0001  <S**2>=0.000
     244 -> 247        0.67216
     244 -> 249        0.15645
     244 -> 250       -0.11522

 Excited State   4:      Singlet-A      3.0852 eV  401.87 nm  f=0.0013  <S**2>=0.000
     240 -> 247        0.20779
     240 -> 249       -0.11467
     241 -> 247        0.40650
     242 -> 247        0.48635
     246 -> 248        0.10550

 Excited State   5:      Singlet-A      3.2026 eV  387.14 nm  f=0.0024  <S**2>=0.000
     239 -> 247        0.10029
     240 -> 247       -0.26781
     241 -> 247       -0.36144
     242 -> 247        0.50050
     246 -> 248       -0.12260

 The electronic state is 1-A.
 Alpha  occ. eigenvalues --  -46.92031 -19.26379 -19.22573 -19.21376 -19.18988
 Alpha  occ. eigenvalues --  -19.18680 -19.18397 -14.41568 -14.40630 -14.39760
 Alpha  occ. eigenvalues --  -14.38959 -10.37177 -10.34972 -10.32341 -10.31292
 Alpha  occ. eigenvalues --  -10.30955 -10.28635 -10.28513 -10.28255 -10.28076
 Alpha  occ. eigenvalues --  -10.27892 -10.27741 -10.27560 -10.27391 -10.26732
 Alpha  occ. eigenvalues --  -10.26286 -10.26260 -10.25697 -10.25504 -10.25476
 Alpha  occ. eigenvalues --  -10.25429 -10.25368 -10.25267 -10.25157 -10.25113
 Alpha  occ. eigenvalues --  -10.25004 -10.24933 -10.24744 -10.24420 -10.24280
 Alpha  occ. eigenvalues --  -10.24025 -10.23724 -10.23628 -10.23584 -10.23455
 Alpha  occ. eigenvalues --  -10.23433 -10.23362 -10.23249 -10.23190 -10.23086
 Alpha  occ. eigenvalues --  -10.22905 -10.22871 -10.22834 -10.22715 -10.22699
 Alpha  occ. eigenvalues --  -10.22686 -10.22658 -10.22536 -10.22376 -10.22353
 Alpha  occ. eigenvalues --  -10.22304 -10.22285 -10.22131 -10.21665 -10.21649
 Alpha  occ. eigenvalues --  -10.21432  -3.14143  -1.87002  -1.86510  -1.86369
 Alpha  occ. eigenvalues --   -1.11849  -1.09602  -1.04148  -1.04142  -1.03597
 Alpha  occ. eigenvalues --   -1.00956  -0.99310  -0.98759  -0.98184  -0.97536
 Alpha  occ. eigenvalues --   -0.87085  -0.85417  -0.83989  -0.83684  -0.83478
 Alpha  occ. eigenvalues --   -0.82589  -0.82425  -0.82277  -0.81501  -0.81380
 Alpha  occ. eigenvalues --   -0.80933  -0.79524  -0.78395  -0.77428  -0.77176
 Alpha  occ. eigenvalues --   -0.76662  -0.76468  -0.75710  -0.74945  -0.74267
 Alpha  occ. eigenvalues --   -0.73569  -0.73457  -0.72577  -0.71413  -0.70711
 Alpha  occ. eigenvalues --   -0.69944  -0.69480  -0.69326  -0.69215  -0.68480
 Alpha  occ. eigenvalues --   -0.67817  -0.67168  -0.66020  -0.65293  -0.63352
 Alpha  occ. eigenvalues --   -0.63083  -0.62654  -0.61857  -0.61014  -0.60321
 Alpha  occ. eigenvalues --   -0.60203  -0.59932  -0.59317  -0.58650  -0.58232
 Alpha  occ. eigenvalues --   -0.57504  -0.56814  -0.55957  -0.55357  -0.55201
 Alpha  occ. eigenvalues --   -0.54449  -0.54157  -0.53669  -0.52886  -0.52441
 Alpha  occ. eigenvalues --   -0.52214  -0.51054  -0.50941  -0.50515  -0.50098
 Alpha  occ. eigenvalues --   -0.49798  -0.49344  -0.48993  -0.48753  -0.48145
 Alpha  occ. eigenvalues --   -0.47947  -0.47632  -0.47555  -0.47251  -0.47100
 Alpha  occ. eigenvalues --   -0.47029  -0.46915  -0.46739  -0.46548  -0.46491
 Alpha  occ. eigenvalues --   -0.46246  -0.45767  -0.45659  -0.45622  -0.45540
 Alpha  occ. eigenvalues --   -0.45118  -0.45077  -0.44749  -0.44554  -0.44223
 Alpha  occ. eigenvalues --   -0.44018  -0.43937  -0.43697  -0.43447  -0.43372
 Alpha  occ. eigenvalues --   -0.43012  -0.42895  -0.42646  -0.42524  -0.42436
 Alpha  occ. eigenvalues --   -0.42185  -0.42026  -0.41481  -0.41452  -0.41389
 Alpha  occ. eigenvalues --   -0.41120  -0.40945  -0.40897  -0.40722  -0.40532
 Alpha  occ. eigenvalues --   -0.40275  -0.40154  -0.39748  -0.39529  -0.39465
 Alpha  occ. eigenvalues --   -0.39182  -0.39130  -0.39096  -0.38833  -0.38774
 Alpha  occ. eigenvalues --   -0.38601  -0.38520  -0.38325  -0.38278  -0.38174
 Alpha  occ. eigenvalues --   -0.38087  -0.37903  -0.37629  -0.37187  -0.36792
 Alpha  occ. eigenvalues --   -0.36537  -0.36498  -0.36315  -0.36029  -0.36000
 Alpha  occ. eigenvalues --   -0.35677  -0.35587  -0.35311  -0.35266  -0.34904
 Alpha  occ. eigenvalues --   -0.34583  -0.34394  -0.34360  -0.34244  -0.33689
 Alpha  occ. eigenvalues --   -0.33256  -0.33241  -0.32860  -0.32585  -0.32310
 Alpha  occ. eigenvalues --   -0.32175  -0.31565  -0.31467  -0.31136  -0.30960
 Alpha  occ. eigenvalues --   -0.29865  -0.29435  -0.29429  -0.29238  -0.29025
 Alpha  occ. eigenvalues --   -0.28645  -0.28641  -0.27815  -0.26568  -0.26146
 Alpha  occ. eigenvalues --   -0.25657  -0.25366  -0.25205  -0.25009  -0.20837
 Alpha  occ. eigenvalues --   -0.18527
 Alpha virt. eigenvalues --   -0.10975  -0.05004  -0.04135  -0.02143  -0.00081
 Alpha virt. eigenvalues --    0.00382   0.00978   0.01708   0.01962   0.03179
 Alpha virt. eigenvalues --    0.03692   0.04063   0.05116   0.05429   0.05789

 Mulliken charges:
               1
     1  Mg   0.978510
     2  C   -0.054733
     3  C   -0.044479
     4  C   -0.019819
     5  C   -0.066688
     6  N   -0.361739
     7  C    0.042829
     8  C   -0.131126
     9  C   -0.117408
    10  C    0.040364
    11  C   -0.022474
    12  C    0.053175
    13  C   -0.030510
    14  C    0.218125
    15  O   -0.212304
    16  O   -0.392580
    17  N   -0.477936
    18  C    0.145107
    19  C   -0.155583
    20  C   -0.073606
    21  C    0.162251
    22  C    0.036458
    23  C    0.053511
    24  O   -0.260234
    25  C   -0.019528
    26  N   -0.397128
    27  C    0.060061
    28  C   -0.115859
    29  C   -0.122748
    30  C    0.123423
    31  C   -0.024018
    32  C   -0.041388
    33  C   -0.055310
    34  N   -0.476229
    35  C    0.126444
    36  C   -0.183603
    37  C    0.012883
    38  C    0.177638
    39  C    0.057774
    40  C    0.069768
    41  O   -0.209945
    42  C   -0.103907
    43  C    0.309961
    44  O   -0.224387
    45  O   -0.402938
    46  C    0.119208
    47  C    0.246893
    48  C   -0.140047
    49  C   -0.254586
    50  C    0.023404
    51  C    0.021989
    52  C   -0.016891
    53  C   -0.027599
    54  C   -0.231510
    55  C    0.016681
    56  C   -0.041672
    57  C   -0.076017
    58  C    0.036279
    59  C   -0.259875
    60  C   -0.013127
    61  C    0.033594
    62  C   -0.072151
    63  C    0.035756
    64  C   -0.258422
    65  C   -0.062007
    66  C   -0.006318
    67  H   -0.004663
    68  H    0.037721
    69  H    0.001349
    70  H    0.089051
    71  H    0.050997
    72  H    0.060431
    73  H    0.053928
    74  H    0.029417
    75  H    0.033634
    76  H    0.041853
    77  H    0.047643
    78  H    0.065532
    79  H    0.064009
    80  H    0.059916
    81  H    0.048282
    82  H    0.057112
    83  H    0.054168
    84  H    0.066828
    85  H    0.054573
    86  H    0.038976
    87  H    0.041988
    88  H    0.045395
    89  H    0.049217
    90  H    0.049665
    91  H    0.035897
    92  H    0.039531
    93  H    0.047965
    94  H    0.024526
    95  H    0.043990
    96  H    0.063667
    97  H    0.060167
    98  H    0.072110
    99  H    0.076538
   100  H    0.057458
   101  H    0.060315
   102  H    0.073268
   103  H    0.064776
   104  H    0.026757
   105  H    0.026859
   106  H    0.038885
   107  H    0.064662
   108  H    0.046286
   109  H    0.023109
   110  H    0.029125
   111  H    0.027428
   112  H    0.035493
   113  H    0.027654
   114  H    0.042827
   115  H    0.026673
   116  H    0.034003
   117  H    0.035232
   118  H    0.014962
   119  H    0.030963
   120  H    0.039344
   121  H    0.037031
   122  H    0.025424
   123  H    0.032655
   124  H    0.041505
   125  H    0.017396
   126  H    0.039575
   127  H    0.024164
   128  H    0.032853
   129  H    0.019568
   130  H    0.025307
   131  H    0.036483
   132  H    0.028175
   133  H    0.024938
   134  H    0.037531
   135  H    0.039747
   136  H    0.035101
   137  H    0.036693
   138  H    0.032867
   139  H    0.023923
   140  H    0.037918
 Sum of Mulliken charges =  -0.00000

 Dipole moment (field-independent basis, Debye):
    X=              4.7499    Y=              3.6737    Z=             -1.3271  Tot=              6.1497
 Quadrupole moment (field-independent basis, Debye-Ang):
   XX=           -378.1279   YY=           -431.2492   ZZ=           -402.1501
   XY=            -10.5950   XZ=              3.5743   YZ=              1.8529

 Normal termination of Gaussian 16 at Tue Apr 26 23:01:13 2022.
