 Gaussian 16, Revision A.03,
 Gaussian 16:  ES64L-G16RevA.03 25-Dec-2016

 --------------------------------
 #p wB97XD/Def2SVP td=(nstates=5)
 --------------------------------

 ----------------------------------------------------
 step_1001_chromophore_6 TDDFT with wB97XD functional
 ----------------------------------------------------
 Symbolic Z-matrix:
 Charge =  0 Multiplicity = 1

                         Standard orientation:
 ---------------------------------------------------------------------
 Center     Atomic      Atomic             Coordinates (Angstroms)
 Number     Number       Type             X           Y           Z
 ---------------------------------------------------------------------
      1         12           0       -5.259282    0.950639   -0.330575
      2          6           0       -3.940804   -2.247537   -0.411875
      3          6           0       -1.988334    2.185112   -0.218062
      4          6           0       -6.434556    4.035719    0.197666
      5          6           0       -8.454848   -0.418425    0.247737
      6          7           0       -3.192452    0.053025   -0.275212
      7          6           0       -2.917556   -1.280454   -0.471932
      8          6           0       -1.408803   -1.461128   -0.504597
      9          6           0       -0.809437   -0.045993   -0.289484
     10          6           0       -2.090779    0.800527   -0.281340
     11          6           0       -0.075359    0.142963    1.098657
     12          6           0       -0.920165   -2.176233   -1.790365
     13          6           0       -0.118802   -3.497729   -1.541549
     14          6           0        0.911918   -3.529855   -0.376692
     15          8           0        0.705896   -4.004120    0.687394
     16          8           0        1.992360   -2.741526   -0.736056
     17          7           0       -4.352198    2.809563   -0.229778
     18          6           0       -3.017631    3.174314   -0.285052
     19          6           0       -2.915589    4.653481   -0.402846
     20          6           0       -4.237211    5.160098   -0.168680
     21          6           0       -5.041997    3.962026   -0.115272
     22          6           0       -1.671325    5.305404   -0.897238
     23          6           0       -4.678526    6.595420   -0.033185
     24          8           0       -5.867340    6.967778    0.015677
     25          6           0       -3.649565    7.648466   -0.033462
     26          7           0       -7.209955    1.715991    0.010653
     27          6           0       -7.315987    2.973002    0.360447
     28          6           0       -8.753371    3.183244    0.886700
     29          6           0       -9.503841    1.810822    0.529925
     30          6           0       -8.333673    0.959810    0.198583
     31          6           0       -8.839336    3.567368    2.495950
     32          6           0      -10.374376    1.927989   -0.760287
     33          6           0      -11.656193    1.163096   -0.924214
     34          7           0       -6.105976   -0.936679   -0.208255
     35          6           0       -7.395456   -1.363401    0.002953
     36          6           0       -7.452044   -2.826738   -0.136273
     37          6           0       -6.108846   -3.205974   -0.228173
     38          6           0       -5.302496   -2.010222   -0.272740
     39          6           0       -8.600741   -3.685304   -0.027233
     40          6           0       -5.222918   -4.294627   -0.360075
     41          8           0       -5.452892   -5.486789   -0.449025
     42          6           0       -3.729294   -3.737177   -0.353788
     43          6           0       -2.992058   -4.311724    0.813735
     44          8           0       -2.971706   -3.910142    1.933820
     45          8           0       -2.338342   -5.496643    0.493844
     46          6           0       -1.597232   -6.261903    1.502386
     47          6           0        2.899559   -2.205587    0.357587
     48          6           0        4.044121   -3.164648    0.567609
     49          6           0        5.151190   -2.997573    1.290874
     50          6           0        5.420401   -1.816374    2.241259
     51          6           0        6.196595   -4.079652    1.363551
     52          6           0        7.060627   -4.100776    0.082302
     53          6           0        7.939982   -2.886094   -0.243706
     54          6           0        7.405103   -2.069672   -1.448708
     55          6           0        8.055082   -2.569880   -2.727101
     56          6           0        7.713874   -0.512468   -1.197705
     57          6           0        9.156780   -0.165609   -0.610200
     58          6           0        9.821962    0.995056   -1.431640
     59          6           0       10.665511    1.840190   -0.505277
     60          6           0        9.835779    2.601580    0.565032
     61          6           0       11.600703    2.859036   -1.241495
     62          6           0       13.053572    2.475045   -0.847675
     63          6           0       13.771705    3.436083    0.177334
     64          6           0       14.846369    2.664174    0.990055
     65          6           0       16.313634    3.304407    0.742683
     66          6           0       14.483012    2.608075    2.475853
     67          1           0       -0.934848    2.473855   -0.227369
     68          1           0       -6.847801    4.918753    0.689509
     69          1           0       -9.459805   -0.811713    0.413750
     70          1           0       -1.100301   -2.157343    0.275478
     71          1           0       -0.129591    0.301760   -1.067513
     72          1           0        0.124211   -0.709549    1.748860
     73          1           0       -0.502315    0.865415    1.794525
     74          1           0        0.905219    0.532984    0.824917
     75          1           0       -0.405668   -1.437364   -2.404477
     76          1           0       -1.820113   -2.394906   -2.365549
     77          1           0        0.584315   -3.727074   -2.342254
     78          1           0       -0.753772   -4.381292   -1.608024
     79          1           0       -0.997989    4.664291   -1.467644
     80          1           0       -1.315819    5.644727    0.074922
     81          1           0       -1.749739    6.232671   -1.465112
     82          1           0       -2.844960    7.459407    0.678138
     83          1           0       -4.162766    8.589576    0.161268
     84          1           0       -3.242863    7.791917   -1.035294
     85          1           0       -9.165134    4.011879    0.310082
     86          1           0      -10.142922    1.436889    1.330063
     87          1           0       -7.835033    3.400497    2.885428
     88          1           0       -9.534804    2.965201    3.080128
     89          1           0       -8.998747    4.601167    2.802603
     90          1           0       -9.899355    1.719914   -1.719428
     91          1           0      -10.728588    2.958024   -0.738203
     92          1           0      -11.612239    0.613938   -1.864692
     93          1           0      -12.544429    1.793390   -0.897608
     94          1           0      -11.700181    0.419732   -0.128632
     95          1           0       -9.307900   -3.300359   -0.760542
     96          1           0       -9.084472   -3.742587    0.948183
     97          1           0       -8.299420   -4.693440   -0.310415
     98          1           0       -3.271706   -3.933256   -1.323661
     99          1           0       -0.534232   -6.022741    1.485849
    100          1           0       -1.854960   -7.240994    1.099886
    101          1           0       -2.084339   -6.101788    2.465104
    102          1           0        2.441841   -2.062956    1.336416
    103          1           0        3.372178   -1.258093    0.097225
    104          1           0        3.999155   -4.133756    0.070132
    105          1           0        4.721026   -0.995246    2.087270
    106          1           0        6.423054   -1.472100    1.988705
    107          1           0        5.426873   -2.160685    3.275946
    108          1           0        5.578878   -4.973728    1.451195
    109          1           0        6.782748   -3.945251    2.271879
    110          1           0        6.376748   -4.284273   -0.746855
    111          1           0        7.757547   -4.935023    0.167567
    112          1           0        8.930280   -3.229570   -0.543934
    113          1           0        7.920477   -2.330359    0.693945
    114          1           0        6.316878   -2.135587   -1.466276
    115          1           0        8.450024   -1.743638   -3.318728
    116          1           0        7.258950   -2.943630   -3.370404
    117          1           0        8.882556   -3.270735   -2.620203
    118          1           0        6.964795   -0.357463   -0.421271
    119          1           0        7.429559    0.165014   -2.002133
    120          1           0        9.793444   -1.047675   -0.682229
    121          1           0        9.004487    0.071916    0.443430
    122          1           0        8.962324    1.570505   -1.775909
    123          1           0       10.590829    0.678843   -2.136028
    124          1           0       11.188408    1.008393   -0.035004
    125          1           0       10.075432    2.093156    1.499209
    126          1           0        8.745914    2.628627    0.549303
    127          1           0       10.234875    3.575013    0.849074
    128          1           0       11.296733    3.873907   -0.985711
    129          1           0       11.503639    2.708865   -2.316747
    130          1           0       13.623692    2.605026   -1.767837
    131          1           0       13.147284    1.418945   -0.593996
    132          1           0       13.076098    3.977423    0.817564
    133          1           0       14.339666    4.190567   -0.367152
    134          1           0       15.071886    1.618929    0.778187
    135          1           0       16.393024    4.387784    0.837988
    136          1           0       16.582148    3.100971   -0.293725
    137          1           0       17.045289    2.807203    1.379308
    138          1           0       13.554855    3.103788    2.758552
    139          1           0       15.249004    3.200840    2.978154
    140          1           0       14.542115    1.564531    2.784873
 ---------------------------------------------------------------------

 SCF Done:  E(RwB97XD) =  -3007.84142215     A.U. after   17 cycles

 Excitation energies and oscillator strengths:

 Excited State   1:      Singlet-A      1.6547 eV  749.26 nm  f=0.3966  <S**2>=0.000
     245 -> 248       -0.18954
     246 -> 247        0.68280
     245 <- 248       -0.11776
 This state for optimization and/or second-order correction.
 Total Energy, E(TD-HF/TD-DFT) =  -3007.78061122
 Copying the excited state density for this state as the 1-particle RhoCI density.

 Excited State   2:      Singlet-A      2.1984 eV  563.98 nm  f=0.1022  <S**2>=0.000
     245 -> 247        0.63570
     246 -> 248        0.29858

 Excited State   3:      Singlet-A      3.4574 eV  358.60 nm  f=0.2140  <S**2>=0.000
     239 -> 249        0.12119
     241 -> 247        0.46064
     241 -> 249       -0.10331
     244 -> 247       -0.20011
     245 -> 247        0.15654
     246 -> 248       -0.41228

 Excited State   4:      Singlet-A      3.5000 eV  354.24 nm  f=0.0141  <S**2>=0.000
     242 -> 247        0.52029
     242 -> 249        0.26559
     242 -> 250        0.24581
     243 -> 247        0.18155

 Excited State   5:      Singlet-A      3.5567 eV  348.59 nm  f=0.3712  <S**2>=0.000
     241 -> 247       -0.19785
     244 -> 247        0.45369
     245 -> 247        0.20574
     246 -> 248       -0.42468

 The electronic state is 1-A.
 Alpha  occ. eigenvalues --  -46.94994 -19.30908 -19.27094 -19.26042 -19.23974
 Alpha  occ. eigenvalues --  -19.23384 -19.23077 -14.46758 -14.45605 -14.44828
 Alpha  occ. eigenvalues --  -14.43819 -10.43931 -10.41805 -10.39373 -10.38052
 Alpha  occ. eigenvalues --  -10.37465 -10.35103 -10.34751 -10.34712 -10.34686
 Alpha  occ. eigenvalues --  -10.34214 -10.34201 -10.34025 -10.33622 -10.33196
 Alpha  occ. eigenvalues --  -10.32573 -10.32356 -10.31903 -10.31844 -10.31814
 Alpha  occ. eigenvalues --  -10.31727 -10.31720 -10.31672 -10.31566 -10.31501
 Alpha  occ. eigenvalues --  -10.31462 -10.31359 -10.31287 -10.30745 -10.30497
 Alpha  occ. eigenvalues --  -10.30481 -10.30147 -10.30100 -10.29899 -10.29876
 Alpha  occ. eigenvalues --  -10.29829 -10.29802 -10.29592 -10.29582 -10.29302
 Alpha  occ. eigenvalues --  -10.29286 -10.29239 -10.29117 -10.29064 -10.29058
 Alpha  occ. eigenvalues --  -10.29035 -10.28996 -10.28913 -10.28686 -10.28676
 Alpha  occ. eigenvalues --  -10.28672 -10.28556 -10.28492 -10.28104 -10.28097
 Alpha  occ. eigenvalues --  -10.27856  -3.20958  -1.94566  -1.94075  -1.93933
 Alpha  occ. eigenvalues --   -1.19194  -1.16964  -1.11504  -1.11461  -1.11271
 Alpha  occ. eigenvalues --   -1.08280  -1.06710  -1.06144  -1.05606  -1.04837
 Alpha  occ. eigenvalues --   -0.94634  -0.93096  -0.91668  -0.91295  -0.91067
 Alpha  occ. eigenvalues --   -0.90270  -0.90241  -0.89942  -0.89175  -0.88905
 Alpha  occ. eigenvalues --   -0.88468  -0.87182  -0.86070  -0.85100  -0.84825
 Alpha  occ. eigenvalues --   -0.84418  -0.84136  -0.83347  -0.82593  -0.81868
 Alpha  occ. eigenvalues --   -0.81252  -0.81229  -0.80195  -0.78972  -0.78404
 Alpha  occ. eigenvalues --   -0.77527  -0.77187  -0.77036  -0.76795  -0.76160
 Alpha  occ. eigenvalues --   -0.75417  -0.74675  -0.73594  -0.72858  -0.71019
 Alpha  occ. eigenvalues --   -0.70668  -0.70119  -0.69456  -0.68655  -0.67859
 Alpha  occ. eigenvalues --   -0.67622  -0.67605  -0.66802  -0.66070  -0.65668
 Alpha  occ. eigenvalues --   -0.65171  -0.64481  -0.63588  -0.62900  -0.62639
 Alpha  occ. eigenvalues --   -0.61843  -0.61630  -0.61153  -0.60214  -0.59846
 Alpha  occ. eigenvalues --   -0.59587  -0.58536  -0.58459  -0.57860  -0.57531
 Alpha  occ. eigenvalues --   -0.57239  -0.56764  -0.56414  -0.56225  -0.55574
 Alpha  occ. eigenvalues --   -0.55364  -0.55065  -0.55013  -0.54903  -0.54470
 Alpha  occ. eigenvalues --   -0.54414  -0.54260  -0.54065  -0.53869  -0.53742
 Alpha  occ. eigenvalues --   -0.53638  -0.53129  -0.53083  -0.52966  -0.52893
 Alpha  occ. eigenvalues --   -0.52450  -0.52355  -0.52143  -0.51895  -0.51603
 Alpha  occ. eigenvalues --   -0.51304  -0.51258  -0.51013  -0.50760  -0.50748
 Alpha  occ. eigenvalues --   -0.50412  -0.50117  -0.50017  -0.49928  -0.49671
 Alpha  occ. eigenvalues --   -0.49440  -0.49290  -0.48681  -0.48642  -0.48595
 Alpha  occ. eigenvalues --   -0.48317  -0.48195  -0.48091  -0.47999  -0.47729
 Alpha  occ. eigenvalues --   -0.47533  -0.47326  -0.46967  -0.46674  -0.46619
 Alpha  occ. eigenvalues --   -0.46351  -0.46299  -0.46210  -0.46072  -0.45949
 Alpha  occ. eigenvalues --   -0.45745  -0.45626  -0.45493  -0.45409  -0.45334
 Alpha  occ. eigenvalues --   -0.45278  -0.44946  -0.44748  -0.44251  -0.43927
 Alpha  occ. eigenvalues --   -0.43781  -0.43666  -0.43422  -0.43167  -0.43122
 Alpha  occ. eigenvalues --   -0.42762  -0.42567  -0.42407  -0.42192  -0.41905
 Alpha  occ. eigenvalues --   -0.41663  -0.41420  -0.41368  -0.41325  -0.40749
 Alpha  occ. eigenvalues --   -0.40285  -0.40156  -0.39888  -0.39477  -0.39311
 Alpha  occ. eigenvalues --   -0.39191  -0.38567  -0.38499  -0.38027  -0.37995
 Alpha  occ. eigenvalues --   -0.36821  -0.36493  -0.36411  -0.36266  -0.35775
 Alpha  occ. eigenvalues --   -0.35507  -0.35387  -0.34842  -0.33443  -0.33102
 Alpha  occ. eigenvalues --   -0.32454  -0.31982  -0.31968  -0.31795  -0.25849
 Alpha  occ. eigenvalues --   -0.22686
 Alpha virt. eigenvalues --   -0.06866   0.00409   0.02078   0.04332   0.06131
 Alpha virt. eigenvalues --    0.06876   0.07654   0.08472   0.08742   0.09231
 Alpha virt. eigenvalues --    0.10382   0.10724   0.11933   0.12193   0.12537

 Mulliken charges:
               1
     1  Mg   0.969796
     2  C   -0.055020
     3  C   -0.063024
     4  C   -0.048513
     5  C   -0.088522
     6  N   -0.323464
     7  C    0.006934
     8  C   -0.098186
     9  C   -0.091957
    10  C    0.028014
    11  C   -0.014424
    12  C    0.060051
    13  C   -0.009432
    14  C    0.202317
    15  O   -0.206948
    16  O   -0.391546
    17  N   -0.448052
    18  C    0.139116
    19  C   -0.140582
    20  C   -0.072752
    21  C    0.161870
    22  C    0.045706
    23  C    0.053310
    24  O   -0.252770
    25  C   -0.010468
    26  N   -0.363112
    27  C    0.050931
    28  C   -0.092029
    29  C   -0.092268
    30  C    0.113426
    31  C   -0.012547
    32  C   -0.032412
    33  C   -0.039253
    34  N   -0.435747
    35  C    0.112637
    36  C   -0.179206
    37  C    0.019791
    38  C    0.156332
    39  C    0.066719
    40  C    0.051234
    41  O   -0.200919
    42  C   -0.063726
    43  C    0.284548
    44  O   -0.217127
    45  O   -0.399345
    46  C    0.134386
    47  C    0.263751
    48  C   -0.151499
    49  C   -0.242663
    50  C    0.042073
    51  C    0.039753
    52  C    0.001370
    53  C   -0.007471
    54  C   -0.198599
    55  C    0.023879
    56  C   -0.018683
    57  C   -0.061323
    58  C    0.054200
    59  C   -0.224395
    60  C   -0.004619
    61  C    0.045607
    62  C   -0.051754
    63  C    0.049478
    64  C   -0.233430
    65  C   -0.046362
    66  C    0.004104
    67  H   -0.009538
    68  H    0.032440
    69  H   -0.004382
    70  H    0.065754
    71  H    0.042160
    72  H    0.056015
    73  H    0.047979
    74  H    0.023001
    75  H    0.027181
    76  H    0.032784
    77  H    0.041329
    78  H    0.059067
    79  H    0.062132
    80  H    0.053699
    81  H    0.044181
    82  H    0.052363
    83  H    0.053750
    84  H    0.062019
    85  H    0.044949
    86  H    0.030208
    87  H    0.034093
    88  H    0.040613
    89  H    0.044162
    90  H    0.042197
    91  H    0.025496
    92  H    0.033925
    93  H    0.042823
    94  H    0.016064
    95  H    0.037241
    96  H    0.058800
    97  H    0.055876
    98  H    0.061271
    99  H    0.071659
   100  H    0.053912
   101  H    0.056512
   102  H    0.067360
   103  H    0.059571
   104  H    0.023115
   105  H    0.021344
   106  H    0.028510
   107  H    0.059813
   108  H    0.039430
   109  H    0.016771
   110  H    0.017073
   111  H    0.021273
   112  H    0.025788
   113  H    0.009589
   114  H    0.027828
   115  H    0.019829
   116  H    0.029031
   117  H    0.030095
   118  H    0.000276
   119  H    0.022792
   120  H    0.028738
   121  H    0.027287
   122  H    0.013458
   123  H    0.023507
   124  H    0.024373
   125  H    0.010631
   126  H    0.034566
   127  H    0.017445
   128  H    0.025172
   129  H    0.012128
   130  H    0.017202
   131  H    0.026300
   132  H    0.018309
   133  H    0.016358
   134  H    0.027022
   135  H    0.033305
   136  H    0.027631
   137  H    0.030910
   138  H    0.026875
   139  H    0.017123
   140  H    0.033254
 Sum of Mulliken charges =  -0.00000

 Dipole moment (field-independent basis, Debye):
    X=              5.1031    Y=              4.1855    Z=             -1.3678  Tot=              6.7403
 Quadrupole moment (field-independent basis, Debye-Ang):
   XX=           -381.9889   YY=           -428.5366   ZZ=           -401.7580
   XY=            -12.1109   XZ=              3.6317   YZ=              1.7345

 Normal termination of Gaussian 16 at Tue Apr 26 23:25:55 2022.
