 Gaussian 16, Revision A.03,
 Gaussian 16:  ES64L-G16RevA.03 25-Dec-2016

 --------------------
 #p ZINDO=(nstates=5)
 --------------------

 -----------------------------
 step_1001_chromophore_6 ZINDO
 -----------------------------
 Symbolic Z-matrix:
 Charge =  0 Multiplicity = 1

                         Standard orientation:
 ---------------------------------------------------------------------
 Center     Atomic      Atomic             Coordinates (Angstroms)
 Number     Number       Type             X           Y           Z
 ---------------------------------------------------------------------
      1         12           0       -5.259282    0.950639   -0.330575
      2          6           0       -3.940804   -2.247537   -0.411875
      3          6           0       -1.988334    2.185112   -0.218062
      4          6           0       -6.434556    4.035719    0.197666
      5          6           0       -8.454848   -0.418425    0.247737
      6          7           0       -3.192452    0.053025   -0.275212
      7          6           0       -2.917556   -1.280454   -0.471932
      8          6           0       -1.408803   -1.461128   -0.504597
      9          6           0       -0.809437   -0.045993   -0.289484
     10          6           0       -2.090779    0.800527   -0.281340
     11          6           0       -0.075359    0.142963    1.098657
     12          6           0       -0.920165   -2.176233   -1.790365
     13          6           0       -0.118802   -3.497729   -1.541549
     14          6           0        0.911918   -3.529855   -0.376692
     15          8           0        0.705896   -4.004120    0.687394
     16          8           0        1.992360   -2.741526   -0.736056
     17          7           0       -4.352198    2.809563   -0.229778
     18          6           0       -3.017631    3.174314   -0.285052
     19          6           0       -2.915589    4.653481   -0.402846
     20          6           0       -4.237211    5.160098   -0.168680
     21          6           0       -5.041997    3.962026   -0.115272
     22          6           0       -1.671325    5.305404   -0.897238
     23          6           0       -4.678526    6.595420   -0.033185
     24          8           0       -5.867340    6.967778    0.015677
     25          6           0       -3.649565    7.648466   -0.033462
     26          7           0       -7.209955    1.715991    0.010653
     27          6           0       -7.315987    2.973002    0.360447
     28          6           0       -8.753371    3.183244    0.886700
     29          6           0       -9.503841    1.810822    0.529925
     30          6           0       -8.333673    0.959810    0.198583
     31          6           0       -8.839336    3.567368    2.495950
     32          6           0      -10.374376    1.927989   -0.760287
     33          6           0      -11.656193    1.163096   -0.924214
     34          7           0       -6.105976   -0.936679   -0.208255
     35          6           0       -7.395456   -1.363401    0.002953
     36          6           0       -7.452044   -2.826738   -0.136273
     37          6           0       -6.108846   -3.205974   -0.228173
     38          6           0       -5.302496   -2.010222   -0.272740
     39          6           0       -8.600741   -3.685304   -0.027233
     40          6           0       -5.222918   -4.294627   -0.360075
     41          8           0       -5.452892   -5.486789   -0.449025
     42          6           0       -3.729294   -3.737177   -0.353788
     43          6           0       -2.992058   -4.311724    0.813735
     44          8           0       -2.971706   -3.910142    1.933820
     45          8           0       -2.338342   -5.496643    0.493844
     46          6           0       -1.597232   -6.261903    1.502386
     47          6           0        2.899559   -2.205587    0.357587
     48          6           0        4.044121   -3.164648    0.567609
     49          6           0        5.151190   -2.997573    1.290874
     50          6           0        5.420401   -1.816374    2.241259
     51          6           0        6.196595   -4.079652    1.363551
     52          6           0        7.060627   -4.100776    0.082302
     53          6           0        7.939982   -2.886094   -0.243706
     54          6           0        7.405103   -2.069672   -1.448708
     55          6           0        8.055082   -2.569880   -2.727101
     56          6           0        7.713874   -0.512468   -1.197705
     57          6           0        9.156780   -0.165609   -0.610200
     58          6           0        9.821962    0.995056   -1.431640
     59          6           0       10.665511    1.840190   -0.505277
     60          6           0        9.835779    2.601580    0.565032
     61          6           0       11.600703    2.859036   -1.241495
     62          6           0       13.053572    2.475045   -0.847675
     63          6           0       13.771705    3.436083    0.177334
     64          6           0       14.846369    2.664174    0.990055
     65          6           0       16.313634    3.304407    0.742683
     66          6           0       14.483012    2.608075    2.475853
     67          1           0       -0.934848    2.473855   -0.227369
     68          1           0       -6.847801    4.918753    0.689509
     69          1           0       -9.459805   -0.811713    0.413750
     70          1           0       -1.100301   -2.157343    0.275478
     71          1           0       -0.129591    0.301760   -1.067513
     72          1           0        0.124211   -0.709549    1.748860
     73          1           0       -0.502315    0.865415    1.794525
     74          1           0        0.905219    0.532984    0.824917
     75          1           0       -0.405668   -1.437364   -2.404477
     76          1           0       -1.820113   -2.394906   -2.365549
     77          1           0        0.584315   -3.727074   -2.342254
     78          1           0       -0.753772   -4.381292   -1.608024
     79          1           0       -0.997989    4.664291   -1.467644
     80          1           0       -1.315819    5.644727    0.074922
     81          1           0       -1.749739    6.232671   -1.465112
     82          1           0       -2.844960    7.459407    0.678138
     83          1           0       -4.162766    8.589576    0.161268
     84          1           0       -3.242863    7.791917   -1.035294
     85          1           0       -9.165134    4.011879    0.310082
     86          1           0      -10.142922    1.436889    1.330063
     87          1           0       -7.835033    3.400497    2.885428
     88          1           0       -9.534804    2.965201    3.080128
     89          1           0       -8.998747    4.601167    2.802603
     90          1           0       -9.899355    1.719914   -1.719428
     91          1           0      -10.728588    2.958024   -0.738203
     92          1           0      -11.612239    0.613938   -1.864692
     93          1           0      -12.544429    1.793390   -0.897608
     94          1           0      -11.700181    0.419732   -0.128632
     95          1           0       -9.307900   -3.300359   -0.760542
     96          1           0       -9.084472   -3.742587    0.948183
     97          1           0       -8.299420   -4.693440   -0.310415
     98          1           0       -3.271706   -3.933256   -1.323661
     99          1           0       -0.534232   -6.022741    1.485849
    100          1           0       -1.854960   -7.240994    1.099886
    101          1           0       -2.084339   -6.101788    2.465104
    102          1           0        2.441841   -2.062956    1.336416
    103          1           0        3.372178   -1.258093    0.097225
    104          1           0        3.999155   -4.133756    0.070132
    105          1           0        4.721026   -0.995246    2.087270
    106          1           0        6.423054   -1.472100    1.988705
    107          1           0        5.426873   -2.160685    3.275946
    108          1           0        5.578878   -4.973728    1.451195
    109          1           0        6.782748   -3.945251    2.271879
    110          1           0        6.376748   -4.284273   -0.746855
    111          1           0        7.757547   -4.935023    0.167567
    112          1           0        8.930280   -3.229570   -0.543934
    113          1           0        7.920477   -2.330359    0.693945
    114          1           0        6.316878   -2.135587   -1.466276
    115          1           0        8.450024   -1.743638   -3.318728
    116          1           0        7.258950   -2.943630   -3.370404
    117          1           0        8.882556   -3.270735   -2.620203
    118          1           0        6.964795   -0.357463   -0.421271
    119          1           0        7.429559    0.165014   -2.002133
    120          1           0        9.793444   -1.047675   -0.682229
    121          1           0        9.004487    0.071916    0.443430
    122          1           0        8.962324    1.570505   -1.775909
    123          1           0       10.590829    0.678843   -2.136028
    124          1           0       11.188408    1.008393   -0.035004
    125          1           0       10.075432    2.093156    1.499209
    126          1           0        8.745914    2.628627    0.549303
    127          1           0       10.234875    3.575013    0.849074
    128          1           0       11.296733    3.873907   -0.985711
    129          1           0       11.503639    2.708865   -2.316747
    130          1           0       13.623692    2.605026   -1.767837
    131          1           0       13.147284    1.418945   -0.593996
    132          1           0       13.076098    3.977423    0.817564
    133          1           0       14.339666    4.190567   -0.367152
    134          1           0       15.071886    1.618929    0.778187
    135          1           0       16.393024    4.387784    0.837988
    136          1           0       16.582148    3.100971   -0.293725
    137          1           0       17.045289    2.807203    1.379308
    138          1           0       13.554855    3.103788    2.758552
    139          1           0       15.249004    3.200840    2.978154
    140          1           0       14.542115    1.564531    2.784873
 ---------------------------------------------------------------------

 SCF Done:  E(RZINDO/S) =  -474.355998346     A.U. after   19 cycles

 Excitation energies and oscillator strengths:

 Excited State   1:      Singlet-A      1.2529 eV  989.61 nm  f=0.6301  <S**2>=0.000
     175 ->178        -0.19059
     176 ->177         0.66260
 This state for optimization and/or second-order correction.
 Total Energy, E(CIS/TDA) =  -474.309956499
 Copying the excited state density for this state as the 1-particle RhoCI density.

 Excited State   2:      Singlet-A      1.9295 eV  642.58 nm  f=0.0321  <S**2>=0.000
     175 ->177         0.53490
     176 ->178         0.43570

 Excited State   3:      Singlet-A      2.9070 eV  426.50 nm  f=0.5285  <S**2>=0.000
     175 ->177        -0.28766
     176 ->178         0.42120
     176 ->179         0.40460
     176 ->180         0.17556

 Excited State   4:      Singlet-A      2.9529 eV  419.87 nm  f=0.0901  <S**2>=0.000
     167 ->179        -0.12859
     168 ->177         0.24526
     168 ->179        -0.39235
     168 ->180         0.23669
     168 ->185         0.15905
     169 ->177        -0.11733
     169 ->179         0.12537
     175 ->177        -0.12225
     176 ->178         0.14829
     176 ->179        -0.12333

 Excited State   5:      Singlet-A      2.9595 eV  418.94 nm  f=0.0008  <S**2>=0.000
     170 ->177         0.32584
     170 ->178         0.19944
     170 ->179         0.26747
     170 ->180         0.35455
     170 ->185        -0.17365
     170 ->187         0.10621
     170 ->202        -0.12823

 The electronic state is 1-A.
 Alpha  occ. eigenvalues --   -1.84239  -1.82089  -1.81004  -1.72558  -1.71483
 Alpha  occ. eigenvalues --   -1.69811  -1.66074  -1.62014  -1.58789  -1.58530
 Alpha  occ. eigenvalues --   -1.54958  -1.51345  -1.48814  -1.47825  -1.47481
 Alpha  occ. eigenvalues --   -1.44992  -1.43381  -1.40488  -1.38221  -1.37943
 Alpha  occ. eigenvalues --   -1.35720  -1.34321  -1.33002  -1.31185  -1.28052
 Alpha  occ. eigenvalues --   -1.25140  -1.24681  -1.22249  -1.20881  -1.18357
 Alpha  occ. eigenvalues --   -1.17144  -1.16294  -1.15542  -1.15152  -1.15028
 Alpha  occ. eigenvalues --   -1.12934  -1.12350  -1.11767  -1.05106  -1.03450
 Alpha  occ. eigenvalues --   -1.02334  -1.01668  -0.99753  -0.98676  -0.97137
 Alpha  occ. eigenvalues --   -0.95143  -0.94710  -0.94359  -0.93132  -0.92536
 Alpha  occ. eigenvalues --   -0.89657  -0.88757  -0.88372  -0.88100  -0.86746
 Alpha  occ. eigenvalues --   -0.84703  -0.83642  -0.82930  -0.82058  -0.80044
 Alpha  occ. eigenvalues --   -0.79635  -0.78681  -0.77251  -0.77004  -0.76457
 Alpha  occ. eigenvalues --   -0.76371  -0.74827  -0.74636  -0.73740  -0.72982
 Alpha  occ. eigenvalues --   -0.72432  -0.72287  -0.72023  -0.70637  -0.70385
 Alpha  occ. eigenvalues --   -0.69917  -0.69169  -0.68894  -0.68543  -0.68110
 Alpha  occ. eigenvalues --   -0.67705  -0.66829  -0.66616  -0.66467  -0.65889
 Alpha  occ. eigenvalues --   -0.65620  -0.65022  -0.64703  -0.63874  -0.63719
 Alpha  occ. eigenvalues --   -0.63072  -0.62924  -0.62633  -0.62563  -0.61830
 Alpha  occ. eigenvalues --   -0.61157  -0.61038  -0.60341  -0.60009  -0.59691
 Alpha  occ. eigenvalues --   -0.59087  -0.58838  -0.58597  -0.58512  -0.58032
 Alpha  occ. eigenvalues --   -0.57606  -0.57357  -0.57035  -0.56959  -0.56599
 Alpha  occ. eigenvalues --   -0.56368  -0.55740  -0.55706  -0.55043  -0.54827
 Alpha  occ. eigenvalues --   -0.54629  -0.54349  -0.54228  -0.53474  -0.52897
 Alpha  occ. eigenvalues --   -0.52501  -0.52000  -0.51842  -0.51474  -0.51389
 Alpha  occ. eigenvalues --   -0.51152  -0.50655  -0.50549  -0.50128  -0.49982
 Alpha  occ. eigenvalues --   -0.49880  -0.49702  -0.49385  -0.48890  -0.48572
 Alpha  occ. eigenvalues --   -0.48351  -0.48106  -0.47940  -0.47744  -0.47569
 Alpha  occ. eigenvalues --   -0.47416  -0.47301  -0.47282  -0.47023  -0.46479
 Alpha  occ. eigenvalues --   -0.46317  -0.45902  -0.45688  -0.45629  -0.45435
 Alpha  occ. eigenvalues --   -0.44981  -0.44804  -0.44354  -0.44302  -0.44255
 Alpha  occ. eigenvalues --   -0.43334  -0.43110  -0.42498  -0.42217  -0.41888
 Alpha  occ. eigenvalues --   -0.41558  -0.41463  -0.40625  -0.38756  -0.38407
 Alpha  occ. eigenvalues --   -0.37641  -0.36417  -0.35783  -0.34437  -0.34121
 Alpha  occ. eigenvalues --   -0.33110  -0.32355  -0.32000  -0.31731  -0.26497
 Alpha  occ. eigenvalues --   -0.21439
 Alpha virt. eigenvalues --   -0.08301  -0.01910  -0.00503   0.01285   0.02074
 Alpha virt. eigenvalues --    0.02600   0.03149   0.03885   0.05142   0.05423
 Alpha virt. eigenvalues --    0.06389   0.06874   0.07287   0.07977   0.08338

 Mulliken charges:
               1
     1  Mg   0.424787
     2  C   -0.024329
     3  C   -0.081757
     4  C   -0.097903
     5  C   -0.082656
     6  N   -0.270713
     7  C    0.092792
     8  C    0.008263
     9  C    0.006123
    10  C    0.146744
    11  C   -0.055435
    12  C   -0.020230
    13  C   -0.002477
    14  C    0.476587
    15  O   -0.486313
    16  O   -0.289164
    17  N   -0.320514
    18  C    0.100522
    19  C    0.031755
    20  C   -0.060732
    21  C    0.168526
    22  C   -0.040576
    23  C    0.335360
    24  O   -0.532154
    25  C   -0.028431
    26  N   -0.273186
    27  C    0.164948
    28  C   -0.005813
    29  C    0.005211
    30  C    0.129578
    31  C   -0.064244
    32  C   -0.033367
    33  C   -0.055872
    34  N   -0.308135
    35  C    0.081418
    36  C    0.033018
    37  C   -0.055743
    38  C    0.098087
    39  C   -0.031561
    40  C    0.333802
    41  O   -0.528277
    42  C    0.053019
    43  C    0.494557
    44  O   -0.506131
    45  O   -0.294893
    46  C    0.073568
    47  C    0.105138
    48  C   -0.086956
    49  C   -0.016474
    50  C   -0.048506
    51  C   -0.019296
    52  C   -0.030471
    53  C   -0.034930
    54  C   -0.009435
    55  C   -0.054718
    56  C   -0.055974
    57  C   -0.042094
    58  C   -0.040694
    59  C   -0.017571
    60  C   -0.069078
    61  C   -0.036980
    62  C   -0.039492
    63  C   -0.028136
    64  C   -0.020638
    65  C   -0.065928
    66  C   -0.061904
    67  H    0.020078
    68  H    0.048267
    69  H    0.027761
    70  H    0.046258
    71  H    0.035024
    72  H    0.032694
    73  H    0.025253
    74  H    0.006385
    75  H    0.025272
    76  H    0.020766
    77  H    0.023574
    78  H    0.045359
    79  H    0.034107
    80  H    0.037538
    81  H    0.028920
    82  H    0.034007
    83  H    0.035320
    84  H    0.040497
    85  H    0.032752
    86  H    0.036793
    87  H    0.016361
    88  H    0.024636
    89  H    0.028481
    90  H    0.030425
    91  H    0.010917
    92  H    0.017030
    93  H    0.023248
    94  H    0.014381
    95  H    0.024536
    96  H    0.036917
    97  H    0.031147
    98  H    0.050725
    99  H    0.056527
   100  H    0.034482
   101  H    0.052262
   102  H    0.057968
   103  H    0.043920
   104  H    0.032000
   105  H    0.018444
   106  H    0.023862
   107  H    0.034269
   108  H    0.025443
   109  H    0.021482
   110  H    0.021452
   111  H    0.007539
   112  H    0.024889
   113  H    0.022637
   114  H    0.024797
   115  H    0.010336
   116  H    0.014207
   117  H    0.027214
   118  H    0.003209
   119  H    0.024587
   120  H    0.021069
   121  H    0.027837
   122  H    0.025917
   123  H    0.030993
   124  H    0.024956
   125  H    0.001807
   126  H    0.028799
   127  H    0.016979
   128  H    0.029864
   129  H    0.015580
   130  H    0.006295
   131  H    0.030335
   132  H    0.027409
   133  H    0.018357
   134  H    0.026493
   135  H    0.022907
   136  H    0.010011
   137  H    0.017035
   138  H    0.022486
   139  H    0.013269
   140  H    0.020726
 Sum of Mulliken charges =  -0.00000

 Dipole moment (field-independent basis, Debye):
    X=              7.3193    Y=              6.0060    Z=             -2.4346  Tot=              9.7760
 N-N= 4.357930826883D+03 E-N= 0.000000000000D+00  KE=-9.390557941135D+03
 Leave Link  601 at Tue Apr 26 23:39:04 2022, MaxMem=  6710886400 cpu:               1.2 elap:               0.1
 (Enter /sw/apps/gaussian-16.0/g16/l9999.exe)
 1\1\GINC-BP1-COMPUTE155\SP\RZINDO CIS\STO-3G\C55H74Mg1N4O6\OF15641\26-
 Apr-2022\0\\#p ZINDO=(nstates=5)\\step_1001_chromophore_6 ZINDO\\0,1\M
 g,0,17.157,-1.779,27.698\C,0,16.336,0.185,30.426\C,0,19.042,-3.795,29.
 847\C,0,18.359,-3.465,25.073\C,0,15.819,0.686,25.564\N,0,17.665,-1.77,
 29.894\C,0,17.079,-0.944,30.825\C,0,17.579,-1.342,32.204\C,0,18.56,-2.
 522,31.973\C,0,18.396,-2.728,30.46\C,0,20.074,-2.174,32.27\C,0,16.425,
 -1.651,33.192\C,0,16.421,-0.776,34.49\C,0,17.78,-0.48,35.187\O,0,18.38

 Normal termination of Gaussian 16 at Tue Apr 26 23:39:04 2022.
