 Gaussian 16, Revision A.03,
 Gaussian 16:  ES64L-G16RevA.03 25-Dec-2016

 ------------------------------
 #p blyp/Def2SVP td=(nstates=5)
 ------------------------------

 --------------------------------------------------
 step_651_chromophore_21 TDDFT with blyp functional
 --------------------------------------------------
 Symbolic Z-matrix:
 Charge =  0 Multiplicity = 1

                         Standard orientation:
 ---------------------------------------------------------------------
 Center     Atomic      Atomic             Coordinates (Angstroms)
 Number     Number       Type             X           Y           Z
 ---------------------------------------------------------------------
      1         12           0        4.766274    1.271895    0.273126
      2          6           0        4.565369   -2.412409    0.168204
      3          6           0        1.321730    1.074675   -0.248547
      4          6           0        4.866234    4.511683   -0.364711
      5          6           0        8.243796    0.961155   -0.088573
      6          7           0        3.217075   -0.520315   -0.054987
      7          6           0        3.345284   -1.850589    0.136008
      8          6           0        1.909613   -2.517264    0.309090
      9          6           0        1.051851   -1.414959   -0.245158
     10          6           0        1.959007   -0.199180   -0.154997
     11          6           0        0.631955   -1.610560   -1.712829
     12          6           0        1.616955   -2.964754    1.770139
     13          6           0        0.684498   -4.121536    1.981590
     14          6           0       -0.167200   -4.771412    0.865356
     15          8           0       -0.110480   -5.924088    0.509855
     16          8           0       -1.022183   -3.821367    0.399225
     17          7           0        3.334589    2.602490   -0.169737
     18          6           0        2.018072    2.359057   -0.209844
     19          6           0        1.338247    3.663713   -0.129331
     20          6           0        2.331200    4.683413   -0.092163
     21          6           0        3.594659    3.950790   -0.232138
     22          6           0       -0.145634    3.780078    0.096374
     23          6           0        2.294683    6.193460   -0.047932
     24          8           0        3.230119    6.914882    0.194753
     25          6           0        0.864588    6.801665    0.133684
     26          7           0        6.345048    2.513886   -0.214165
     27          6           0        6.139231    3.860525   -0.377068
     28          6           0        7.443069    4.680907   -0.380944
     29          6           0        8.479244    3.521245   -0.128668
     30          6           0        7.643392    2.225645   -0.109475
     31          6           0        7.631139    5.612405   -1.669761
     32          6           0        9.292942    3.642960    1.165408
     33          6           0       10.721127    3.905853    0.755781
     34          7           0        6.124207   -0.365900    0.186289
     35          6           0        7.516458   -0.301799    0.022647
     36          6           0        8.053957   -1.650000    0.160448
     37          6           0        6.951145   -2.498336    0.232267
     38          6           0        5.759542   -1.632318    0.119706
     39          6           0        9.547165   -1.984073    0.117518
     40          6           0        6.538813   -3.860196    0.415309
     41          8           0        7.190108   -4.853165    0.659126
     42          6           0        4.976542   -3.910868    0.379370
     43          6           0        4.545128   -4.756962   -0.746314
     44          8           0        5.066426   -4.686678   -1.853989
     45          8           0        3.594225   -5.668945   -0.426137
     46          6           0        3.136206   -6.506249   -1.527782
     47          6           0       -2.073476   -4.434247   -0.397549
     48          6           0       -3.241441   -3.526602   -0.442218
     49          6           0       -4.548661   -3.674646   -0.122279
     50          6           0       -5.223184   -4.999321   -0.081790
     51          6           0       -5.386320   -2.395411   -0.022087
     52          6           0       -6.806191   -2.390398   -0.802068
     53          6           0       -7.970859   -2.194046    0.161578
     54          6           0       -8.046129   -0.786726    0.693186
     55          6           0       -8.083961   -0.782952    2.199152
     56          6           0       -9.312594   -0.106960    0.102277
     57          6           0       -9.019654    1.286260   -0.504259
     58          6           0       -9.190103    2.503871    0.378327
     59          6           0      -10.451274    3.415968    0.082686
     60          6           0      -10.077486    4.947013    0.162992
     61          6           0      -11.587709    3.111523    1.124449
     62          6           0      -12.976859    3.016916    0.478543
     63          6           0      -13.506308    1.554366    0.403454
     64          6           0      -13.219836    0.694075   -0.884548
     65          6           0      -14.248998    0.855935   -1.976162
     66          6           0      -13.068715   -0.754417   -0.496176
     67          1           0        0.231396    1.092275   -0.193115
     68          1           0        4.968846    5.593486   -0.468007
     69          1           0        9.335017    0.932715   -0.055362
     70          1           0        2.008844   -3.433505   -0.271885
     71          1           0        0.155029   -1.208610    0.340784
     72          1           0       -0.439971   -1.447647   -1.823897
     73          1           0        0.972138   -2.588308   -2.053295
     74          1           0        1.104031   -0.855136   -2.339879
     75          1           0        1.216436   -2.150379    2.373417
     76          1           0        2.566187   -3.189345    2.257796
     77          1           0        0.019171   -3.689686    2.729699
     78          1           0        1.293449   -4.877729    2.477181
     79          1           0       -0.469459    4.183427    1.055420
     80          1           0       -0.618381    2.808621   -0.047133
     81          1           0       -0.532899    4.459540   -0.663266
     82          1           0        0.253731    6.522542   -0.725327
     83          1           0        0.993956    7.873705    0.276230
     84          1           0        0.501497    6.433292    1.092859
     85          1           0        7.433259    5.341222    0.486510
     86          1           0        9.080813    3.329504   -1.016084
     87          1           0        6.716492    5.443395   -2.238678
     88          1           0        8.518972    5.221493   -2.167470
     89          1           0        7.792932    6.665821   -1.441169
     90          1           0        9.172365    2.804103    1.850216
     91          1           0        8.994652    4.509412    1.754718
     92          1           0       11.406012    3.516351    1.508891
     93          1           0       10.791560    4.980062    0.928107
     94          1           0       11.050352    3.556870   -0.222865
     95          1           0        9.935120   -2.114234    1.128272
     96          1           0        9.957495   -1.153142   -0.454557
     97          1           0        9.718213   -2.909465   -0.432579
     98          1           0        4.652417   -4.382741    1.306073
     99          1           0        2.081982   -6.708762   -1.337134
    100          1           0        3.698705   -7.439135   -1.483753
    101          1           0        3.184459   -5.954683   -2.466732
    102          1           0       -2.461229   -5.338161    0.072238
    103          1           0       -1.688165   -4.528804   -1.412677
    104          1           0       -2.801520   -2.535536   -0.548049
    105          1           0       -6.289959   -4.890887    0.115600
    106          1           0       -4.649535   -5.515625    0.686709
    107          1           0       -5.041560   -5.479714   -1.043510
    108          1           0       -4.709362   -1.624140   -0.389310
    109          1           0       -5.588791   -2.298809    1.044031
    110          1           0       -6.930244   -3.287423   -1.409776
    111          1           0       -6.928939   -1.605577   -1.548945
    112          1           0       -7.912100   -2.874294    1.011139
    113          1           0       -8.956916   -2.516711   -0.173731
    114          1           0       -7.187598   -0.154952    0.461956
    115          1           0       -8.234681    0.258746    2.483993
    116          1           0       -7.133473   -1.068061    2.650922
    117          1           0       -8.915084   -1.433323    2.472011
    118          1           0       -9.936995    0.104856    0.970311
    119          1           0       -9.914951   -0.660545   -0.617937
    120          1           0       -9.445403    1.498560   -1.484375
    121          1           0       -7.939670    1.317718   -0.646410
    122          1           0       -8.308554    3.139012    0.290525
    123          1           0       -9.333801    2.086194    1.375215
    124          1           0      -10.783961    3.260695   -0.944573
    125          1           0       -9.227974    5.111308   -0.500095
    126          1           0       -9.879391    5.149775    1.215860
    127          1           0      -10.951666    5.494625   -0.188311
    128          1           0      -11.591137    3.825816    1.946907
    129          1           0      -11.394040    2.072475    1.391780
    130          1           0      -13.003654    3.355097   -0.556888
    131          1           0      -13.749101    3.575374    1.007112
    132          1           0      -14.589195    1.675892    0.422267
    133          1           0      -13.177666    1.055278    1.315471
    134          1           0      -12.265023    1.092244   -1.227728
    135          1           0      -13.724484    1.421256   -2.747646
    136          1           0      -15.114607    1.389744   -1.586016
    137          1           0      -14.556228   -0.135338   -2.310406
    138          1           0      -12.738362   -1.460150   -1.257481
    139          1           0      -14.102556   -1.024750   -0.279054
    140          1           0      -12.476196   -1.011962    0.381887
 ---------------------------------------------------------------------

 SCF Done:  E(RB-LYP) =  -3007.35985290     A.U. after   22 cycles

 Excitation energies and oscillator strengths:

 Excited State   1:      Singlet-A      1.7988 eV  689.26 nm  f=0.1849  <S**2>=0.000
     244 -> 247       -0.44004
     245 -> 248       -0.13164
     246 -> 247        0.53750
     246 <- 247       -0.11864
 This state for optimization and/or second-order correction.
 Total Energy, E(TD-HF/TD-DFT) =  -3007.29374788
 Copying the excited state density for this state as the 1-particle RhoCI density.

 Excited State   2:      Singlet-A      1.8121 eV  684.21 nm  f=0.1247  <S**2>=0.000
     244 -> 247        0.54307
     245 -> 248       -0.11200
     246 -> 247        0.43464

 Excited State   3:      Singlet-A      2.0654 eV  600.29 nm  f=0.0481  <S**2>=0.000
     243 -> 247        0.43053
     245 -> 247        0.50417
     246 -> 248        0.20060

 Excited State   4:      Singlet-A      2.1124 eV  586.93 nm  f=0.0287  <S**2>=0.000
     243 -> 247        0.55921
     245 -> 247       -0.37611
     246 -> 248       -0.17231

 Excited State   5:      Singlet-A      2.5043 eV  495.09 nm  f=0.0000  <S**2>=0.000
     240 -> 247       -0.10632
     241 -> 247        0.69400

 The electronic state is 1-A.
 Alpha  occ. eigenvalues --  -46.27658 -18.83158 -18.81788 -18.77856 -18.76341
 Alpha  occ. eigenvalues --  -18.75217 -18.74656 -14.03185 -14.02590 -14.01441
 Alpha  occ. eigenvalues --  -14.01174 -10.04867 -10.02846 -10.00223  -9.98519
 Alpha  occ. eigenvalues --   -9.98039  -9.96724  -9.96581  -9.96293  -9.96150
 Alpha  occ. eigenvalues --   -9.96012  -9.95828  -9.95751  -9.95676  -9.94722
 Alpha  occ. eigenvalues --   -9.94177  -9.94040  -9.93788  -9.93738  -9.93425
 Alpha  occ. eigenvalues --   -9.93396  -9.93331  -9.93310  -9.93303  -9.93286
 Alpha  occ. eigenvalues --   -9.93176  -9.93162  -9.93130  -9.93058  -9.92907
 Alpha  occ. eigenvalues --   -9.92898  -9.92754  -9.92713  -9.92569  -9.92453
 Alpha  occ. eigenvalues --   -9.92309  -9.92006  -9.91938  -9.91924  -9.91845
 Alpha  occ. eigenvalues --   -9.91818  -9.91766  -9.91572  -9.91477  -9.91371
 Alpha  occ. eigenvalues --   -9.91349  -9.91310  -9.91198  -9.91099  -9.91061
 Alpha  occ. eigenvalues --   -9.90999  -9.90930  -9.90900  -9.90884  -9.90814
 Alpha  occ. eigenvalues --   -9.90461  -2.92381  -1.72760  -1.72295  -1.72091
 Alpha  occ. eigenvalues --   -0.99594  -0.97618  -0.92975  -0.91614  -0.90967
 Alpha  occ. eigenvalues --   -0.88704  -0.87642  -0.86561  -0.85931  -0.85183
 Alpha  occ. eigenvalues --   -0.74667  -0.74592  -0.73821  -0.73193  -0.72829
 Alpha  occ. eigenvalues --   -0.72549  -0.71524  -0.71339  -0.70760  -0.70372
 Alpha  occ. eigenvalues --   -0.69499  -0.69453  -0.68579  -0.67612  -0.67260
 Alpha  occ. eigenvalues --   -0.66932  -0.65908  -0.65361  -0.64938  -0.64757
 Alpha  occ. eigenvalues --   -0.64020  -0.62491  -0.62272  -0.61745  -0.61632
 Alpha  occ. eigenvalues --   -0.60564  -0.60474  -0.59810  -0.59715  -0.59027
 Alpha  occ. eigenvalues --   -0.58218  -0.57564  -0.56443  -0.55628  -0.54117
 Alpha  occ. eigenvalues --   -0.53864  -0.53469  -0.53089  -0.52780  -0.51845
 Alpha  occ. eigenvalues --   -0.51685  -0.51010  -0.50867  -0.50381  -0.50181
 Alpha  occ. eigenvalues --   -0.50049  -0.49231  -0.48409  -0.48125  -0.47118
 Alpha  occ. eigenvalues --   -0.46397  -0.45727  -0.45493  -0.45130  -0.44329
 Alpha  occ. eigenvalues --   -0.44237  -0.43761  -0.43040  -0.42623  -0.42352
 Alpha  occ. eigenvalues --   -0.42121  -0.42013  -0.41875  -0.41532  -0.41439
 Alpha  occ. eigenvalues --   -0.41179  -0.40841  -0.40650  -0.40474  -0.40214
 Alpha  occ. eigenvalues --   -0.40041  -0.39919  -0.39708  -0.39650  -0.39480
 Alpha  occ. eigenvalues --   -0.39238  -0.39125  -0.38822  -0.38710  -0.38542
 Alpha  occ. eigenvalues --   -0.38333  -0.37841  -0.37699  -0.37638  -0.37509
 Alpha  occ. eigenvalues --   -0.37392  -0.37341  -0.37081  -0.36828  -0.36657
 Alpha  occ. eigenvalues --   -0.36633  -0.36305  -0.36217  -0.36079  -0.36047
 Alpha  occ. eigenvalues --   -0.35821  -0.35449  -0.35356  -0.35225  -0.35131
 Alpha  occ. eigenvalues --   -0.35024  -0.34655  -0.34444  -0.34246  -0.34032
 Alpha  occ. eigenvalues --   -0.33995  -0.33832  -0.33609  -0.33601  -0.33483
 Alpha  occ. eigenvalues --   -0.33049  -0.32915  -0.32785  -0.32682  -0.32160
 Alpha  occ. eigenvalues --   -0.32015  -0.31911  -0.31872  -0.31719  -0.31566
 Alpha  occ. eigenvalues --   -0.31503  -0.31300  -0.31249  -0.31071  -0.30908
 Alpha  occ. eigenvalues --   -0.30787  -0.30455  -0.30357  -0.30085  -0.30020
 Alpha  occ. eigenvalues --   -0.29759  -0.29345  -0.29117  -0.28940  -0.28719
 Alpha  occ. eigenvalues --   -0.28504  -0.28203  -0.28097  -0.27924  -0.27906
 Alpha  occ. eigenvalues --   -0.27694  -0.27451  -0.27142  -0.26806  -0.26584
 Alpha  occ. eigenvalues --   -0.26414  -0.26208  -0.26055  -0.26000  -0.25808
 Alpha  occ. eigenvalues --   -0.25182  -0.24445  -0.24359  -0.23742  -0.23457
 Alpha  occ. eigenvalues --   -0.23182  -0.22839  -0.22169  -0.20966  -0.20676
 Alpha  occ. eigenvalues --   -0.20567  -0.20175  -0.18977  -0.17923  -0.17359
 Alpha  occ. eigenvalues --   -0.15589
 Alpha virt. eigenvalues --   -0.11369  -0.07050  -0.05622  -0.04312  -0.03928
 Alpha virt. eigenvalues --   -0.03759  -0.02569  -0.01842  -0.00835   0.00008
 Alpha virt. eigenvalues --    0.01416   0.02039   0.02338   0.02422   0.02466

 Mulliken charges:
               1
     1  Mg   0.719978
     2  C   -0.037572
     3  C   -0.082981
     4  C   -0.036920
     5  C   -0.067346
     6  N   -0.113112
     7  C   -0.146569
     8  C    0.048379
     9  C   -0.000430
    10  C    0.002769
    11  C    0.144798
    12  C    0.123219
    13  C    0.166695
    14  C    0.072255
    15  O   -0.161813
    16  O   -0.273960
    17  N   -0.312714
    18  C    0.136092
    19  C   -0.154513
    20  C    0.037113
    21  C    0.120662
    22  C    0.175975
    23  C   -0.070776
    24  O   -0.148699
    25  C    0.107286
    26  N   -0.232883
    27  C   -0.008673
    28  C   -0.001004
    29  C    0.025920
    30  C    0.004525
    31  C    0.132580
    32  C    0.111252
    33  C    0.068815
    34  N   -0.233957
    35  C    0.109454
    36  C   -0.202876
    37  C    0.087052
    38  C    0.094789
    39  C    0.170454
    40  C   -0.068860
    41  O   -0.121854
    42  C    0.132833
    43  C    0.077119
    44  O   -0.194092
    45  O   -0.258548
    46  C    0.204950
    47  C    0.343299
    48  C   -0.158579
    49  C   -0.185988
    50  C    0.154363
    51  C    0.165273
    52  C    0.076546
    53  C    0.128624
    54  C   -0.102356
    55  C    0.112122
    56  C    0.111555
    57  C    0.069474
    58  C    0.088302
    59  C   -0.108045
    60  C    0.098066
    61  C    0.143147
    62  C    0.075604
    63  C    0.039327
    64  C   -0.081137
    65  C    0.142542
    66  C    0.084153
    67  H   -0.056355
    68  H   -0.042417
    69  H   -0.053427
    70  H   -0.026005
    71  H   -0.036316
    72  H   -0.004324
    73  H   -0.008063
    74  H   -0.007555
    75  H   -0.042039
    76  H   -0.026572
    77  H   -0.014376
    78  H   -0.008765
    79  H    0.009642
    80  H   -0.025409
    81  H   -0.010026
    82  H    0.007751
    83  H   -0.012499
    84  H    0.011957
    85  H   -0.015229
    86  H   -0.019632
    87  H    0.004777
    88  H   -0.011833
    89  H    0.002049
    90  H   -0.013657
    91  H   -0.030462
    92  H   -0.024197
    93  H   -0.014604
    94  H    0.005420
    95  H    0.011694
    96  H   -0.005612
    97  H    0.008210
    98  H   -0.014489
    99  H    0.016894
   100  H    0.024718
   101  H    0.020783
   102  H   -0.010716
   103  H   -0.002843
   104  H   -0.037392
   105  H    0.004500
   106  H    0.010939
   107  H    0.015832
   108  H   -0.026482
   109  H   -0.006684
   110  H   -0.032335
   111  H   -0.025981
   112  H   -0.061230
   113  H   -0.048006
   114  H   -0.032478
   115  H   -0.023595
   116  H   -0.015098
   117  H   -0.008463
   118  H   -0.033925
   119  H   -0.015725
   120  H   -0.039647
   121  H   -0.048075
   122  H   -0.045155
   123  H   -0.031139
   124  H   -0.036159
   125  H   -0.010813
   126  H   -0.010037
   127  H   -0.015715
   128  H   -0.023971
   129  H   -0.031664
   130  H   -0.039632
   131  H   -0.040148
   132  H   -0.044555
   133  H   -0.033131
   134  H   -0.034611
   135  H   -0.009862
   136  H   -0.017236
   137  H   -0.017631
   138  H   -0.019437
   139  H   -0.026528
   140  H   -0.016308
 Sum of Mulliken charges =  -0.00000

 Dipole moment (field-independent basis, Debye):
    X=             -5.3958    Y=              3.4263    Z=              1.8724  Tot=              6.6603
 Quadrupole moment (field-independent basis, Debye-Ang):
   XX=           -397.3905   YY=           -443.8270   ZZ=           -403.5032
   XY=             44.7284   XZ=             11.7439   YZ=              1.1914

 Normal termination of Gaussian 16 at Sat Apr 30 08:34:12 2022.
