 Gaussian 16, Revision A.03,
 Gaussian 16:  ES64L-G16RevA.03 25-Dec-2016

 -----------------------------------
 #p cam-b3lyp/Def2SVP td=(nstates=5)
 -----------------------------------

 -------------------------------------------------------
 step_651_chromophore_21 TDDFT with cam-b3lyp functional
 -------------------------------------------------------
 Symbolic Z-matrix:
 Charge =  0 Multiplicity = 1

                         Standard orientation:
 ---------------------------------------------------------------------
 Center     Atomic      Atomic             Coordinates (Angstroms)
 Number     Number       Type             X           Y           Z
 ---------------------------------------------------------------------
      1         12           0        4.766274    1.271895    0.273126
      2          6           0        4.565369   -2.412409    0.168204
      3          6           0        1.321730    1.074675   -0.248547
      4          6           0        4.866234    4.511683   -0.364711
      5          6           0        8.243796    0.961155   -0.088573
      6          7           0        3.217075   -0.520315   -0.054987
      7          6           0        3.345284   -1.850589    0.136008
      8          6           0        1.909613   -2.517264    0.309090
      9          6           0        1.051851   -1.414959   -0.245158
     10          6           0        1.959007   -0.199180   -0.154997
     11          6           0        0.631955   -1.610560   -1.712829
     12          6           0        1.616955   -2.964754    1.770139
     13          6           0        0.684498   -4.121536    1.981590
     14          6           0       -0.167200   -4.771412    0.865356
     15          8           0       -0.110480   -5.924088    0.509855
     16          8           0       -1.022183   -3.821367    0.399225
     17          7           0        3.334589    2.602490   -0.169737
     18          6           0        2.018072    2.359057   -0.209844
     19          6           0        1.338247    3.663713   -0.129331
     20          6           0        2.331200    4.683413   -0.092163
     21          6           0        3.594659    3.950790   -0.232138
     22          6           0       -0.145634    3.780078    0.096374
     23          6           0        2.294683    6.193460   -0.047932
     24          8           0        3.230119    6.914882    0.194753
     25          6           0        0.864588    6.801665    0.133684
     26          7           0        6.345048    2.513886   -0.214165
     27          6           0        6.139231    3.860525   -0.377068
     28          6           0        7.443069    4.680907   -0.380944
     29          6           0        8.479244    3.521245   -0.128668
     30          6           0        7.643392    2.225645   -0.109475
     31          6           0        7.631139    5.612405   -1.669761
     32          6           0        9.292942    3.642960    1.165408
     33          6           0       10.721127    3.905853    0.755781
     34          7           0        6.124207   -0.365900    0.186289
     35          6           0        7.516458   -0.301799    0.022647
     36          6           0        8.053957   -1.650000    0.160448
     37          6           0        6.951145   -2.498336    0.232267
     38          6           0        5.759542   -1.632318    0.119706
     39          6           0        9.547165   -1.984073    0.117518
     40          6           0        6.538813   -3.860196    0.415309
     41          8           0        7.190108   -4.853165    0.659126
     42          6           0        4.976542   -3.910868    0.379370
     43          6           0        4.545128   -4.756962   -0.746314
     44          8           0        5.066426   -4.686678   -1.853989
     45          8           0        3.594225   -5.668945   -0.426137
     46          6           0        3.136206   -6.506249   -1.527782
     47          6           0       -2.073476   -4.434247   -0.397549
     48          6           0       -3.241441   -3.526602   -0.442218
     49          6           0       -4.548661   -3.674646   -0.122279
     50          6           0       -5.223184   -4.999321   -0.081790
     51          6           0       -5.386320   -2.395411   -0.022087
     52          6           0       -6.806191   -2.390398   -0.802068
     53          6           0       -7.970859   -2.194046    0.161578
     54          6           0       -8.046129   -0.786726    0.693186
     55          6           0       -8.083961   -0.782952    2.199152
     56          6           0       -9.312594   -0.106960    0.102277
     57          6           0       -9.019654    1.286260   -0.504259
     58          6           0       -9.190103    2.503871    0.378327
     59          6           0      -10.451274    3.415968    0.082686
     60          6           0      -10.077486    4.947013    0.162992
     61          6           0      -11.587709    3.111523    1.124449
     62          6           0      -12.976859    3.016916    0.478543
     63          6           0      -13.506308    1.554366    0.403454
     64          6           0      -13.219836    0.694075   -0.884548
     65          6           0      -14.248998    0.855935   -1.976162
     66          6           0      -13.068715   -0.754417   -0.496176
     67          1           0        0.231396    1.092275   -0.193115
     68          1           0        4.968846    5.593486   -0.468007
     69          1           0        9.335017    0.932715   -0.055362
     70          1           0        2.008844   -3.433505   -0.271885
     71          1           0        0.155029   -1.208610    0.340784
     72          1           0       -0.439971   -1.447647   -1.823897
     73          1           0        0.972138   -2.588308   -2.053295
     74          1           0        1.104031   -0.855136   -2.339879
     75          1           0        1.216436   -2.150379    2.373417
     76          1           0        2.566187   -3.189345    2.257796
     77          1           0        0.019171   -3.689686    2.729699
     78          1           0        1.293449   -4.877729    2.477181
     79          1           0       -0.469459    4.183427    1.055420
     80          1           0       -0.618381    2.808621   -0.047133
     81          1           0       -0.532899    4.459540   -0.663266
     82          1           0        0.253731    6.522542   -0.725327
     83          1           0        0.993956    7.873705    0.276230
     84          1           0        0.501497    6.433292    1.092859
     85          1           0        7.433259    5.341222    0.486510
     86          1           0        9.080813    3.329504   -1.016084
     87          1           0        6.716492    5.443395   -2.238678
     88          1           0        8.518972    5.221493   -2.167470
     89          1           0        7.792932    6.665821   -1.441169
     90          1           0        9.172365    2.804103    1.850216
     91          1           0        8.994652    4.509412    1.754718
     92          1           0       11.406012    3.516351    1.508891
     93          1           0       10.791560    4.980062    0.928107
     94          1           0       11.050352    3.556870   -0.222865
     95          1           0        9.935120   -2.114234    1.128272
     96          1           0        9.957495   -1.153142   -0.454557
     97          1           0        9.718213   -2.909465   -0.432579
     98          1           0        4.652417   -4.382741    1.306073
     99          1           0        2.081982   -6.708762   -1.337134
    100          1           0        3.698705   -7.439135   -1.483753
    101          1           0        3.184459   -5.954683   -2.466732
    102          1           0       -2.461229   -5.338161    0.072238
    103          1           0       -1.688165   -4.528804   -1.412677
    104          1           0       -2.801520   -2.535536   -0.548049
    105          1           0       -6.289959   -4.890887    0.115600
    106          1           0       -4.649535   -5.515625    0.686709
    107          1           0       -5.041560   -5.479714   -1.043510
    108          1           0       -4.709362   -1.624140   -0.389310
    109          1           0       -5.588791   -2.298809    1.044031
    110          1           0       -6.930244   -3.287423   -1.409776
    111          1           0       -6.928939   -1.605577   -1.548945
    112          1           0       -7.912100   -2.874294    1.011139
    113          1           0       -8.956916   -2.516711   -0.173731
    114          1           0       -7.187598   -0.154952    0.461956
    115          1           0       -8.234681    0.258746    2.483993
    116          1           0       -7.133473   -1.068061    2.650922
    117          1           0       -8.915084   -1.433323    2.472011
    118          1           0       -9.936995    0.104856    0.970311
    119          1           0       -9.914951   -0.660545   -0.617937
    120          1           0       -9.445403    1.498560   -1.484375
    121          1           0       -7.939670    1.317718   -0.646410
    122          1           0       -8.308554    3.139012    0.290525
    123          1           0       -9.333801    2.086194    1.375215
    124          1           0      -10.783961    3.260695   -0.944573
    125          1           0       -9.227974    5.111308   -0.500095
    126          1           0       -9.879391    5.149775    1.215860
    127          1           0      -10.951666    5.494625   -0.188311
    128          1           0      -11.591137    3.825816    1.946907
    129          1           0      -11.394040    2.072475    1.391780
    130          1           0      -13.003654    3.355097   -0.556888
    131          1           0      -13.749101    3.575374    1.007112
    132          1           0      -14.589195    1.675892    0.422267
    133          1           0      -13.177666    1.055278    1.315471
    134          1           0      -12.265023    1.092244   -1.227728
    135          1           0      -13.724484    1.421256   -2.747646
    136          1           0      -15.114607    1.389744   -1.586016
    137          1           0      -14.556228   -0.135338   -2.310406
    138          1           0      -12.738362   -1.460150   -1.257481
    139          1           0      -14.102556   -1.024750   -0.279054
    140          1           0      -12.476196   -1.011962    0.381887
 ---------------------------------------------------------------------

 SCF Done:  E(RCAM-B3LYP) =  -3007.16738184     A.U. after   18 cycles

 Excitation energies and oscillator strengths:

 Excited State   1:      Singlet-A      1.6933 eV  732.23 nm  f=0.3829  <S**2>=0.000
     245 -> 248        0.16618
     246 -> 247        0.68777
     245 <- 248        0.10169
 This state for optimization and/or second-order correction.
 Total Energy, E(TD-HF/TD-DFT) =  -3007.10515599
 Copying the excited state density for this state as the 1-particle RhoCI density.

 Excited State   2:      Singlet-A      2.3035 eV  538.23 nm  f=0.0998  <S**2>=0.000
     245 -> 247        0.62450
     246 -> 248       -0.31356

 Excited State   3:      Singlet-A      3.4302 eV  361.45 nm  f=0.0111  <S**2>=0.000
     243 -> 247        0.10893
     243 -> 251        0.12649
     244 -> 247        0.63969
     246 -> 248        0.14789

 Excited State   4:      Singlet-A      3.4646 eV  357.86 nm  f=0.5767  <S**2>=0.000
     241 -> 247        0.26589
     244 -> 247       -0.12196
     245 -> 247        0.28052
     246 -> 248        0.57059

 Excited State   5:      Singlet-A      3.5619 eV  348.09 nm  f=0.0033  <S**2>=0.000
     246 -> 249        0.53145
     246 -> 250        0.44903

 The electronic state is 1-A.
 Alpha  occ. eigenvalues --  -46.89269 -19.26079 -19.24652 -19.20850 -19.19890
 Alpha  occ. eigenvalues --  -19.18187 -19.17525 -14.42100 -14.41273 -14.40025
 Alpha  occ. eigenvalues --  -14.39455 -10.40124 -10.38130 -10.35738 -10.33528
 Alpha  occ. eigenvalues --  -10.32091 -10.31274 -10.31049 -10.30607 -10.30591
 Alpha  occ. eigenvalues --  -10.30497 -10.30250 -10.29966 -10.29617 -10.29176
 Alpha  occ. eigenvalues --  -10.28810 -10.28044 -10.27939 -10.27825 -10.27617
 Alpha  occ. eigenvalues --  -10.27504 -10.27453 -10.27439 -10.27379 -10.27247
 Alpha  occ. eigenvalues --  -10.27207 -10.27156 -10.27132 -10.27072 -10.26988
 Alpha  occ. eigenvalues --  -10.26813 -10.26571 -10.26546 -10.26527 -10.26319
 Alpha  occ. eigenvalues --  -10.26141 -10.26035 -10.25778 -10.25609 -10.25561
 Alpha  occ. eigenvalues --  -10.25536 -10.25520 -10.25429 -10.25104 -10.25098
 Alpha  occ. eigenvalues --  -10.24995 -10.24988 -10.24929 -10.24777 -10.24758
 Alpha  occ. eigenvalues --  -10.24679 -10.24630 -10.24595 -10.24589 -10.24452
 Alpha  occ. eigenvalues --  -10.24193  -3.17894  -1.92746  -1.92364  -1.92195
 Alpha  occ. eigenvalues --   -1.18093  -1.16068  -1.11739  -1.09531  -1.09116
 Alpha  occ. eigenvalues --   -1.06560  -1.05401  -1.04314  -1.03647  -1.02490
 Alpha  occ. eigenvalues --   -0.91618  -0.91523  -0.90668  -0.89981  -0.89630
 Alpha  occ. eigenvalues --   -0.89172  -0.88287  -0.87996  -0.87339  -0.87289
 Alpha  occ. eigenvalues --   -0.85916  -0.85746  -0.84900  -0.83763  -0.83316
 Alpha  occ. eigenvalues --   -0.83024  -0.81835  -0.81490  -0.80841  -0.80634
 Alpha  occ. eigenvalues --   -0.80042  -0.78321  -0.77882  -0.77222  -0.77095
 Alpha  occ. eigenvalues --   -0.75890  -0.75876  -0.75104  -0.75020  -0.74321
 Alpha  occ. eigenvalues --   -0.73228  -0.72494  -0.71326  -0.70437  -0.68678
 Alpha  occ. eigenvalues --   -0.68443  -0.68103  -0.67495  -0.67317  -0.65970
 Alpha  occ. eigenvalues --   -0.65820  -0.65273  -0.64829  -0.64439  -0.64171
 Alpha  occ. eigenvalues --   -0.63996  -0.63265  -0.62326  -0.61785  -0.60704
 Alpha  occ. eigenvalues --   -0.60196  -0.59185  -0.58978  -0.58475  -0.57793
 Alpha  occ. eigenvalues --   -0.57684  -0.57064  -0.56312  -0.55853  -0.55367
 Alpha  occ. eigenvalues --   -0.55210  -0.55025  -0.54867  -0.54537  -0.54394
 Alpha  occ. eigenvalues --   -0.54118  -0.53671  -0.53518  -0.53268  -0.53078
 Alpha  occ. eigenvalues --   -0.52935  -0.52681  -0.52341  -0.52259  -0.52103
 Alpha  occ. eigenvalues --   -0.51944  -0.51847  -0.51254  -0.51099  -0.51013
 Alpha  occ. eigenvalues --   -0.50548  -0.50241  -0.50073  -0.50060  -0.49836
 Alpha  occ. eigenvalues --   -0.49725  -0.49585  -0.49532  -0.49238  -0.49035
 Alpha  occ. eigenvalues --   -0.48757  -0.48685  -0.48505  -0.48321  -0.48186
 Alpha  occ. eigenvalues --   -0.48095  -0.47961  -0.47695  -0.47296  -0.47123
 Alpha  occ. eigenvalues --   -0.47045  -0.46764  -0.46179  -0.46113  -0.45923
 Alpha  occ. eigenvalues --   -0.45719  -0.45668  -0.45462  -0.45229  -0.45122
 Alpha  occ. eigenvalues --   -0.44890  -0.44668  -0.44518  -0.44356  -0.44096
 Alpha  occ. eigenvalues --   -0.43793  -0.43554  -0.43337  -0.43299  -0.43235
 Alpha  occ. eigenvalues --   -0.42945  -0.42843  -0.42634  -0.42420  -0.42333
 Alpha  occ. eigenvalues --   -0.42166  -0.41942  -0.41709  -0.41329  -0.41270
 Alpha  occ. eigenvalues --   -0.41035  -0.40934  -0.40610  -0.40200  -0.39742
 Alpha  occ. eigenvalues --   -0.39638  -0.39224  -0.39156  -0.39061  -0.38854
 Alpha  occ. eigenvalues --   -0.38548  -0.38358  -0.37975  -0.37855  -0.37619
 Alpha  occ. eigenvalues --   -0.37314  -0.37011  -0.36835  -0.36778  -0.36677
 Alpha  occ. eigenvalues --   -0.36151  -0.35743  -0.34888  -0.34853  -0.34181
 Alpha  occ. eigenvalues --   -0.33869  -0.33468  -0.32625  -0.31429  -0.31163
 Alpha  occ. eigenvalues --   -0.30590  -0.30203  -0.29847  -0.29258  -0.24172
 Alpha  occ. eigenvalues --   -0.20784
 Alpha virt. eigenvalues --   -0.08454  -0.01705   0.00599   0.01073   0.02832
 Alpha virt. eigenvalues --    0.03815   0.05121   0.06038   0.06443   0.06943
 Alpha virt. eigenvalues --    0.07794   0.08253   0.08575   0.08738   0.08991

 Mulliken charges:
               1
     1  Mg   0.851271
     2  C   -0.069609
     3  C   -0.094571
     4  C   -0.055984
     5  C   -0.066477
     6  N   -0.183628
     7  C   -0.101766
     8  C   -0.002434
     9  C   -0.060039
    10  C    0.022760
    11  C    0.092101
    12  C    0.077789
    13  C    0.099118
    14  C    0.144170
    15  O   -0.203021
    16  O   -0.334842
    17  N   -0.405768
    18  C    0.149808
    19  C   -0.158930
    20  C   -0.025977
    21  C    0.141671
    22  C    0.117765
    23  C    0.007525
    24  O   -0.185695
    25  C    0.029294
    26  N   -0.307234
    27  C    0.012918
    28  C   -0.050944
    29  C   -0.035025
    30  C    0.021929
    31  C    0.075654
    32  C    0.053033
    33  C    0.003860
    34  N   -0.319061
    35  C    0.102466
    36  C   -0.193517
    37  C    0.000203
    38  C    0.132365
    39  C    0.123173
    40  C    0.032333
    41  O   -0.163454
    42  C    0.056827
    43  C    0.168576
    44  O   -0.232344
    45  O   -0.322424
    46  C    0.166208
    47  C    0.307095
    48  C   -0.173627
    49  C   -0.196030
    50  C    0.087453
    51  C    0.106066
    52  C    0.015447
    53  C    0.071297
    54  C   -0.158355
    55  C    0.058804
    56  C    0.060352
    57  C    0.013217
    58  C    0.039360
    59  C   -0.160754
    60  C    0.045067
    61  C    0.085165
    62  C    0.024312
    63  C   -0.009943
    64  C   -0.134335
    65  C    0.077434
    66  C    0.023167
    67  H   -0.023202
    68  H   -0.001160
    69  H   -0.018645
    70  H    0.006131
    71  H   -0.000131
    72  H    0.016598
    73  H    0.015955
    74  H    0.020296
    75  H   -0.010447
    76  H    0.005075
    77  H    0.018730
    78  H    0.024057
    79  H    0.036937
    80  H    0.003892
    81  H    0.016275
    82  H    0.033896
    83  H    0.023811
    84  H    0.038462
    85  H    0.019290
    86  H    0.014530
    87  H    0.028804
    88  H    0.012737
    89  H    0.026345
    90  H    0.016827
    91  H   -0.001640
    92  H    0.002307
    93  H    0.009148
    94  H    0.026924
    95  H    0.036622
    96  H    0.015296
    97  H    0.034510
    98  H    0.029124
    99  H    0.038630
   100  H    0.046959
   101  H    0.046342
   102  H    0.017643
   103  H    0.025571
   104  H   -0.009774
   105  H    0.027929
   106  H    0.034562
   107  H    0.041052
   108  H    0.004775
   109  H    0.019124
   110  H   -0.002006
   111  H    0.002385
   112  H   -0.030620
   113  H   -0.015475
   114  H   -0.001899
   115  H   -0.000454
   116  H    0.009591
   117  H    0.013935
   118  H   -0.010017
   119  H    0.011263
   120  H   -0.010345
   121  H   -0.018094
   122  H   -0.013963
   123  H   -0.007083
   124  H   -0.006831
   125  H    0.012175
   126  H    0.011665
   127  H    0.008196
   128  H    0.005607
   129  H   -0.007348
   130  H   -0.012956
   131  H   -0.008372
   132  H   -0.016066
   133  H   -0.004810
   134  H   -0.010039
   135  H    0.014118
   136  H    0.007141
   137  H    0.008638
   138  H    0.006009
   139  H   -0.002442
   140  H    0.006671
 Sum of Mulliken charges =  -0.00000

 Dipole moment (field-independent basis, Debye):
    X=             -6.2450    Y=              4.3537    Z=              1.9952  Tot=              7.8699
 Quadrupole moment (field-independent basis, Debye-Ang):
   XX=           -400.4835   YY=           -440.1605   ZZ=           -403.5534
   XY=             47.5028   XZ=             12.1563   YZ=              1.0505

 Normal termination of Gaussian 16 at Sat Apr 30 07:26:43 2022.
