 Gaussian 16, Revision A.03,
 Gaussian 16:  ES64L-G16RevA.03 25-Dec-2016

 ---------------------------------
 #p PBE1PBE/Def2SVP td=(nstates=5)
 ---------------------------------

 -----------------------------------------------------
 step_651_chromophore_21 TDDFT with PBE1PBE functional
 -----------------------------------------------------
 Symbolic Z-matrix:
 Charge =  0 Multiplicity = 1

                         Standard orientation:
 ---------------------------------------------------------------------
 Center     Atomic      Atomic             Coordinates (Angstroms)
 Number     Number       Type             X           Y           Z
 ---------------------------------------------------------------------
      1         12           0        4.766274    1.271895    0.273126
      2          6           0        4.565369   -2.412409    0.168204
      3          6           0        1.321730    1.074675   -0.248547
      4          6           0        4.866234    4.511683   -0.364711
      5          6           0        8.243796    0.961155   -0.088573
      6          7           0        3.217075   -0.520315   -0.054987
      7          6           0        3.345284   -1.850589    0.136008
      8          6           0        1.909613   -2.517264    0.309090
      9          6           0        1.051851   -1.414959   -0.245158
     10          6           0        1.959007   -0.199180   -0.154997
     11          6           0        0.631955   -1.610560   -1.712829
     12          6           0        1.616955   -2.964754    1.770139
     13          6           0        0.684498   -4.121536    1.981590
     14          6           0       -0.167200   -4.771412    0.865356
     15          8           0       -0.110480   -5.924088    0.509855
     16          8           0       -1.022183   -3.821367    0.399225
     17          7           0        3.334589    2.602490   -0.169737
     18          6           0        2.018072    2.359057   -0.209844
     19          6           0        1.338247    3.663713   -0.129331
     20          6           0        2.331200    4.683413   -0.092163
     21          6           0        3.594659    3.950790   -0.232138
     22          6           0       -0.145634    3.780078    0.096374
     23          6           0        2.294683    6.193460   -0.047932
     24          8           0        3.230119    6.914882    0.194753
     25          6           0        0.864588    6.801665    0.133684
     26          7           0        6.345048    2.513886   -0.214165
     27          6           0        6.139231    3.860525   -0.377068
     28          6           0        7.443069    4.680907   -0.380944
     29          6           0        8.479244    3.521245   -0.128668
     30          6           0        7.643392    2.225645   -0.109475
     31          6           0        7.631139    5.612405   -1.669761
     32          6           0        9.292942    3.642960    1.165408
     33          6           0       10.721127    3.905853    0.755781
     34          7           0        6.124207   -0.365900    0.186289
     35          6           0        7.516458   -0.301799    0.022647
     36          6           0        8.053957   -1.650000    0.160448
     37          6           0        6.951145   -2.498336    0.232267
     38          6           0        5.759542   -1.632318    0.119706
     39          6           0        9.547165   -1.984073    0.117518
     40          6           0        6.538813   -3.860196    0.415309
     41          8           0        7.190108   -4.853165    0.659126
     42          6           0        4.976542   -3.910868    0.379370
     43          6           0        4.545128   -4.756962   -0.746314
     44          8           0        5.066426   -4.686678   -1.853989
     45          8           0        3.594225   -5.668945   -0.426137
     46          6           0        3.136206   -6.506249   -1.527782
     47          6           0       -2.073476   -4.434247   -0.397549
     48          6           0       -3.241441   -3.526602   -0.442218
     49          6           0       -4.548661   -3.674646   -0.122279
     50          6           0       -5.223184   -4.999321   -0.081790
     51          6           0       -5.386320   -2.395411   -0.022087
     52          6           0       -6.806191   -2.390398   -0.802068
     53          6           0       -7.970859   -2.194046    0.161578
     54          6           0       -8.046129   -0.786726    0.693186
     55          6           0       -8.083961   -0.782952    2.199152
     56          6           0       -9.312594   -0.106960    0.102277
     57          6           0       -9.019654    1.286260   -0.504259
     58          6           0       -9.190103    2.503871    0.378327
     59          6           0      -10.451274    3.415968    0.082686
     60          6           0      -10.077486    4.947013    0.162992
     61          6           0      -11.587709    3.111523    1.124449
     62          6           0      -12.976859    3.016916    0.478543
     63          6           0      -13.506308    1.554366    0.403454
     64          6           0      -13.219836    0.694075   -0.884548
     65          6           0      -14.248998    0.855935   -1.976162
     66          6           0      -13.068715   -0.754417   -0.496176
     67          1           0        0.231396    1.092275   -0.193115
     68          1           0        4.968846    5.593486   -0.468007
     69          1           0        9.335017    0.932715   -0.055362
     70          1           0        2.008844   -3.433505   -0.271885
     71          1           0        0.155029   -1.208610    0.340784
     72          1           0       -0.439971   -1.447647   -1.823897
     73          1           0        0.972138   -2.588308   -2.053295
     74          1           0        1.104031   -0.855136   -2.339879
     75          1           0        1.216436   -2.150379    2.373417
     76          1           0        2.566187   -3.189345    2.257796
     77          1           0        0.019171   -3.689686    2.729699
     78          1           0        1.293449   -4.877729    2.477181
     79          1           0       -0.469459    4.183427    1.055420
     80          1           0       -0.618381    2.808621   -0.047133
     81          1           0       -0.532899    4.459540   -0.663266
     82          1           0        0.253731    6.522542   -0.725327
     83          1           0        0.993956    7.873705    0.276230
     84          1           0        0.501497    6.433292    1.092859
     85          1           0        7.433259    5.341222    0.486510
     86          1           0        9.080813    3.329504   -1.016084
     87          1           0        6.716492    5.443395   -2.238678
     88          1           0        8.518972    5.221493   -2.167470
     89          1           0        7.792932    6.665821   -1.441169
     90          1           0        9.172365    2.804103    1.850216
     91          1           0        8.994652    4.509412    1.754718
     92          1           0       11.406012    3.516351    1.508891
     93          1           0       10.791560    4.980062    0.928107
     94          1           0       11.050352    3.556870   -0.222865
     95          1           0        9.935120   -2.114234    1.128272
     96          1           0        9.957495   -1.153142   -0.454557
     97          1           0        9.718213   -2.909465   -0.432579
     98          1           0        4.652417   -4.382741    1.306073
     99          1           0        2.081982   -6.708762   -1.337134
    100          1           0        3.698705   -7.439135   -1.483753
    101          1           0        3.184459   -5.954683   -2.466732
    102          1           0       -2.461229   -5.338161    0.072238
    103          1           0       -1.688165   -4.528804   -1.412677
    104          1           0       -2.801520   -2.535536   -0.548049
    105          1           0       -6.289959   -4.890887    0.115600
    106          1           0       -4.649535   -5.515625    0.686709
    107          1           0       -5.041560   -5.479714   -1.043510
    108          1           0       -4.709362   -1.624140   -0.389310
    109          1           0       -5.588791   -2.298809    1.044031
    110          1           0       -6.930244   -3.287423   -1.409776
    111          1           0       -6.928939   -1.605577   -1.548945
    112          1           0       -7.912100   -2.874294    1.011139
    113          1           0       -8.956916   -2.516711   -0.173731
    114          1           0       -7.187598   -0.154952    0.461956
    115          1           0       -8.234681    0.258746    2.483993
    116          1           0       -7.133473   -1.068061    2.650922
    117          1           0       -8.915084   -1.433323    2.472011
    118          1           0       -9.936995    0.104856    0.970311
    119          1           0       -9.914951   -0.660545   -0.617937
    120          1           0       -9.445403    1.498560   -1.484375
    121          1           0       -7.939670    1.317718   -0.646410
    122          1           0       -8.308554    3.139012    0.290525
    123          1           0       -9.333801    2.086194    1.375215
    124          1           0      -10.783961    3.260695   -0.944573
    125          1           0       -9.227974    5.111308   -0.500095
    126          1           0       -9.879391    5.149775    1.215860
    127          1           0      -10.951666    5.494625   -0.188311
    128          1           0      -11.591137    3.825816    1.946907
    129          1           0      -11.394040    2.072475    1.391780
    130          1           0      -13.003654    3.355097   -0.556888
    131          1           0      -13.749101    3.575374    1.007112
    132          1           0      -14.589195    1.675892    0.422267
    133          1           0      -13.177666    1.055278    1.315471
    134          1           0      -12.265023    1.092244   -1.227728
    135          1           0      -13.724484    1.421256   -2.747646
    136          1           0      -15.114607    1.389744   -1.586016
    137          1           0      -14.556228   -0.135338   -2.310406
    138          1           0      -12.738362   -1.460150   -1.257481
    139          1           0      -14.102556   -1.024750   -0.279054
    140          1           0      -12.476196   -1.011962    0.381887
 ---------------------------------------------------------------------

 SCF Done:  E(RPBE1PBE) =  -3005.35615800     A.U. after   15 cycles

 Excitation energies and oscillator strengths:

 Excited State   1:      Singlet-A      1.8483 eV  670.81 nm  f=0.3709  <S**2>=0.000
     245 -> 248        0.15844
     246 -> 247        0.69472
     246 <- 247       -0.11143
 This state for optimization and/or second-order correction.
 Total Energy, E(TD-HF/TD-DFT) =  -3005.28823488
 Copying the excited state density for this state as the 1-particle RhoCI density.

 Excited State   2:      Singlet-A      2.3077 eV  537.26 nm  f=0.0989  <S**2>=0.000
     245 -> 247        0.63611
     246 -> 248       -0.28829

 Excited State   3:      Singlet-A      2.9007 eV  427.44 nm  f=0.0002  <S**2>=0.000
     244 -> 247        0.68078
     244 -> 249       -0.10838

 Excited State   4:      Singlet-A      3.1092 eV  398.77 nm  f=0.0028  <S**2>=0.000
     241 -> 247        0.10739
     243 -> 247        0.68013

 Excited State   5:      Singlet-A      3.1553 eV  392.94 nm  f=0.0068  <S**2>=0.000
     241 -> 247        0.64729
     241 -> 248       -0.15027
     241 -> 249        0.14338
     246 -> 248        0.10629

 The electronic state is 1-A.
 Alpha  occ. eigenvalues --  -46.92665 -19.26729 -19.25333 -19.21122 -19.19908
 Alpha  occ. eigenvalues --  -19.18491 -19.17961 -14.41558 -14.40800 -14.39576
 Alpha  occ. eigenvalues --  -14.39221 -10.37164 -10.35193 -10.32701 -10.30849
 Alpha  occ. eigenvalues --  -10.29456 -10.28906 -10.28505 -10.28173 -10.28164
 Alpha  occ. eigenvalues --  -10.28005 -10.27873 -10.27800 -10.27701 -10.26715
 Alpha  occ. eigenvalues --  -10.26611 -10.25866 -10.25648 -10.25593 -10.25434
 Alpha  occ. eigenvalues --  -10.25350 -10.25165 -10.25155 -10.25090 -10.25072
 Alpha  occ. eigenvalues --  -10.24938 -10.24748 -10.24576 -10.24564 -10.24563
 Alpha  occ. eigenvalues --  -10.24486 -10.24138 -10.24089 -10.23918 -10.23789
 Alpha  occ. eigenvalues --  -10.23720 -10.23499 -10.23283 -10.23225 -10.23183
 Alpha  occ. eigenvalues --  -10.23090 -10.23052 -10.22994 -10.22685 -10.22569
 Alpha  occ. eigenvalues --  -10.22554 -10.22492 -10.22386 -10.22285 -10.22234
 Alpha  occ. eigenvalues --  -10.22206 -10.22198 -10.22167 -10.22133 -10.21962
 Alpha  occ. eigenvalues --  -10.21819  -3.14865  -1.87655  -1.87254  -1.87089
 Alpha  occ. eigenvalues --   -1.12904  -1.10898  -1.06307  -1.04403  -1.04053
 Alpha  occ. eigenvalues --   -1.01432  -1.00041  -0.98897  -0.98245  -0.97346
 Alpha  occ. eigenvalues --   -0.85980  -0.85725  -0.84823  -0.84183  -0.83726
 Alpha  occ. eigenvalues --   -0.83476  -0.82554  -0.82102  -0.81623  -0.81428
 Alpha  occ. eigenvalues --   -0.80302  -0.80105  -0.79056  -0.78020  -0.77670
 Alpha  occ. eigenvalues --   -0.77303  -0.76041  -0.75665  -0.75143  -0.74787
 Alpha  occ. eigenvalues --   -0.74296  -0.72537  -0.72122  -0.71462  -0.71347
 Alpha  occ. eigenvalues --   -0.70274  -0.69954  -0.69430  -0.69211  -0.68469
 Alpha  occ. eigenvalues --   -0.67567  -0.66992  -0.65743  -0.64743  -0.62997
 Alpha  occ. eigenvalues --   -0.62777  -0.62427  -0.61908  -0.61641  -0.60410
 Alpha  occ. eigenvalues --   -0.60285  -0.59486  -0.59442  -0.58773  -0.58610
 Alpha  occ. eigenvalues --   -0.58404  -0.57344  -0.56513  -0.56411  -0.55114
 Alpha  occ. eigenvalues --   -0.54641  -0.53815  -0.53518  -0.53079  -0.52328
 Alpha  occ. eigenvalues --   -0.52024  -0.51696  -0.50855  -0.50436  -0.49885
 Alpha  occ. eigenvalues --   -0.49667  -0.49511  -0.49232  -0.49022  -0.48997
 Alpha  occ. eigenvalues --   -0.48638  -0.48254  -0.48112  -0.47783  -0.47566
 Alpha  occ. eigenvalues --   -0.47193  -0.47136  -0.46949  -0.46819  -0.46617
 Alpha  occ. eigenvalues --   -0.46541  -0.46448  -0.45820  -0.45748  -0.45604
 Alpha  occ. eigenvalues --   -0.45063  -0.44819  -0.44678  -0.44576  -0.44373
 Alpha  occ. eigenvalues --   -0.44260  -0.44145  -0.44081  -0.43852  -0.43631
 Alpha  occ. eigenvalues --   -0.43360  -0.43273  -0.43158  -0.42981  -0.42912
 Alpha  occ. eigenvalues --   -0.42758  -0.42583  -0.42239  -0.41986  -0.41783
 Alpha  occ. eigenvalues --   -0.41666  -0.41470  -0.40952  -0.40745  -0.40681
 Alpha  occ. eigenvalues --   -0.40463  -0.40278  -0.40153  -0.39988  -0.39854
 Alpha  occ. eigenvalues --   -0.39665  -0.39409  -0.39353  -0.38980  -0.38754
 Alpha  occ. eigenvalues --   -0.38536  -0.38244  -0.38127  -0.38032  -0.37935
 Alpha  occ. eigenvalues --   -0.37707  -0.37689  -0.37545  -0.37239  -0.37161
 Alpha  occ. eigenvalues --   -0.37029  -0.36855  -0.36439  -0.36233  -0.36153
 Alpha  occ. eigenvalues --   -0.35855  -0.35654  -0.35560  -0.34950  -0.34580
 Alpha  occ. eigenvalues --   -0.34509  -0.34159  -0.34006  -0.33887  -0.33682
 Alpha  occ. eigenvalues --   -0.33351  -0.33195  -0.32786  -0.32707  -0.32621
 Alpha  occ. eigenvalues --   -0.32130  -0.32057  -0.31844  -0.31661  -0.31569
 Alpha  occ. eigenvalues --   -0.31212  -0.30750  -0.29767  -0.29728  -0.29137
 Alpha  occ. eigenvalues --   -0.29103  -0.28700  -0.27874  -0.26918  -0.26052
 Alpha  occ. eigenvalues --   -0.25894  -0.25529  -0.25229  -0.24689  -0.21083
 Alpha  occ. eigenvalues --   -0.18474
 Alpha virt. eigenvalues --   -0.10944  -0.05289  -0.03401  -0.01882  -0.01525
 Alpha virt. eigenvalues --   -0.00679   0.00585   0.01296   0.02074   0.03011
 Alpha virt. eigenvalues --    0.04231   0.04933   0.05071   0.05291   0.05353

 Mulliken charges:
               1
     1  Mg   0.991783
     2  C   -0.086003
     3  C   -0.069885
     4  C   -0.045760
     5  C   -0.056770
     6  N   -0.286914
     7  C   -0.022627
     8  C   -0.081472
     9  C   -0.140924
    10  C    0.054119
    11  C    0.040440
    12  C    0.033546
    13  C    0.027912
    14  C    0.202756
    15  O   -0.238893
    16  O   -0.362091
    17  N   -0.527445
    18  C    0.176520
    19  C   -0.192534
    20  C   -0.064400
    21  C    0.163613
    22  C    0.055799
    23  C    0.058363
    24  O   -0.222873
    25  C   -0.048481
    26  N   -0.418856
    27  C    0.043917
    28  C   -0.115513
    29  C   -0.118457
    30  C    0.064838
    31  C    0.015033
    32  C   -0.002985
    33  C   -0.069973
    34  N   -0.441807
    35  C    0.121877
    36  C   -0.199401
    37  C   -0.057899
    38  C    0.191768
    39  C    0.068943
    40  C    0.132648
    41  O   -0.208615
    42  C   -0.056184
    43  C    0.262086
    44  O   -0.265489
    45  O   -0.356666
    46  C    0.111279
    47  C    0.260273
    48  C   -0.184695
    49  C   -0.231521
    50  C    0.020053
    51  C    0.039927
    52  C   -0.053044
    53  C    0.018414
    54  C   -0.240473
    55  C   -0.009363
    56  C    0.001092
    57  C   -0.047684
    58  C   -0.017646
    59  C   -0.238055
    60  C   -0.018708
    61  C    0.019835
    62  C   -0.033994
    63  C   -0.063446
    64  C   -0.232357
    65  C    0.017225
    66  C   -0.041808
    67  H    0.007297
    68  H    0.029529
    69  H    0.012405
    70  H    0.052223
    71  H    0.035748
    72  H    0.044138
    73  H    0.042869
    74  H    0.048587
    75  H    0.021760
    76  H    0.038605
    77  H    0.052000
    78  H    0.055522
    79  H    0.062954
    80  H    0.032013
    81  H    0.044555
    82  H    0.060300
    83  H    0.051035
    84  H    0.065474
    85  H    0.056187
    86  H    0.051428
    87  H    0.057058
    88  H    0.040488
    89  H    0.052987
    90  H    0.048390
    91  H    0.031392
    92  H    0.031445
    93  H    0.038296
    94  H    0.052603
    95  H    0.064877
    96  H    0.042802
    97  H    0.062761
    98  H    0.065235
    99  H    0.061540
   100  H    0.069186
   101  H    0.067099
   102  H    0.045507
   103  H    0.053116
   104  H    0.022215
   105  H    0.056219
   106  H    0.062081
   107  H    0.068856
   108  H    0.035915
   109  H    0.054700
   110  H    0.030480
   111  H    0.036712
   112  H    0.002827
   113  H    0.016252
   114  H    0.035100
   115  H    0.031226
   116  H    0.038484
   117  H    0.041940
   118  H    0.026529
   119  H    0.043811
   120  H    0.020809
   121  H    0.015993
   122  H    0.018293
   123  H    0.026616
   124  H    0.028714
   125  H    0.040332
   126  H    0.039457
   127  H    0.037644
   128  H    0.036645
   129  H    0.030917
   130  H    0.020901
   131  H    0.024726
   132  H    0.017064
   133  H    0.026155
   134  H    0.034907
   135  H    0.040888
   136  H    0.033551
   137  H    0.036154
   138  H    0.033797
   139  H    0.026970
   140  H    0.034358
 Sum of Mulliken charges =  -0.00000

 Dipole moment (field-independent basis, Debye):
    X=             -5.9039    Y=              4.0386    Z=              2.0640  Tot=              7.4450
 Quadrupole moment (field-independent basis, Debye-Ang):
   XX=           -392.0415   YY=           -437.9165   ZZ=           -401.2922
   XY=             47.3446   XZ=             12.5734   YZ=              1.1769

 Normal termination of Gaussian 16 at Sat Apr 30 07:45:48 2022.
