 Gaussian 16, Revision A.03,
 Gaussian 16:  ES64L-G16RevA.03 25-Dec-2016

 --------------------------------
 #p wB97XD/Def2SVP td=(nstates=5)
 --------------------------------

 ----------------------------------------------------
 step_651_chromophore_21 TDDFT with wB97XD functional
 ----------------------------------------------------
 Symbolic Z-matrix:
 Charge =  0 Multiplicity = 1

                         Standard orientation:
 ---------------------------------------------------------------------
 Center     Atomic      Atomic             Coordinates (Angstroms)
 Number     Number       Type             X           Y           Z
 ---------------------------------------------------------------------
      1         12           0        4.766274    1.271895    0.273126
      2          6           0        4.565369   -2.412409    0.168204
      3          6           0        1.321730    1.074675   -0.248547
      4          6           0        4.866234    4.511683   -0.364711
      5          6           0        8.243796    0.961155   -0.088573
      6          7           0        3.217075   -0.520315   -0.054987
      7          6           0        3.345284   -1.850589    0.136008
      8          6           0        1.909613   -2.517264    0.309090
      9          6           0        1.051851   -1.414959   -0.245158
     10          6           0        1.959007   -0.199180   -0.154997
     11          6           0        0.631955   -1.610560   -1.712829
     12          6           0        1.616955   -2.964754    1.770139
     13          6           0        0.684498   -4.121536    1.981590
     14          6           0       -0.167200   -4.771412    0.865356
     15          8           0       -0.110480   -5.924088    0.509855
     16          8           0       -1.022183   -3.821367    0.399225
     17          7           0        3.334589    2.602490   -0.169737
     18          6           0        2.018072    2.359057   -0.209844
     19          6           0        1.338247    3.663713   -0.129331
     20          6           0        2.331200    4.683413   -0.092163
     21          6           0        3.594659    3.950790   -0.232138
     22          6           0       -0.145634    3.780078    0.096374
     23          6           0        2.294683    6.193460   -0.047932
     24          8           0        3.230119    6.914882    0.194753
     25          6           0        0.864588    6.801665    0.133684
     26          7           0        6.345048    2.513886   -0.214165
     27          6           0        6.139231    3.860525   -0.377068
     28          6           0        7.443069    4.680907   -0.380944
     29          6           0        8.479244    3.521245   -0.128668
     30          6           0        7.643392    2.225645   -0.109475
     31          6           0        7.631139    5.612405   -1.669761
     32          6           0        9.292942    3.642960    1.165408
     33          6           0       10.721127    3.905853    0.755781
     34          7           0        6.124207   -0.365900    0.186289
     35          6           0        7.516458   -0.301799    0.022647
     36          6           0        8.053957   -1.650000    0.160448
     37          6           0        6.951145   -2.498336    0.232267
     38          6           0        5.759542   -1.632318    0.119706
     39          6           0        9.547165   -1.984073    0.117518
     40          6           0        6.538813   -3.860196    0.415309
     41          8           0        7.190108   -4.853165    0.659126
     42          6           0        4.976542   -3.910868    0.379370
     43          6           0        4.545128   -4.756962   -0.746314
     44          8           0        5.066426   -4.686678   -1.853989
     45          8           0        3.594225   -5.668945   -0.426137
     46          6           0        3.136206   -6.506249   -1.527782
     47          6           0       -2.073476   -4.434247   -0.397549
     48          6           0       -3.241441   -3.526602   -0.442218
     49          6           0       -4.548661   -3.674646   -0.122279
     50          6           0       -5.223184   -4.999321   -0.081790
     51          6           0       -5.386320   -2.395411   -0.022087
     52          6           0       -6.806191   -2.390398   -0.802068
     53          6           0       -7.970859   -2.194046    0.161578
     54          6           0       -8.046129   -0.786726    0.693186
     55          6           0       -8.083961   -0.782952    2.199152
     56          6           0       -9.312594   -0.106960    0.102277
     57          6           0       -9.019654    1.286260   -0.504259
     58          6           0       -9.190103    2.503871    0.378327
     59          6           0      -10.451274    3.415968    0.082686
     60          6           0      -10.077486    4.947013    0.162992
     61          6           0      -11.587709    3.111523    1.124449
     62          6           0      -12.976859    3.016916    0.478543
     63          6           0      -13.506308    1.554366    0.403454
     64          6           0      -13.219836    0.694075   -0.884548
     65          6           0      -14.248998    0.855935   -1.976162
     66          6           0      -13.068715   -0.754417   -0.496176
     67          1           0        0.231396    1.092275   -0.193115
     68          1           0        4.968846    5.593486   -0.468007
     69          1           0        9.335017    0.932715   -0.055362
     70          1           0        2.008844   -3.433505   -0.271885
     71          1           0        0.155029   -1.208610    0.340784
     72          1           0       -0.439971   -1.447647   -1.823897
     73          1           0        0.972138   -2.588308   -2.053295
     74          1           0        1.104031   -0.855136   -2.339879
     75          1           0        1.216436   -2.150379    2.373417
     76          1           0        2.566187   -3.189345    2.257796
     77          1           0        0.019171   -3.689686    2.729699
     78          1           0        1.293449   -4.877729    2.477181
     79          1           0       -0.469459    4.183427    1.055420
     80          1           0       -0.618381    2.808621   -0.047133
     81          1           0       -0.532899    4.459540   -0.663266
     82          1           0        0.253731    6.522542   -0.725327
     83          1           0        0.993956    7.873705    0.276230
     84          1           0        0.501497    6.433292    1.092859
     85          1           0        7.433259    5.341222    0.486510
     86          1           0        9.080813    3.329504   -1.016084
     87          1           0        6.716492    5.443395   -2.238678
     88          1           0        8.518972    5.221493   -2.167470
     89          1           0        7.792932    6.665821   -1.441169
     90          1           0        9.172365    2.804103    1.850216
     91          1           0        8.994652    4.509412    1.754718
     92          1           0       11.406012    3.516351    1.508891
     93          1           0       10.791560    4.980062    0.928107
     94          1           0       11.050352    3.556870   -0.222865
     95          1           0        9.935120   -2.114234    1.128272
     96          1           0        9.957495   -1.153142   -0.454557
     97          1           0        9.718213   -2.909465   -0.432579
     98          1           0        4.652417   -4.382741    1.306073
     99          1           0        2.081982   -6.708762   -1.337134
    100          1           0        3.698705   -7.439135   -1.483753
    101          1           0        3.184459   -5.954683   -2.466732
    102          1           0       -2.461229   -5.338161    0.072238
    103          1           0       -1.688165   -4.528804   -1.412677
    104          1           0       -2.801520   -2.535536   -0.548049
    105          1           0       -6.289959   -4.890887    0.115600
    106          1           0       -4.649535   -5.515625    0.686709
    107          1           0       -5.041560   -5.479714   -1.043510
    108          1           0       -4.709362   -1.624140   -0.389310
    109          1           0       -5.588791   -2.298809    1.044031
    110          1           0       -6.930244   -3.287423   -1.409776
    111          1           0       -6.928939   -1.605577   -1.548945
    112          1           0       -7.912100   -2.874294    1.011139
    113          1           0       -8.956916   -2.516711   -0.173731
    114          1           0       -7.187598   -0.154952    0.461956
    115          1           0       -8.234681    0.258746    2.483993
    116          1           0       -7.133473   -1.068061    2.650922
    117          1           0       -8.915084   -1.433323    2.472011
    118          1           0       -9.936995    0.104856    0.970311
    119          1           0       -9.914951   -0.660545   -0.617937
    120          1           0       -9.445403    1.498560   -1.484375
    121          1           0       -7.939670    1.317718   -0.646410
    122          1           0       -8.308554    3.139012    0.290525
    123          1           0       -9.333801    2.086194    1.375215
    124          1           0      -10.783961    3.260695   -0.944573
    125          1           0       -9.227974    5.111308   -0.500095
    126          1           0       -9.879391    5.149775    1.215860
    127          1           0      -10.951666    5.494625   -0.188311
    128          1           0      -11.591137    3.825816    1.946907
    129          1           0      -11.394040    2.072475    1.391780
    130          1           0      -13.003654    3.355097   -0.556888
    131          1           0      -13.749101    3.575374    1.007112
    132          1           0      -14.589195    1.675892    0.422267
    133          1           0      -13.177666    1.055278    1.315471
    134          1           0      -12.265023    1.092244   -1.227728
    135          1           0      -13.724484    1.421256   -2.747646
    136          1           0      -15.114607    1.389744   -1.586016
    137          1           0      -14.556228   -0.135338   -2.310406
    138          1           0      -12.738362   -1.460150   -1.257481
    139          1           0      -14.102556   -1.024750   -0.279054
    140          1           0      -12.476196   -1.011962    0.381887
 ---------------------------------------------------------------------

 SCF Done:  E(RwB97XD) =  -3007.86896037     A.U. after   20 cycles

 Excitation energies and oscillator strengths:

 Excited State   1:      Singlet-A      1.6417 eV  755.23 nm  f=0.3818  <S**2>=0.000
     245 -> 248        0.17178
     246 -> 247        0.68549
     245 <- 248        0.11054
 This state for optimization and/or second-order correction.
 Total Energy, E(TD-HF/TD-DFT) =  -3007.80863012
 Copying the excited state density for this state as the 1-particle RhoCI density.

 Excited State   2:      Singlet-A      2.2499 eV  551.08 nm  f=0.0984  <S**2>=0.000
     245 -> 247        0.62374
     246 -> 248       -0.31331

 Excited State   3:      Singlet-A      3.4642 eV  357.90 nm  f=0.0715  <S**2>=0.000
     243 -> 251        0.10513
     244 -> 247        0.60169
     244 -> 249       -0.12155
     246 -> 248        0.26497

 Excited State   4:      Singlet-A      3.4852 eV  355.75 nm  f=0.5099  <S**2>=0.000
     241 -> 247        0.31162
     244 -> 247       -0.23979
     245 -> 247        0.25742
     246 -> 248        0.51144

 Excited State   5:      Singlet-A      3.6231 eV  342.21 nm  f=0.0074  <S**2>=0.000
     239 -> 247        0.10857
     240 -> 247        0.49466
     240 -> 248       -0.22898
     240 -> 249        0.29881
     240 -> 251        0.12810
     241 -> 247       -0.18009

 The electronic state is 1-A.
 Alpha  occ. eigenvalues --  -46.95621 -19.31285 -19.29835 -19.25752 -19.24949
 Alpha  occ. eigenvalues --  -19.23102 -19.22533 -14.46699 -14.45837 -14.44640
 Alpha  occ. eigenvalues --  -14.44002 -10.43917 -10.41927 -10.39752 -10.37495
 Alpha  occ. eigenvalues --  -10.35960 -10.35354 -10.35174 -10.34633 -10.34606
 Alpha  occ. eigenvalues --  -10.34308 -10.34209 -10.33952 -10.33598 -10.33411
 Alpha  occ. eigenvalues --  -10.32759 -10.32110 -10.31949 -10.31883 -10.31627
 Alpha  occ. eigenvalues --  -10.31618 -10.31581 -10.31556 -10.31432 -10.31315
 Alpha  occ. eigenvalues --  -10.31200 -10.31199 -10.31069 -10.30960 -10.30948
 Alpha  occ. eigenvalues --  -10.30851 -10.30669 -10.30485 -10.30384 -10.30195
 Alpha  occ. eigenvalues --  -10.30056 -10.29948 -10.29790 -10.29527 -10.29492
 Alpha  occ. eigenvalues --  -10.29462 -10.29378 -10.29356 -10.29062 -10.28935
 Alpha  occ. eigenvalues --  -10.28904 -10.28871 -10.28847 -10.28667 -10.28630
 Alpha  occ. eigenvalues --  -10.28616 -10.28569 -10.28516 -10.28404 -10.28285
 Alpha  occ. eigenvalues --  -10.28182  -3.21690  -1.95229  -1.94827  -1.94656
 Alpha  occ. eigenvalues --   -1.20254  -1.18212  -1.13999  -1.11709  -1.11308
 Alpha  occ. eigenvalues --   -1.08717  -1.07398  -1.06345  -1.05705  -1.04483
 Alpha  occ. eigenvalues --   -0.93458  -0.93404  -0.92482  -0.91804  -0.91402
 Alpha  occ. eigenvalues --   -0.91021  -0.90242  -0.89779  -0.89336  -0.89201
 Alpha  occ. eigenvalues --   -0.87843  -0.87639  -0.86729  -0.85655  -0.85202
 Alpha  occ. eigenvalues --   -0.84921  -0.83708  -0.83429  -0.82769  -0.82471
 Alpha  occ. eigenvalues --   -0.82012  -0.80305  -0.79756  -0.79082  -0.78991
 Alpha  occ. eigenvalues --   -0.77800  -0.77667  -0.77029  -0.76899  -0.76160
 Alpha  occ. eigenvalues --   -0.75153  -0.74464  -0.73297  -0.72359  -0.70614
 Alpha  occ. eigenvalues --   -0.70352  -0.70032  -0.69431  -0.69294  -0.67913
 Alpha  occ. eigenvalues --   -0.67752  -0.67136  -0.66832  -0.66276  -0.66161
 Alpha  occ. eigenvalues --   -0.65928  -0.65070  -0.64163  -0.63747  -0.62621
 Alpha  occ. eigenvalues --   -0.62235  -0.61139  -0.60963  -0.60449  -0.59720
 Alpha  occ. eigenvalues --   -0.59539  -0.59042  -0.58265  -0.57865  -0.57289
 Alpha  occ. eigenvalues --   -0.57091  -0.56900  -0.56727  -0.56441  -0.56331
 Alpha  occ. eigenvalues --   -0.56052  -0.55587  -0.55441  -0.55192  -0.55006
 Alpha  occ. eigenvalues --   -0.54882  -0.54557  -0.54271  -0.54164  -0.54002
 Alpha  occ. eigenvalues --   -0.53879  -0.53771  -0.53157  -0.52987  -0.52940
 Alpha  occ. eigenvalues --   -0.52437  -0.52191  -0.52052  -0.51976  -0.51768
 Alpha  occ. eigenvalues --   -0.51667  -0.51470  -0.51428  -0.51151  -0.50982
 Alpha  occ. eigenvalues --   -0.50700  -0.50573  -0.50428  -0.50215  -0.50114
 Alpha  occ. eigenvalues --   -0.49983  -0.49866  -0.49688  -0.49198  -0.49031
 Alpha  occ. eigenvalues --   -0.48938  -0.48654  -0.48088  -0.47993  -0.47848
 Alpha  occ. eigenvalues --   -0.47571  -0.47552  -0.47358  -0.47131  -0.47038
 Alpha  occ. eigenvalues --   -0.46798  -0.46582  -0.46464  -0.46219  -0.46033
 Alpha  occ. eigenvalues --   -0.45785  -0.45425  -0.45326  -0.45198  -0.45178
 Alpha  occ. eigenvalues --   -0.44821  -0.44766  -0.44578  -0.44293  -0.44219
 Alpha  occ. eigenvalues --   -0.44066  -0.43886  -0.43585  -0.43240  -0.43195
 Alpha  occ. eigenvalues --   -0.42962  -0.42778  -0.42528  -0.42057  -0.41620
 Alpha  occ. eigenvalues --   -0.41523  -0.41114  -0.41041  -0.40930  -0.40716
 Alpha  occ. eigenvalues --   -0.40403  -0.40226  -0.39852  -0.39770  -0.39499
 Alpha  occ. eigenvalues --   -0.39157  -0.39012  -0.38866  -0.38690  -0.38535
 Alpha  occ. eigenvalues --   -0.38054  -0.37763  -0.36793  -0.36696  -0.36033
 Alpha  occ. eigenvalues --   -0.35860  -0.35511  -0.34743  -0.33593  -0.33201
 Alpha  occ. eigenvalues --   -0.32816  -0.32262  -0.31820  -0.31333  -0.26096
 Alpha  occ. eigenvalues --   -0.22601
 Alpha virt. eigenvalues --   -0.06808   0.00220   0.02789   0.04137   0.04958
 Alpha virt. eigenvalues --    0.06068   0.07399   0.08205   0.08866   0.09709
 Alpha virt. eigenvalues --    0.10754   0.11365   0.11716   0.11907   0.12107

 Mulliken charges:
               1
     1  Mg   0.984540
     2  C   -0.085748
     3  C   -0.097412
     4  C   -0.065856
     5  C   -0.073656
     6  N   -0.249577
     7  C   -0.059462
     8  C   -0.042960
     9  C   -0.116903
    10  C    0.046474
    11  C    0.047787
    12  C    0.040604
    13  C    0.041778
    14  C    0.193772
    15  O   -0.236089
    16  O   -0.360937
    17  N   -0.493722
    18  C    0.169598
    19  C   -0.179114
    20  C   -0.062175
    21  C    0.160072
    22  C    0.068767
    23  C    0.054277
    24  O   -0.216248
    25  C   -0.032976
    26  N   -0.382053
    27  C    0.036111
    28  C   -0.097505
    29  C   -0.087986
    30  C    0.049595
    31  C    0.028305
    32  C    0.008393
    33  C   -0.053579
    34  N   -0.404958
    35  C    0.111565
    36  C   -0.200844
    37  C   -0.051645
    38  C    0.170207
    39  C    0.081863
    40  C    0.112942
    41  O   -0.201241
    42  C   -0.016923
    43  C    0.238736
    44  O   -0.261667
    45  O   -0.354672
    46  C    0.125819
    47  C    0.277024
    48  C   -0.189245
    49  C   -0.219314
    50  C    0.032916
    51  C    0.059622
    52  C   -0.034890
    53  C    0.034385
    54  C   -0.214247
    55  C    0.009975
    56  C    0.026328
    57  C   -0.031606
    58  C    0.006009
    59  C   -0.214361
    60  C   -0.003150
    61  C    0.045588
    62  C   -0.019934
    63  C   -0.046539
    64  C   -0.192538
    65  C    0.026604
    66  C   -0.026694
    67  H    0.000284
    68  H    0.025613
    69  H    0.006959
    70  H    0.028991
    71  H    0.025916
    72  H    0.038699
    73  H    0.038007
    74  H    0.042393
    75  H    0.014620
    76  H    0.029460
    77  H    0.045920
    78  H    0.051369
    79  H    0.059744
    80  H    0.028895
    81  H    0.038429
    82  H    0.054687
    83  H    0.050359
    84  H    0.059474
    85  H    0.045567
    86  H    0.037498
    87  H    0.049466
    88  H    0.034750
    89  H    0.048724
    90  H    0.040517
    91  H    0.022984
    92  H    0.025908
    93  H    0.031157
    94  H    0.046739
    95  H    0.059801
    96  H    0.034835
    97  H    0.058152
    98  H    0.059983
    99  H    0.058894
   100  H    0.065453
   101  H    0.062893
   102  H    0.037265
   103  H    0.049290
   104  H    0.013538
   105  H    0.049689
   106  H    0.056145
   107  H    0.063866
   108  H    0.029428
   109  H    0.041840
   110  H    0.022826
   111  H    0.027420
   112  H   -0.008642
   113  H    0.009219
   114  H    0.020347
   115  H    0.022310
   116  H    0.032685
   117  H    0.034746
   118  H    0.005829
   119  H    0.033814
   120  H    0.014060
   121  H    0.005266
   122  H    0.010964
   123  H    0.009408
   124  H    0.015004
   125  H    0.034121
   126  H    0.032000
   127  H    0.031087
   128  H    0.030667
   129  H    0.008886
   130  H    0.009093
   131  H    0.018891
   132  H    0.006811
   133  H    0.016983
   134  H    0.012249
   135  H    0.036334
   136  H    0.027614
   137  H    0.030639
   138  H    0.028710
   139  H    0.018224
   140  H    0.027001
 Sum of Mulliken charges =  -0.00000

 Dipole moment (field-independent basis, Debye):
    X=             -6.3975    Y=              4.5549    Z=              2.0651  Tot=              8.1203
 Quadrupole moment (field-independent basis, Debye-Ang):
   XX=           -396.2163   YY=           -435.7426   ZZ=           -400.9325
   XY=             48.2959   XZ=             12.7134   YZ=              1.1937

 Normal termination of Gaussian 16 at Sat Apr 30 08:19:44 2022.
