 Gaussian 16, Revision A.03,
 Gaussian 16:  ES64L-G16RevA.03 25-Dec-2016

 --------------------
 #p ZINDO=(nstates=5)
 --------------------

 -----------------------------
 step_651_chromophore_21 ZINDO
 -----------------------------
 Symbolic Z-matrix:
 Charge =  0 Multiplicity = 1

                         Standard orientation:
 ---------------------------------------------------------------------
 Center     Atomic      Atomic             Coordinates (Angstroms)
 Number     Number       Type             X           Y           Z
 ---------------------------------------------------------------------
      1         12           0        4.766274    1.271895    0.273126
      2          6           0        4.565369   -2.412409    0.168204
      3          6           0        1.321730    1.074675   -0.248547
      4          6           0        4.866234    4.511683   -0.364711
      5          6           0        8.243796    0.961155   -0.088573
      6          7           0        3.217075   -0.520315   -0.054987
      7          6           0        3.345284   -1.850589    0.136008
      8          6           0        1.909613   -2.517264    0.309090
      9          6           0        1.051851   -1.414959   -0.245158
     10          6           0        1.959007   -0.199180   -0.154997
     11          6           0        0.631955   -1.610560   -1.712829
     12          6           0        1.616955   -2.964754    1.770139
     13          6           0        0.684498   -4.121536    1.981590
     14          6           0       -0.167200   -4.771412    0.865356
     15          8           0       -0.110480   -5.924088    0.509855
     16          8           0       -1.022183   -3.821367    0.399225
     17          7           0        3.334589    2.602490   -0.169737
     18          6           0        2.018072    2.359057   -0.209844
     19          6           0        1.338247    3.663713   -0.129331
     20          6           0        2.331200    4.683413   -0.092163
     21          6           0        3.594659    3.950790   -0.232138
     22          6           0       -0.145634    3.780078    0.096374
     23          6           0        2.294683    6.193460   -0.047932
     24          8           0        3.230119    6.914882    0.194753
     25          6           0        0.864588    6.801665    0.133684
     26          7           0        6.345048    2.513886   -0.214165
     27          6           0        6.139231    3.860525   -0.377068
     28          6           0        7.443069    4.680907   -0.380944
     29          6           0        8.479244    3.521245   -0.128668
     30          6           0        7.643392    2.225645   -0.109475
     31          6           0        7.631139    5.612405   -1.669761
     32          6           0        9.292942    3.642960    1.165408
     33          6           0       10.721127    3.905853    0.755781
     34          7           0        6.124207   -0.365900    0.186289
     35          6           0        7.516458   -0.301799    0.022647
     36          6           0        8.053957   -1.650000    0.160448
     37          6           0        6.951145   -2.498336    0.232267
     38          6           0        5.759542   -1.632318    0.119706
     39          6           0        9.547165   -1.984073    0.117518
     40          6           0        6.538813   -3.860196    0.415309
     41          8           0        7.190108   -4.853165    0.659126
     42          6           0        4.976542   -3.910868    0.379370
     43          6           0        4.545128   -4.756962   -0.746314
     44          8           0        5.066426   -4.686678   -1.853989
     45          8           0        3.594225   -5.668945   -0.426137
     46          6           0        3.136206   -6.506249   -1.527782
     47          6           0       -2.073476   -4.434247   -0.397549
     48          6           0       -3.241441   -3.526602   -0.442218
     49          6           0       -4.548661   -3.674646   -0.122279
     50          6           0       -5.223184   -4.999321   -0.081790
     51          6           0       -5.386320   -2.395411   -0.022087
     52          6           0       -6.806191   -2.390398   -0.802068
     53          6           0       -7.970859   -2.194046    0.161578
     54          6           0       -8.046129   -0.786726    0.693186
     55          6           0       -8.083961   -0.782952    2.199152
     56          6           0       -9.312594   -0.106960    0.102277
     57          6           0       -9.019654    1.286260   -0.504259
     58          6           0       -9.190103    2.503871    0.378327
     59          6           0      -10.451274    3.415968    0.082686
     60          6           0      -10.077486    4.947013    0.162992
     61          6           0      -11.587709    3.111523    1.124449
     62          6           0      -12.976859    3.016916    0.478543
     63          6           0      -13.506308    1.554366    0.403454
     64          6           0      -13.219836    0.694075   -0.884548
     65          6           0      -14.248998    0.855935   -1.976162
     66          6           0      -13.068715   -0.754417   -0.496176
     67          1           0        0.231396    1.092275   -0.193115
     68          1           0        4.968846    5.593486   -0.468007
     69          1           0        9.335017    0.932715   -0.055362
     70          1           0        2.008844   -3.433505   -0.271885
     71          1           0        0.155029   -1.208610    0.340784
     72          1           0       -0.439971   -1.447647   -1.823897
     73          1           0        0.972138   -2.588308   -2.053295
     74          1           0        1.104031   -0.855136   -2.339879
     75          1           0        1.216436   -2.150379    2.373417
     76          1           0        2.566187   -3.189345    2.257796
     77          1           0        0.019171   -3.689686    2.729699
     78          1           0        1.293449   -4.877729    2.477181
     79          1           0       -0.469459    4.183427    1.055420
     80          1           0       -0.618381    2.808621   -0.047133
     81          1           0       -0.532899    4.459540   -0.663266
     82          1           0        0.253731    6.522542   -0.725327
     83          1           0        0.993956    7.873705    0.276230
     84          1           0        0.501497    6.433292    1.092859
     85          1           0        7.433259    5.341222    0.486510
     86          1           0        9.080813    3.329504   -1.016084
     87          1           0        6.716492    5.443395   -2.238678
     88          1           0        8.518972    5.221493   -2.167470
     89          1           0        7.792932    6.665821   -1.441169
     90          1           0        9.172365    2.804103    1.850216
     91          1           0        8.994652    4.509412    1.754718
     92          1           0       11.406012    3.516351    1.508891
     93          1           0       10.791560    4.980062    0.928107
     94          1           0       11.050352    3.556870   -0.222865
     95          1           0        9.935120   -2.114234    1.128272
     96          1           0        9.957495   -1.153142   -0.454557
     97          1           0        9.718213   -2.909465   -0.432579
     98          1           0        4.652417   -4.382741    1.306073
     99          1           0        2.081982   -6.708762   -1.337134
    100          1           0        3.698705   -7.439135   -1.483753
    101          1           0        3.184459   -5.954683   -2.466732
    102          1           0       -2.461229   -5.338161    0.072238
    103          1           0       -1.688165   -4.528804   -1.412677
    104          1           0       -2.801520   -2.535536   -0.548049
    105          1           0       -6.289959   -4.890887    0.115600
    106          1           0       -4.649535   -5.515625    0.686709
    107          1           0       -5.041560   -5.479714   -1.043510
    108          1           0       -4.709362   -1.624140   -0.389310
    109          1           0       -5.588791   -2.298809    1.044031
    110          1           0       -6.930244   -3.287423   -1.409776
    111          1           0       -6.928939   -1.605577   -1.548945
    112          1           0       -7.912100   -2.874294    1.011139
    113          1           0       -8.956916   -2.516711   -0.173731
    114          1           0       -7.187598   -0.154952    0.461956
    115          1           0       -8.234681    0.258746    2.483993
    116          1           0       -7.133473   -1.068061    2.650922
    117          1           0       -8.915084   -1.433323    2.472011
    118          1           0       -9.936995    0.104856    0.970311
    119          1           0       -9.914951   -0.660545   -0.617937
    120          1           0       -9.445403    1.498560   -1.484375
    121          1           0       -7.939670    1.317718   -0.646410
    122          1           0       -8.308554    3.139012    0.290525
    123          1           0       -9.333801    2.086194    1.375215
    124          1           0      -10.783961    3.260695   -0.944573
    125          1           0       -9.227974    5.111308   -0.500095
    126          1           0       -9.879391    5.149775    1.215860
    127          1           0      -10.951666    5.494625   -0.188311
    128          1           0      -11.591137    3.825816    1.946907
    129          1           0      -11.394040    2.072475    1.391780
    130          1           0      -13.003654    3.355097   -0.556888
    131          1           0      -13.749101    3.575374    1.007112
    132          1           0      -14.589195    1.675892    0.422267
    133          1           0      -13.177666    1.055278    1.315471
    134          1           0      -12.265023    1.092244   -1.227728
    135          1           0      -13.724484    1.421256   -2.747646
    136          1           0      -15.114607    1.389744   -1.586016
    137          1           0      -14.556228   -0.135338   -2.310406
    138          1           0      -12.738362   -1.460150   -1.257481
    139          1           0      -14.102556   -1.024750   -0.279054
    140          1           0      -12.476196   -1.011962    0.381887
 ---------------------------------------------------------------------

 SCF Done:  E(RZINDO/S) =  -474.578813687     A.U. after   19 cycles

 Excitation energies and oscillator strengths:

 Excited State   1:      Singlet-A      1.2441 eV  996.57 nm  f=0.5956  <S**2>=0.000
     175 ->178         0.17750
     176 ->177         0.66535
 This state for optimization and/or second-order correction.
 Total Energy, E(CIS/TDA) =  -474.533093385
 Copying the excited state density for this state as the 1-particle RhoCI density.

 Excited State   2:      Singlet-A      1.9612 eV  632.18 nm  f=0.0232  <S**2>=0.000
     175 ->177         0.51984
     176 ->178        -0.44765

 Excited State   3:      Singlet-A      2.8387 eV  436.76 nm  f=0.0074  <S**2>=0.000
     176 ->179         0.20635
     176 ->180         0.66537

 Excited State   4:      Singlet-A      2.8685 eV  432.23 nm  f=0.0382  <S**2>=0.000
     167 ->179        -0.10128
     168 ->177         0.28294
     168 ->178        -0.23105
     168 ->179        -0.38646
     168 ->182         0.21887
     168 ->186        -0.19650
     176 ->178         0.11652
     176 ->180        -0.11628

 Excited State   5:      Singlet-A      2.9718 eV  417.21 nm  f=0.5977  <S**2>=0.000
     168 ->179         0.10908
     175 ->177         0.30941
     176 ->178         0.44049
     176 ->179         0.34493
     176 ->180        -0.11259

 The electronic state is 1-A.
 Alpha  occ. eigenvalues --   -1.84426  -1.81821  -1.80832  -1.76083  -1.73610
 Alpha  occ. eigenvalues --   -1.71500  -1.68423  -1.62817  -1.60247  -1.58810
 Alpha  occ. eigenvalues --   -1.55717  -1.52742  -1.49150  -1.48156  -1.47153
 Alpha  occ. eigenvalues --   -1.46745  -1.43093  -1.40250  -1.40229  -1.38813
 Alpha  occ. eigenvalues --   -1.36411  -1.33438  -1.32609  -1.32466  -1.28473
 Alpha  occ. eigenvalues --   -1.27926  -1.24289  -1.21902  -1.20807  -1.18529
 Alpha  occ. eigenvalues --   -1.17969  -1.17521  -1.15718  -1.14954  -1.12549
 Alpha  occ. eigenvalues --   -1.12002  -1.11060  -1.10717  -1.04399  -1.03411
 Alpha  occ. eigenvalues --   -1.02916  -1.00622  -0.99250  -0.98262  -0.97285
 Alpha  occ. eigenvalues --   -0.95904  -0.95168  -0.92981  -0.92498  -0.92361
 Alpha  occ. eigenvalues --   -0.90980  -0.90411  -0.89434  -0.88635  -0.86037
 Alpha  occ. eigenvalues --   -0.85831  -0.84710  -0.83357  -0.82595  -0.80643
 Alpha  occ. eigenvalues --   -0.79394  -0.78454  -0.77897  -0.76930  -0.76714
 Alpha  occ. eigenvalues --   -0.76299  -0.75532  -0.74195  -0.73759  -0.73106
 Alpha  occ. eigenvalues --   -0.72883  -0.72271  -0.72008  -0.71582  -0.70842
 Alpha  occ. eigenvalues --   -0.70718  -0.69549  -0.68545  -0.68342  -0.67491
 Alpha  occ. eigenvalues --   -0.67223  -0.66997  -0.66562  -0.66515  -0.65903
 Alpha  occ. eigenvalues --   -0.65668  -0.65376  -0.64931  -0.64742  -0.64048
 Alpha  occ. eigenvalues --   -0.63327  -0.63120  -0.63042  -0.62323  -0.62081
 Alpha  occ. eigenvalues --   -0.61764  -0.61531  -0.61340  -0.61093  -0.60457
 Alpha  occ. eigenvalues --   -0.60144  -0.59912  -0.59084  -0.58801  -0.58284
 Alpha  occ. eigenvalues --   -0.57889  -0.57413  -0.56952  -0.56590  -0.56201
 Alpha  occ. eigenvalues --   -0.55670  -0.55575  -0.55150  -0.54980  -0.54940
 Alpha  occ. eigenvalues --   -0.54261  -0.54133  -0.53953  -0.53772  -0.53555
 Alpha  occ. eigenvalues --   -0.53127  -0.52616  -0.52438  -0.51875  -0.51561
 Alpha  occ. eigenvalues --   -0.51459  -0.51217  -0.50788  -0.50409  -0.50271
 Alpha  occ. eigenvalues --   -0.49829  -0.49409  -0.49312  -0.49191  -0.48646
 Alpha  occ. eigenvalues --   -0.48550  -0.48390  -0.48311  -0.48030  -0.47430
 Alpha  occ. eigenvalues --   -0.47307  -0.47155  -0.47090  -0.46775  -0.46755
 Alpha  occ. eigenvalues --   -0.46187  -0.45946  -0.45724  -0.45393  -0.45127
 Alpha  occ. eigenvalues --   -0.45020  -0.44889  -0.44710  -0.44331  -0.44266
 Alpha  occ. eigenvalues --   -0.43996  -0.43146  -0.42960  -0.42173  -0.41690
 Alpha  occ. eigenvalues --   -0.41309  -0.40790  -0.40501  -0.39432  -0.38611
 Alpha  occ. eigenvalues --   -0.37190  -0.36855  -0.35762  -0.34427  -0.33738
 Alpha  occ. eigenvalues --   -0.33371  -0.32599  -0.32312  -0.31766  -0.26693
 Alpha  occ. eigenvalues --   -0.21366
 Alpha virt. eigenvalues --   -0.08185  -0.01927  -0.00399   0.00713   0.01637
 Alpha virt. eigenvalues --    0.01859   0.03445   0.03575   0.04196   0.04581
 Alpha virt. eigenvalues --    0.06462   0.07238   0.07885   0.08111   0.08398

 Mulliken charges:
               1
     1  Mg   0.438017
     2  C   -0.034003
     3  C   -0.132059
     4  C   -0.062778
     5  C   -0.067970
     6  N   -0.293265
     7  C    0.105315
     8  C    0.004715
     9  C    0.012985
    10  C    0.175615
    11  C   -0.047266
    12  C   -0.015003
    13  C   -0.000231
    14  C    0.474724
    15  O   -0.503055
    16  O   -0.266895
    17  N   -0.310648
    18  C    0.130239
    19  C    0.010601
    20  C   -0.045343
    21  C    0.129246
    22  C   -0.044621
    23  C    0.322275
    24  O   -0.497879
    25  C   -0.039328
    26  N   -0.252020
    27  C    0.131193
    28  C   -0.005736
    29  C    0.000008
    30  C    0.104639
    31  C   -0.055009
    32  C   -0.021435
    33  C   -0.060771
    34  N   -0.301691
    35  C    0.051468
    36  C    0.029287
    37  C   -0.067464
    38  C    0.118120
    39  C   -0.042799
    40  C    0.340383
    41  O   -0.528656
    42  C    0.050061
    43  C    0.490813
    44  O   -0.532291
    45  O   -0.268565
    46  C    0.075753
    47  C    0.106582
    48  C   -0.106378
    49  C   -0.004872
    50  C   -0.041452
    51  C   -0.025926
    52  C   -0.032721
    53  C   -0.029059
    54  C   -0.005196
    55  C   -0.055080
    56  C   -0.036294
    57  C   -0.044521
    58  C   -0.039241
    59  C   -0.028153
    60  C   -0.063327
    61  C   -0.037576
    62  C   -0.040172
    63  C   -0.044361
    64  C   -0.002057
    65  C   -0.053434
    66  C   -0.055529
    67  H    0.034872
    68  H    0.048751
    69  H    0.033976
    70  H    0.035886
    71  H    0.024744
    72  H    0.022029
    73  H    0.029455
    74  H    0.023498
    75  H    0.018075
    76  H    0.021500
    77  H    0.035330
    78  H    0.033547
    79  H    0.035404
    80  H    0.024368
    81  H    0.024398
    82  H    0.037442
    83  H    0.035870
    84  H    0.040122
    85  H    0.034494
    86  H    0.034620
    87  H    0.031379
    88  H    0.022620
    89  H    0.031027
    90  H    0.026784
    91  H    0.017543
    92  H    0.008377
    93  H    0.018409
    94  H    0.031954
    95  H    0.039091
    96  H    0.025052
    97  H    0.034294
    98  H    0.052277
    99  H    0.030647
   100  H    0.048926
   101  H    0.051616
   102  H    0.051590
   103  H    0.052503
   104  H    0.012927
   105  H    0.029624
   106  H    0.033716
   107  H    0.032952
   108  H    0.027937
   109  H    0.034587
   110  H    0.016676
   111  H    0.019544
   112  H    0.005947
   113  H    0.017303
   114  H    0.022433
   115  H    0.011334
   116  H    0.015915
   117  H    0.024711
   118  H    0.015915
   119  H    0.026927
   120  H    0.020786
   121  H    0.005681
   122  H    0.018198
   123  H    0.022047
   124  H    0.024255
   125  H    0.019907
   126  H    0.024249
   127  H    0.017941
   128  H    0.031296
   129  H    0.023471
   130  H    0.017727
   131  H    0.014901
   132  H    0.008771
   133  H    0.019232
   134  H    0.013068
   135  H    0.020886
   136  H    0.024596
   137  H    0.022791
   138  H    0.013820
   139  H    0.010901
   140  H    0.014652
 Sum of Mulliken charges =  -0.00000

 Dipole moment (field-independent basis, Debye):
    X=             -9.2672    Y=              6.6290    Z=              3.3077  Tot=             11.8645
 N-N= 4.380479286758D+03 E-N= 0.000000000000D+00  KE=-9.435322560351D+03
 Leave Link  601 at Sat Apr 30 08:34:20 2022, MaxMem=  6710886400 cpu:               1.8 elap:               0.1
 (Enter /sw/apps/gaussian-16.0/g16/l9999.exe)
 1\1\GINC-BP1-COMPUTE161\SP\RZINDO CIS\STO-3G\C55H74Mg1N4O6\OF15641\30-
 Apr-2022\0\\#p ZINDO=(nstates=5)\\step_651_chromophore_21 ZINDO\\0,1\M
 g,0,15.971,52.358,25.297\C,0,17.744,50.602,28.017\C,0,13.655,53.07,27.
 808\C,0,13.939,53.341,22.885\C,0,18.062,50.682,23.03\N,0,15.78,51.797,
 27.614\C,0,16.677,51.276,28.478\C,0,16.25,51.611,29.975\C,0,14.814,51.
 991,29.748\C,0,14.778,52.316,28.264\C,0,13.804,50.865,30.032\C,0,17.16
 ,52.681,30.644\C,0,17.325,52.636,32.135\C,0,16.496,51.732,33.078\O,0,1

 Normal termination of Gaussian 16 at Sat Apr 30 08:34:20 2022.
