 Gaussian 16, Revision A.03,
 Gaussian 16:  ES64L-G16RevA.03 25-Dec-2016

 ------------------------------
 #p blyp/Def2SVP td=(nstates=5)
 ------------------------------

 -------------------------------------------------
 step_701_chromophore_2 TDDFT with blyp functional
 -------------------------------------------------
 Symbolic Z-matrix:
 Charge =  0 Multiplicity = 1

                         Standard orientation:
 ---------------------------------------------------------------------
 Center     Atomic      Atomic             Coordinates (Angstroms)
 Number     Number       Type             X           Y           Z
 ---------------------------------------------------------------------
      1         12           0        4.950403    1.109629   -0.465034
      2          6           0        4.549016   -2.500178   -0.516300
      3          6           0        2.268564    1.378236   -2.516022
      4          6           0        5.096910    4.346177    0.086357
      5          6           0        7.174898    0.585997    2.288700
      6          7           0        3.470575   -0.382463   -1.273499
      7          6           0        3.519337   -1.748160   -1.233180
      8          6           0        2.324117   -2.394496   -1.950896
      9          6           0        1.890673   -1.252572   -2.919126
     10          6           0        2.569016   -0.000302   -2.203762
     11          6           0        2.348833   -1.577974   -4.395086
     12          6           0        1.253833   -2.925904   -0.921354
     13          6           0        0.851843   -4.423186   -0.883227
     14          6           0       -0.544284   -4.809535   -0.429035
     15          8           0       -1.213569   -5.800163   -0.812237
     16          8           0       -0.992295   -3.946253    0.493707
     17          7           0        3.890652    2.628307   -1.201413
     18          6           0        2.867191    2.606269   -2.108409
     19          6           0        2.579005    4.013508   -2.461801
     20          6           0        3.470566    4.867666   -1.917643
     21          6           0        4.220588    3.926029   -0.937663
     22          6           0        1.413630    4.245869   -3.413146
     23          6           0        3.694956    6.367001   -2.207506
     24          8           0        2.976101    6.940543   -3.026062
     25          6           0        4.777827    7.192435   -1.582777
     26          7           0        5.918404    2.238493    1.047083
     27          6           0        5.856314    3.616205    0.988903
     28          6           0        6.643611    4.259319    2.176652
     29          6           0        7.314249    3.035221    2.838421
     30          6           0        6.772048    1.880878    1.984318
     31          6           0        7.589649    5.474069    1.783298
     32          6           0        7.049001    2.874096    4.363792
     33          6           0        8.373157    2.640111    5.157372
     34          7           0        5.793618   -0.574457    0.647911
     35          6           0        6.785943   -0.571124    1.606431
     36          6           0        7.246323   -1.979956    1.824265
     37          6           0        6.379220   -2.774803    0.979932
     38          6           0        5.567975   -1.852192    0.297776
     39          6           0        8.297191   -2.389331    2.803182
     40          6           0        6.110768   -4.138003    0.486454
     41          8           0        6.697377   -5.214776    0.723048
     42          6           0        4.862778   -4.006683   -0.437278
     43          6           0        5.177710   -4.661128   -1.736162
     44          8           0        5.062462   -5.840313   -1.931733
     45          8           0        5.498468   -3.673451   -2.717852
     46          6           0        5.557735   -4.241733   -4.107561
     47          6           0       -2.389830   -4.072138    0.836654
     48          6           0       -2.991075   -2.783671    1.386831
     49          6           0       -3.422378   -2.517238    2.655723
     50          6           0       -3.544577   -3.471880    3.811280
     51          6           0       -4.069590   -1.130489    2.860255
     52          6           0       -5.646545   -1.111162    2.795831
     53          6           0       -6.186274    0.211084    2.372649
     54          6           0       -7.116202    0.078405    1.139134
     55          6           0       -6.388166    0.161395   -0.202422
     56          6           0       -8.284067    1.109794    1.271386
     57          6           0       -9.585395    0.615024    0.599928
     58          6           0      -10.218358    1.758940   -0.255420
     59          6           0      -11.361558    1.126265   -1.066759
     60          6           0      -11.303438    1.583084   -2.601971
     61          6           0      -12.651432    1.615292   -0.435763
     62          6           0      -13.881741    0.779918   -0.881012
     63          6           0      -14.799185    0.172522    0.218178
     64          6           0      -16.146696    0.893006    0.366557
     65          6           0      -16.235116    1.829902    1.578179
     66          6           0      -17.216485   -0.248904    0.304028
     67          1           0        1.399151    1.434466   -3.174870
     68          1           0        5.026259    5.417922    0.284610
     69          1           0        7.906740    0.442905    3.085559
     70          1           0        2.721144   -3.253994   -2.489670
     71          1           0        0.811767   -1.150027   -2.799870
     72          1           0        2.794298   -0.702949   -4.868547
     73          1           0        1.416826   -1.791579   -4.918254
     74          1           0        2.954786   -2.479210   -4.481593
     75          1           0        0.295747   -2.408056   -0.977159
     76          1           0        1.577501   -2.674746    0.089209
     77          1           0        1.537801   -4.911748   -0.191907
     78          1           0        1.011013   -4.872958   -1.863311
     79          1           0        1.353362    5.292668   -3.710170
     80          1           0        0.479533    3.831502   -3.035081
     81          1           0        1.656047    3.681977   -4.313201
     82          1           0        5.667358    6.574676   -1.454895
     83          1           0        4.370808    7.385521   -0.590124
     84          1           0        4.835673    8.154753   -2.090611
     85          1           0        5.891858    4.591691    2.893348
     86          1           0        8.384679    3.000221    2.636107
     87          1           0        7.718441    5.634897    0.713289
     88          1           0        8.525823    5.279729    2.306874
     89          1           0        7.110089    6.385971    2.140650
     90          1           0        6.473478    1.953142    4.463568
     91          1           0        6.431861    3.717178    4.673379
     92          1           0        9.008704    3.482901    4.885148
     93          1           0        8.882342    1.729952    4.843865
     94          1           0        8.127596    2.674657    6.218684
     95          1           0        9.304130   -1.978096    2.721884
     96          1           0        8.388333   -3.448213    2.561059
     97          1           0        8.065644   -2.222153    3.854174
     98          1           0        3.984231   -4.539578   -0.074130
     99          1           0        5.682216   -5.324118   -4.140665
    100          1           0        6.366043   -3.782046   -4.676040
    101          1           0        4.572671   -4.055564   -4.535763
    102          1           0       -2.536715   -4.895528    1.535903
    103          1           0       -3.053010   -4.576858    0.134572
    104          1           0       -3.043401   -1.889164    0.765325
    105          1           0       -2.980082   -3.212122    4.706424
    106          1           0       -3.263364   -4.483727    3.519371
    107          1           0       -4.564836   -3.601680    4.171221
    108          1           0       -3.679275   -0.408851    2.142025
    109          1           0       -3.679099   -0.736310    3.798014
    110          1           0       -5.976746   -1.244142    3.826090
    111          1           0       -6.055316   -1.925958    2.197316
    112          1           0       -5.379242    0.892779    2.103724
    113          1           0       -6.612397    0.719983    3.237196
    114          1           0       -7.576542   -0.908055    1.074965
    115          1           0       -6.663344    1.063667   -0.749155
    116          1           0       -6.489118   -0.763412   -0.769719
    117          1           0       -5.306025    0.244704   -0.099639
    118          1           0       -8.106756    2.143410    0.973695
    119          1           0       -8.440146    1.164185    2.348696
    120          1           0      -10.193887    0.294261    1.444981
    121          1           0       -9.362568   -0.228849   -0.052923
    122          1           0       -9.621703    2.501047   -0.786270
    123          1           0      -10.554296    2.334468    0.606804
    124          1           0      -11.327867    0.038378   -1.115094
    125          1           0      -11.152711    0.714068   -3.241278
    126          1           0      -10.611097    2.389553   -2.844094
    127          1           0      -12.206512    1.936103   -3.100281
    128          1           0      -12.873857    2.677695   -0.534547
    129          1           0      -12.546517    1.337735    0.612785
    130          1           0      -13.508759    0.026392   -1.575004
    131          1           0      -14.440658    1.474880   -1.507636
    132          1           0      -14.260039    0.380740    1.142078
    133          1           0      -14.894379   -0.886394   -0.022595
    134          1           0      -16.332523    1.516399   -0.507396
    135          1           0      -16.315630    1.175828    2.446996
    136          1           0      -17.248235    2.216825    1.467535
    137          1           0      -15.501245    2.634787    1.607960
    138          1           0      -18.174817    0.104693    0.684644
    139          1           0      -16.813898   -0.973110    1.012857
    140          1           0      -17.365788   -0.695364   -0.679348
 ---------------------------------------------------------------------

 SCF Done:  E(RB-LYP) =  -3007.36953150     A.U. after   21 cycles

 Excitation energies and oscillator strengths:

 Excited State   1:      Singlet-A      1.7732 eV  699.23 nm  f=0.2843  <S**2>=0.000
     245 -> 248        0.19081
     246 -> 247        0.68655
     246 <- 247       -0.14835
 This state for optimization and/or second-order correction.
 Total Energy, E(TD-HF/TD-DFT) =  -3007.30436923
 Copying the excited state density for this state as the 1-particle RhoCI density.

 Excited State   2:      Singlet-A      1.9897 eV  623.13 nm  f=0.0458  <S**2>=0.000
     244 -> 247       -0.17075
     245 -> 247        0.62032
     246 -> 248       -0.23841
     246 -> 249       -0.10268

 Excited State   3:      Singlet-A      2.1330 eV  581.26 nm  f=0.0012  <S**2>=0.000
     243 -> 247        0.47179
     244 -> 247        0.51976

 Excited State   4:      Singlet-A      2.1485 eV  577.07 nm  f=0.0051  <S**2>=0.000
     243 -> 247        0.51815
     244 -> 247       -0.44190
     245 -> 247       -0.13967
     246 -> 248        0.10212

 Excited State   5:      Singlet-A      2.4483 eV  506.41 nm  f=0.0010  <S**2>=0.000
     241 -> 247        0.59875
     242 -> 247       -0.37175

 The electronic state is 1-A.
 Alpha  occ. eigenvalues --  -46.28035 -18.83184 -18.82021 -18.77542 -18.76452
 Alpha  occ. eigenvalues --  -18.76167 -18.76113 -14.03971 -14.03505 -14.02071
 Alpha  occ. eigenvalues --  -14.00856 -10.04390 -10.04102 -10.00903 -10.00466
 Alpha  occ. eigenvalues --   -9.97885  -9.97810  -9.97401  -9.97212  -9.97030
 Alpha  occ. eigenvalues --   -9.96896  -9.96278  -9.96209  -9.95396  -9.95102
 Alpha  occ. eigenvalues --   -9.94818  -9.94720  -9.94594  -9.94563  -9.94517
 Alpha  occ. eigenvalues --   -9.94231  -9.93931  -9.93910  -9.93771  -9.93718
 Alpha  occ. eigenvalues --   -9.93610  -9.93517  -9.93336  -9.93331  -9.93266
 Alpha  occ. eigenvalues --   -9.93228  -9.92996  -9.92926  -9.92791  -9.92418
 Alpha  occ. eigenvalues --   -9.92362  -9.92322  -9.92187  -9.92162  -9.91988
 Alpha  occ. eigenvalues --   -9.91960  -9.91833  -9.91693  -9.91628  -9.91530
 Alpha  occ. eigenvalues --   -9.91171  -9.91077  -9.90884  -9.90860  -9.90842
 Alpha  occ. eigenvalues --   -9.90834  -9.90584  -9.90572  -9.90546  -9.90446
 Alpha  occ. eigenvalues --   -9.90087  -2.92678  -1.73072  -1.72575  -1.72397
 Alpha  occ. eigenvalues --   -0.99106  -0.96921  -0.91877  -0.90282  -0.89964
 Alpha  occ. eigenvalues --   -0.88632  -0.87246  -0.86492  -0.85926  -0.85126
 Alpha  occ. eigenvalues --   -0.75144  -0.73706  -0.73004  -0.72841  -0.72683
 Alpha  occ. eigenvalues --   -0.72100  -0.71977  -0.71056  -0.70468  -0.70226
 Alpha  occ. eigenvalues --   -0.69731  -0.69404  -0.68186  -0.67655  -0.67500
 Alpha  occ. eigenvalues --   -0.66527  -0.66295  -0.65413  -0.64859  -0.64324
 Alpha  occ. eigenvalues --   -0.63740  -0.62421  -0.62265  -0.61924  -0.61200
 Alpha  occ. eigenvalues --   -0.61043  -0.60373  -0.60073  -0.59680  -0.58728
 Alpha  occ. eigenvalues --   -0.58021  -0.57263  -0.57007  -0.56056  -0.54943
 Alpha  occ. eigenvalues --   -0.54108  -0.53834  -0.53132  -0.52102  -0.52000
 Alpha  occ. eigenvalues --   -0.51732  -0.51384  -0.50944  -0.50777  -0.50213
 Alpha  occ. eigenvalues --   -0.50181  -0.49133  -0.48985  -0.48585  -0.46708
 Alpha  occ. eigenvalues --   -0.46357  -0.46130  -0.45739  -0.45521  -0.44611
 Alpha  occ. eigenvalues --   -0.43727  -0.43584  -0.43083  -0.42872  -0.42772
 Alpha  occ. eigenvalues --   -0.42365  -0.41788  -0.41553  -0.41138  -0.41040
 Alpha  occ. eigenvalues --   -0.40714  -0.40700  -0.40465  -0.40330  -0.40256
 Alpha  occ. eigenvalues --   -0.40132  -0.39927  -0.39680  -0.39557  -0.39485
 Alpha  occ. eigenvalues --   -0.39254  -0.38724  -0.38611  -0.38520  -0.38306
 Alpha  occ. eigenvalues --   -0.38239  -0.37994  -0.37726  -0.37605  -0.37290
 Alpha  occ. eigenvalues --   -0.37143  -0.37035  -0.36749  -0.36600  -0.36505
 Alpha  occ. eigenvalues --   -0.36107  -0.36053  -0.35906  -0.35797  -0.35743
 Alpha  occ. eigenvalues --   -0.35683  -0.35246  -0.35074  -0.34968  -0.34938
 Alpha  occ. eigenvalues --   -0.34575  -0.34537  -0.34314  -0.34167  -0.34158
 Alpha  occ. eigenvalues --   -0.33992  -0.33794  -0.33685  -0.33414  -0.33350
 Alpha  occ. eigenvalues --   -0.33167  -0.32718  -0.32641  -0.32596  -0.32564
 Alpha  occ. eigenvalues --   -0.32342  -0.31935  -0.31875  -0.31809  -0.31459
 Alpha  occ. eigenvalues --   -0.31179  -0.31131  -0.31071  -0.30751  -0.30727
 Alpha  occ. eigenvalues --   -0.30514  -0.30438  -0.30386  -0.30181  -0.30051
 Alpha  occ. eigenvalues --   -0.29933  -0.29722  -0.29439  -0.29148  -0.29008
 Alpha  occ. eigenvalues --   -0.28889  -0.28747  -0.28682  -0.28583  -0.28074
 Alpha  occ. eigenvalues --   -0.27640  -0.27255  -0.26817  -0.26777  -0.26628
 Alpha  occ. eigenvalues --   -0.26509  -0.26152  -0.26086  -0.26053  -0.25487
 Alpha  occ. eigenvalues --   -0.25179  -0.24899  -0.24562  -0.24122  -0.23481
 Alpha  occ. eigenvalues --   -0.23063  -0.22359  -0.22263  -0.22013  -0.21426
 Alpha  occ. eigenvalues --   -0.20470  -0.20418  -0.19249  -0.19162  -0.17447
 Alpha  occ. eigenvalues --   -0.15666
 Alpha virt. eigenvalues --   -0.11465  -0.07505  -0.06787  -0.05346  -0.03610
 Alpha virt. eigenvalues --   -0.03395  -0.02752  -0.02422  -0.01737  -0.00306
 Alpha virt. eigenvalues --    0.00896   0.01224   0.02111   0.02368   0.02544

 Mulliken charges:
               1
     1  Mg   0.711789
     2  C    0.018594
     3  C   -0.046031
     4  C   -0.065001
     5  C   -0.092217
     6  N   -0.180410
     7  C   -0.071137
     8  C   -0.002307
     9  C    0.023023
    10  C   -0.006931
    11  C    0.143897
    12  C    0.128250
    13  C    0.104280
    14  C    0.064416
    15  O   -0.217783
    16  O   -0.227516
    17  N   -0.318808
    18  C    0.128590
    19  C   -0.128988
    20  C    0.023468
    21  C    0.105956
    22  C    0.179930
    23  C   -0.092978
    24  O   -0.163432
    25  C    0.159769
    26  N   -0.202043
    27  C    0.017668
    28  C    0.035952
    29  C    0.002314
    30  C    0.005996
    31  C    0.126505
    32  C    0.109425
    33  C    0.060313
    34  N   -0.220729
    35  C    0.105653
    36  C   -0.149157
    37  C    0.052407
    38  C    0.036019
    39  C    0.140120
    40  C   -0.013137
    41  O   -0.144577
    42  C    0.060895
    43  C    0.113313
    44  O   -0.133982
    45  O   -0.314724
    46  C    0.203201
    47  C    0.324293
    48  C   -0.058495
    49  C   -0.138803
    50  C    0.143184
    51  C    0.087988
    52  C    0.109055
    53  C    0.114998
    54  C   -0.099961
    55  C    0.120187
    56  C    0.118457
    57  C    0.030532
    58  C    0.098244
    59  C   -0.032253
    60  C    0.080456
    61  C    0.086548
    62  C    0.048280
    63  C    0.142807
    64  C   -0.106939
    65  C    0.121412
    66  C    0.077992
    67  H   -0.062499
    68  H   -0.074287
    69  H   -0.076722
    70  H   -0.031235
    71  H   -0.025169
    72  H   -0.001633
    73  H   -0.007151
    74  H   -0.003887
    75  H   -0.022274
    76  H   -0.015762
    77  H    0.021947
    78  H   -0.000373
    79  H    0.003055
    80  H   -0.000657
    81  H   -0.011046
    82  H    0.012359
    83  H    0.015817
    84  H    0.002365
    85  H   -0.020973
    86  H   -0.030234
    87  H    0.001280
    88  H   -0.001463
    89  H   -0.008326
    90  H   -0.015630
    91  H   -0.021838
    92  H   -0.009504
    93  H    0.005281
    94  H   -0.000336
    95  H   -0.009232
    96  H    0.011579
    97  H    0.001855
    98  H    0.011156
    99  H    0.024159
   100  H    0.025133
   101  H    0.006888
   102  H   -0.041301
   103  H   -0.002618
   104  H   -0.044036
   105  H   -0.001106
   106  H   -0.024304
   107  H   -0.005149
   108  H   -0.031345
   109  H   -0.032204
   110  H   -0.028393
   111  H   -0.019786
   112  H   -0.040632
   113  H   -0.040586
   114  H   -0.029772
   115  H   -0.012072
   116  H   -0.014521
   117  H   -0.031654
   118  H   -0.033507
   119  H   -0.053190
   120  H   -0.017083
   121  H   -0.019630
   122  H   -0.025003
   123  H   -0.034937
   124  H   -0.029293
   125  H   -0.024923
   126  H   -0.017207
   127  H   -0.030859
   128  H   -0.022418
   129  H   -0.048826
   130  H   -0.045082
   131  H   -0.040288
   132  H   -0.040836
   133  H   -0.027881
   134  H   -0.036469
   135  H   -0.020848
   136  H   -0.022456
   137  H    0.003922
   138  H   -0.029696
   139  H   -0.013037
   140  H   -0.001452
 Sum of Mulliken charges =  -0.00000

 Dipole moment (field-independent basis, Debye):
    X=             -0.1125    Y=              5.9510    Z=              2.0465  Tot=              6.2940
 Quadrupole moment (field-independent basis, Debye-Ang):
   XX=           -385.0996   YY=           -466.6370   ZZ=           -385.7351
   XY=             43.6710   XZ=             -0.5912   YZ=             20.3486

 Normal termination of Gaussian 16 at Thu May  5 07:26:21 2022.
