 Gaussian 16, Revision A.03,
 Gaussian 16:  ES64L-G16RevA.03 25-Dec-2016

 -----------------------------------
 #p cam-b3lyp/Def2SVP td=(nstates=5)
 -----------------------------------

 ------------------------------------------------------
 step_701_chromophore_2 TDDFT with cam-b3lyp functional
 ------------------------------------------------------
 Symbolic Z-matrix:
 Charge =  0 Multiplicity = 1

                         Standard orientation:
 ---------------------------------------------------------------------
 Center     Atomic      Atomic             Coordinates (Angstroms)
 Number     Number       Type             X           Y           Z
 ---------------------------------------------------------------------
      1         12           0        4.950403    1.109629   -0.465034
      2          6           0        4.549016   -2.500178   -0.516300
      3          6           0        2.268564    1.378236   -2.516022
      4          6           0        5.096910    4.346177    0.086357
      5          6           0        7.174898    0.585997    2.288700
      6          7           0        3.470575   -0.382463   -1.273499
      7          6           0        3.519337   -1.748160   -1.233180
      8          6           0        2.324117   -2.394496   -1.950896
      9          6           0        1.890673   -1.252572   -2.919126
     10          6           0        2.569016   -0.000302   -2.203762
     11          6           0        2.348833   -1.577974   -4.395086
     12          6           0        1.253833   -2.925904   -0.921354
     13          6           0        0.851843   -4.423186   -0.883227
     14          6           0       -0.544284   -4.809535   -0.429035
     15          8           0       -1.213569   -5.800163   -0.812237
     16          8           0       -0.992295   -3.946253    0.493707
     17          7           0        3.890652    2.628307   -1.201413
     18          6           0        2.867191    2.606269   -2.108409
     19          6           0        2.579005    4.013508   -2.461801
     20          6           0        3.470566    4.867666   -1.917643
     21          6           0        4.220588    3.926029   -0.937663
     22          6           0        1.413630    4.245869   -3.413146
     23          6           0        3.694956    6.367001   -2.207506
     24          8           0        2.976101    6.940543   -3.026062
     25          6           0        4.777827    7.192435   -1.582777
     26          7           0        5.918404    2.238493    1.047083
     27          6           0        5.856314    3.616205    0.988903
     28          6           0        6.643611    4.259319    2.176652
     29          6           0        7.314249    3.035221    2.838421
     30          6           0        6.772048    1.880878    1.984318
     31          6           0        7.589649    5.474069    1.783298
     32          6           0        7.049001    2.874096    4.363792
     33          6           0        8.373157    2.640111    5.157372
     34          7           0        5.793618   -0.574457    0.647911
     35          6           0        6.785943   -0.571124    1.606431
     36          6           0        7.246323   -1.979956    1.824265
     37          6           0        6.379220   -2.774803    0.979932
     38          6           0        5.567975   -1.852192    0.297776
     39          6           0        8.297191   -2.389331    2.803182
     40          6           0        6.110768   -4.138003    0.486454
     41          8           0        6.697377   -5.214776    0.723048
     42          6           0        4.862778   -4.006683   -0.437278
     43          6           0        5.177710   -4.661128   -1.736162
     44          8           0        5.062462   -5.840313   -1.931733
     45          8           0        5.498468   -3.673451   -2.717852
     46          6           0        5.557735   -4.241733   -4.107561
     47          6           0       -2.389830   -4.072138    0.836654
     48          6           0       -2.991075   -2.783671    1.386831
     49          6           0       -3.422378   -2.517238    2.655723
     50          6           0       -3.544577   -3.471880    3.811280
     51          6           0       -4.069590   -1.130489    2.860255
     52          6           0       -5.646545   -1.111162    2.795831
     53          6           0       -6.186274    0.211084    2.372649
     54          6           0       -7.116202    0.078405    1.139134
     55          6           0       -6.388166    0.161395   -0.202422
     56          6           0       -8.284067    1.109794    1.271386
     57          6           0       -9.585395    0.615024    0.599928
     58          6           0      -10.218358    1.758940   -0.255420
     59          6           0      -11.361558    1.126265   -1.066759
     60          6           0      -11.303438    1.583084   -2.601971
     61          6           0      -12.651432    1.615292   -0.435763
     62          6           0      -13.881741    0.779918   -0.881012
     63          6           0      -14.799185    0.172522    0.218178
     64          6           0      -16.146696    0.893006    0.366557
     65          6           0      -16.235116    1.829902    1.578179
     66          6           0      -17.216485   -0.248904    0.304028
     67          1           0        1.399151    1.434466   -3.174870
     68          1           0        5.026259    5.417922    0.284610
     69          1           0        7.906740    0.442905    3.085559
     70          1           0        2.721144   -3.253994   -2.489670
     71          1           0        0.811767   -1.150027   -2.799870
     72          1           0        2.794298   -0.702949   -4.868547
     73          1           0        1.416826   -1.791579   -4.918254
     74          1           0        2.954786   -2.479210   -4.481593
     75          1           0        0.295747   -2.408056   -0.977159
     76          1           0        1.577501   -2.674746    0.089209
     77          1           0        1.537801   -4.911748   -0.191907
     78          1           0        1.011013   -4.872958   -1.863311
     79          1           0        1.353362    5.292668   -3.710170
     80          1           0        0.479533    3.831502   -3.035081
     81          1           0        1.656047    3.681977   -4.313201
     82          1           0        5.667358    6.574676   -1.454895
     83          1           0        4.370808    7.385521   -0.590124
     84          1           0        4.835673    8.154753   -2.090611
     85          1           0        5.891858    4.591691    2.893348
     86          1           0        8.384679    3.000221    2.636107
     87          1           0        7.718441    5.634897    0.713289
     88          1           0        8.525823    5.279729    2.306874
     89          1           0        7.110089    6.385971    2.140650
     90          1           0        6.473478    1.953142    4.463568
     91          1           0        6.431861    3.717178    4.673379
     92          1           0        9.008704    3.482901    4.885148
     93          1           0        8.882342    1.729952    4.843865
     94          1           0        8.127596    2.674657    6.218684
     95          1           0        9.304130   -1.978096    2.721884
     96          1           0        8.388333   -3.448213    2.561059
     97          1           0        8.065644   -2.222153    3.854174
     98          1           0        3.984231   -4.539578   -0.074130
     99          1           0        5.682216   -5.324118   -4.140665
    100          1           0        6.366043   -3.782046   -4.676040
    101          1           0        4.572671   -4.055564   -4.535763
    102          1           0       -2.536715   -4.895528    1.535903
    103          1           0       -3.053010   -4.576858    0.134572
    104          1           0       -3.043401   -1.889164    0.765325
    105          1           0       -2.980082   -3.212122    4.706424
    106          1           0       -3.263364   -4.483727    3.519371
    107          1           0       -4.564836   -3.601680    4.171221
    108          1           0       -3.679275   -0.408851    2.142025
    109          1           0       -3.679099   -0.736310    3.798014
    110          1           0       -5.976746   -1.244142    3.826090
    111          1           0       -6.055316   -1.925958    2.197316
    112          1           0       -5.379242    0.892779    2.103724
    113          1           0       -6.612397    0.719983    3.237196
    114          1           0       -7.576542   -0.908055    1.074965
    115          1           0       -6.663344    1.063667   -0.749155
    116          1           0       -6.489118   -0.763412   -0.769719
    117          1           0       -5.306025    0.244704   -0.099639
    118          1           0       -8.106756    2.143410    0.973695
    119          1           0       -8.440146    1.164185    2.348696
    120          1           0      -10.193887    0.294261    1.444981
    121          1           0       -9.362568   -0.228849   -0.052923
    122          1           0       -9.621703    2.501047   -0.786270
    123          1           0      -10.554296    2.334468    0.606804
    124          1           0      -11.327867    0.038378   -1.115094
    125          1           0      -11.152711    0.714068   -3.241278
    126          1           0      -10.611097    2.389553   -2.844094
    127          1           0      -12.206512    1.936103   -3.100281
    128          1           0      -12.873857    2.677695   -0.534547
    129          1           0      -12.546517    1.337735    0.612785
    130          1           0      -13.508759    0.026392   -1.575004
    131          1           0      -14.440658    1.474880   -1.507636
    132          1           0      -14.260039    0.380740    1.142078
    133          1           0      -14.894379   -0.886394   -0.022595
    134          1           0      -16.332523    1.516399   -0.507396
    135          1           0      -16.315630    1.175828    2.446996
    136          1           0      -17.248235    2.216825    1.467535
    137          1           0      -15.501245    2.634787    1.607960
    138          1           0      -18.174817    0.104693    0.684644
    139          1           0      -16.813898   -0.973110    1.012857
    140          1           0      -17.365788   -0.695364   -0.679348
 ---------------------------------------------------------------------

 SCF Done:  E(RCAM-B3LYP) =  -3007.15125047     A.U. after   17 cycles

 Excitation energies and oscillator strengths:

 Excited State   1:      Singlet-A      1.6926 eV  732.49 nm  f=0.3571  <S**2>=0.000
     245 -> 248        0.18422
     246 -> 247        0.68296
     245 <- 248        0.10829
 This state for optimization and/or second-order correction.
 Total Energy, E(TD-HF/TD-DFT) =  -3007.08904675
 Copying the excited state density for this state as the 1-particle RhoCI density.

 Excited State   2:      Singlet-A      2.2581 eV  549.06 nm  f=0.0458  <S**2>=0.000
     245 -> 247        0.59697
     246 -> 248       -0.36674

 Excited State   3:      Singlet-A      3.3369 eV  371.55 nm  f=0.5517  <S**2>=0.000
     244 -> 247       -0.23502
     245 -> 247        0.32627
     246 -> 248        0.56194
     246 -> 250        0.10292
     245 <- 247       -0.10007

 Excited State   4:      Singlet-A      3.5280 eV  351.43 nm  f=0.1562  <S**2>=0.000
     242 -> 247        0.13569
     244 -> 247        0.62713
     245 -> 247        0.14470
     246 -> 248        0.17167
     246 -> 250        0.10986

 Excited State   5:      Singlet-A      3.5670 eV  347.59 nm  f=0.0017  <S**2>=0.000
     241 -> 247        0.49635
     241 -> 249        0.31925
     241 -> 250       -0.13975
     241 -> 251        0.18359
     246 -> 249        0.15466

 The electronic state is 1-A.
 Alpha  occ. eigenvalues --  -46.89659 -19.26067 -19.24938 -19.20724 -19.19456
 Alpha  occ. eigenvalues --  -19.19382 -19.19353 -14.42994 -14.42268 -14.40773
 Alpha  occ. eigenvalues --  -14.39149 -10.39706 -10.39648 -10.36231 -10.35881
 Alpha  occ. eigenvalues --  -10.32031 -10.31924 -10.31867 -10.31863 -10.31628
 Alpha  occ. eigenvalues --  -10.31582 -10.30818 -10.30440 -10.29496 -10.29236
 Alpha  occ. eigenvalues --  -10.29211 -10.29030 -10.28877 -10.28729 -10.28629
 Alpha  occ. eigenvalues --  -10.28601 -10.28549 -10.28148 -10.28126 -10.27906
 Alpha  occ. eigenvalues --  -10.27892 -10.27486 -10.27233 -10.27144 -10.27092
 Alpha  occ. eigenvalues --  -10.27061 -10.27052 -10.26923 -10.26406 -10.26285
 Alpha  occ. eigenvalues --  -10.26214 -10.26051 -10.25914 -10.25890 -10.25758
 Alpha  occ. eigenvalues --  -10.25727 -10.25666 -10.25596 -10.25318 -10.25228
 Alpha  occ. eigenvalues --  -10.24840 -10.24661 -10.24503 -10.24492 -10.24459
 Alpha  occ. eigenvalues --  -10.24425 -10.24251 -10.24197 -10.24189 -10.24082
 Alpha  occ. eigenvalues --  -10.23745  -3.18201  -1.93072  -1.92661  -1.92513
 Alpha  occ. eigenvalues --   -1.17523  -1.15540  -1.10400  -1.08589  -1.07885
 Alpha  occ. eigenvalues --   -1.06453  -1.04983  -1.04239  -1.03646  -1.02535
 Alpha  occ. eigenvalues --   -0.92258  -0.90564  -0.89804  -0.89522  -0.89449
 Alpha  occ. eigenvalues --   -0.88833  -0.88681  -0.87653  -0.87335  -0.86788
 Alpha  occ. eigenvalues --   -0.86149  -0.85764  -0.84463  -0.83932  -0.83654
 Alpha  occ. eigenvalues --   -0.82814  -0.82301  -0.81345  -0.80655  -0.80114
 Alpha  occ. eigenvalues --   -0.79512  -0.78022  -0.77812  -0.77588  -0.76641
 Alpha  occ. eigenvalues --   -0.76427  -0.75734  -0.75391  -0.74980  -0.73924
 Alpha  occ. eigenvalues --   -0.73059  -0.72183  -0.71949  -0.70917  -0.69499
 Alpha  occ. eigenvalues --   -0.68745  -0.68399  -0.67776  -0.66294  -0.66174
 Alpha  occ. eigenvalues --   -0.65953  -0.65271  -0.64975  -0.64898  -0.64251
 Alpha  occ. eigenvalues --   -0.64195  -0.63070  -0.62681  -0.62531  -0.60236
 Alpha  occ. eigenvalues --   -0.59997  -0.59794  -0.59199  -0.58966  -0.58117
 Alpha  occ. eigenvalues --   -0.57128  -0.56938  -0.56371  -0.56208  -0.55994
 Alpha  occ. eigenvalues --   -0.55494  -0.54729  -0.54401  -0.54057  -0.53881
 Alpha  occ. eigenvalues --   -0.53782  -0.53699  -0.53351  -0.53269  -0.52969
 Alpha  occ. eigenvalues --   -0.52682  -0.52520  -0.52413  -0.52198  -0.52140
 Alpha  occ. eigenvalues --   -0.51823  -0.51295  -0.51107  -0.50862  -0.50777
 Alpha  occ. eigenvalues --   -0.50606  -0.50409  -0.50070  -0.49983  -0.49698
 Alpha  occ. eigenvalues --   -0.49510  -0.49372  -0.49141  -0.48871  -0.48742
 Alpha  occ. eigenvalues --   -0.48534  -0.48256  -0.47924  -0.47904  -0.47800
 Alpha  occ. eigenvalues --   -0.47650  -0.47594  -0.47280  -0.47147  -0.46728
 Alpha  occ. eigenvalues --   -0.46444  -0.46383  -0.46236  -0.46023  -0.45865
 Alpha  occ. eigenvalues --   -0.45764  -0.45637  -0.45440  -0.45258  -0.45105
 Alpha  occ. eigenvalues --   -0.44874  -0.44599  -0.44278  -0.44147  -0.44005
 Alpha  occ. eigenvalues --   -0.43930  -0.43486  -0.43387  -0.43288  -0.43190
 Alpha  occ. eigenvalues --   -0.43067  -0.42914  -0.42435  -0.42207  -0.42053
 Alpha  occ. eigenvalues --   -0.42005  -0.41837  -0.41807  -0.41710  -0.41247
 Alpha  occ. eigenvalues --   -0.41158  -0.41050  -0.40561  -0.40140  -0.40107
 Alpha  occ. eigenvalues --   -0.40010  -0.39750  -0.39745  -0.39656  -0.39089
 Alpha  occ. eigenvalues --   -0.38486  -0.38141  -0.38034  -0.37604  -0.37525
 Alpha  occ. eigenvalues --   -0.37445  -0.36908  -0.36854  -0.36822  -0.36778
 Alpha  occ. eigenvalues --   -0.36136  -0.36003  -0.35310  -0.35093  -0.34406
 Alpha  occ. eigenvalues --   -0.34062  -0.33246  -0.32496  -0.32126  -0.31642
 Alpha  occ. eigenvalues --   -0.31219  -0.30822  -0.30301  -0.29519  -0.24331
 Alpha  occ. eigenvalues --   -0.20813
 Alpha virt. eigenvalues --   -0.08372  -0.02471  -0.00372   0.01359   0.01567
 Alpha virt. eigenvalues --    0.04287   0.04750   0.05035   0.05720   0.06579
 Alpha virt. eigenvalues --    0.07589   0.08188   0.08434   0.08578   0.08710

 Mulliken charges:
               1
     1  Mg   0.843941
     2  C   -0.000585
     3  C   -0.060211
     4  C   -0.092957
     5  C   -0.099168
     6  N   -0.245049
     7  C   -0.031507
     8  C   -0.047341
     9  C   -0.027616
    10  C    0.006938
    11  C    0.091646
    12  C    0.075720
    13  C    0.034856
    14  C    0.148671
    15  O   -0.262570
    16  O   -0.290333
    17  N   -0.407705
    18  C    0.133435
    19  C   -0.130903
    20  C   -0.045455
    21  C    0.141068
    22  C    0.120717
    23  C   -0.011717
    24  O   -0.204619
    25  C    0.075193
    26  N   -0.279829
    27  C    0.043429
    28  C   -0.017640
    29  C   -0.054188
    30  C    0.032329
    31  C    0.069673
    32  C    0.048238
    33  C    0.002911
    34  N   -0.307067
    35  C    0.107398
    36  C   -0.143975
    37  C   -0.025434
    38  C    0.070416
    39  C    0.086967
    40  C    0.082865
    41  O   -0.182508
    42  C   -0.013019
    43  C    0.199962
    44  O   -0.172506
    45  O   -0.377729
    46  C    0.168278
    47  C    0.285740
    48  C   -0.079783
    49  C   -0.159673
    50  C    0.081851
    51  C    0.033834
    52  C    0.050948
    53  C    0.057836
    54  C   -0.155716
    55  C    0.062578
    56  C    0.066740
    57  C   -0.017040
    58  C    0.041510
    59  C   -0.095387
    60  C    0.023538
    61  C    0.039273
    62  C   -0.002814
    63  C    0.078793
    64  C   -0.164015
    65  C    0.062959
    66  C    0.019944
    67  H   -0.026014
    68  H   -0.039544
    69  H   -0.042280
    70  H   -0.000048
    71  H    0.010424
    72  H    0.023577
    73  H    0.017722
    74  H    0.014534
    75  H    0.008307
    76  H    0.018532
    77  H    0.049582
    78  H    0.031767
    79  H    0.036582
    80  H    0.026273
    81  H    0.015708
    82  H    0.039235
    83  H    0.041699
    84  H    0.038783
    85  H    0.014182
    86  H    0.005525
    87  H    0.024877
    88  H    0.022048
    89  H    0.015220
    90  H    0.016059
    91  H    0.006473
    92  H    0.011035
    93  H    0.024855
    94  H    0.024641
    95  H    0.016628
    96  H    0.037475
    97  H    0.026457
    98  H    0.049990
    99  H    0.051361
   100  H    0.047322
   101  H    0.022589
   102  H   -0.010667
   103  H    0.029928
   104  H   -0.012133
   105  H    0.024512
   106  H    0.001148
   107  H    0.018947
   108  H   -0.003264
   109  H   -0.002891
   110  H    0.000153
   111  H    0.008150
   112  H   -0.011305
   113  H   -0.009359
   114  H    0.001720
   115  H    0.011666
   116  H    0.009426
   117  H   -0.009116
   118  H   -0.005949
   119  H   -0.022237
   120  H    0.010165
   121  H    0.004641
   122  H    0.003492
   123  H   -0.005419
   124  H    0.003703
   125  H   -0.000796
   126  H    0.006727
   127  H   -0.006321
   128  H    0.005620
   129  H   -0.022432
   130  H   -0.015909
   131  H   -0.012314
   132  H   -0.011567
   133  H    0.003273
   134  H   -0.005741
   135  H    0.002609
   136  H    0.001733
   137  H    0.026830
   138  H   -0.004369
   139  H    0.008827
   140  H    0.022811
 Sum of Mulliken charges =  -0.00000

 Dipole moment (field-independent basis, Debye):
    X=             -0.2183    Y=              6.6103    Z=              1.7408  Tot=              6.8392
 Quadrupole moment (field-independent basis, Debye-Ang):
   XX=           -385.6252   YY=           -464.7202   ZZ=           -383.7250
   XY=             46.8204   XZ=             -1.3252   YZ=             20.5953

 Normal termination of Gaussian 16 at Thu May  5 06:05:31 2022.
