 Gaussian 16, Revision A.03,
 Gaussian 16:  ES64L-G16RevA.03 25-Dec-2016

 ---------------------------------
 #p PBE1PBE/Def2SVP td=(nstates=5)
 ---------------------------------

 ----------------------------------------------------
 step_701_chromophore_2 TDDFT with PBE1PBE functional
 ----------------------------------------------------
 Symbolic Z-matrix:
 Charge =  0 Multiplicity = 1

                         Standard orientation:
 ---------------------------------------------------------------------
 Center     Atomic      Atomic             Coordinates (Angstroms)
 Number     Number       Type             X           Y           Z
 ---------------------------------------------------------------------
      1         12           0        4.950403    1.109629   -0.465034
      2          6           0        4.549016   -2.500178   -0.516300
      3          6           0        2.268564    1.378236   -2.516022
      4          6           0        5.096910    4.346177    0.086357
      5          6           0        7.174898    0.585997    2.288700
      6          7           0        3.470575   -0.382463   -1.273499
      7          6           0        3.519337   -1.748160   -1.233180
      8          6           0        2.324117   -2.394496   -1.950896
      9          6           0        1.890673   -1.252572   -2.919126
     10          6           0        2.569016   -0.000302   -2.203762
     11          6           0        2.348833   -1.577974   -4.395086
     12          6           0        1.253833   -2.925904   -0.921354
     13          6           0        0.851843   -4.423186   -0.883227
     14          6           0       -0.544284   -4.809535   -0.429035
     15          8           0       -1.213569   -5.800163   -0.812237
     16          8           0       -0.992295   -3.946253    0.493707
     17          7           0        3.890652    2.628307   -1.201413
     18          6           0        2.867191    2.606269   -2.108409
     19          6           0        2.579005    4.013508   -2.461801
     20          6           0        3.470566    4.867666   -1.917643
     21          6           0        4.220588    3.926029   -0.937663
     22          6           0        1.413630    4.245869   -3.413146
     23          6           0        3.694956    6.367001   -2.207506
     24          8           0        2.976101    6.940543   -3.026062
     25          6           0        4.777827    7.192435   -1.582777
     26          7           0        5.918404    2.238493    1.047083
     27          6           0        5.856314    3.616205    0.988903
     28          6           0        6.643611    4.259319    2.176652
     29          6           0        7.314249    3.035221    2.838421
     30          6           0        6.772048    1.880878    1.984318
     31          6           0        7.589649    5.474069    1.783298
     32          6           0        7.049001    2.874096    4.363792
     33          6           0        8.373157    2.640111    5.157372
     34          7           0        5.793618   -0.574457    0.647911
     35          6           0        6.785943   -0.571124    1.606431
     36          6           0        7.246323   -1.979956    1.824265
     37          6           0        6.379220   -2.774803    0.979932
     38          6           0        5.567975   -1.852192    0.297776
     39          6           0        8.297191   -2.389331    2.803182
     40          6           0        6.110768   -4.138003    0.486454
     41          8           0        6.697377   -5.214776    0.723048
     42          6           0        4.862778   -4.006683   -0.437278
     43          6           0        5.177710   -4.661128   -1.736162
     44          8           0        5.062462   -5.840313   -1.931733
     45          8           0        5.498468   -3.673451   -2.717852
     46          6           0        5.557735   -4.241733   -4.107561
     47          6           0       -2.389830   -4.072138    0.836654
     48          6           0       -2.991075   -2.783671    1.386831
     49          6           0       -3.422378   -2.517238    2.655723
     50          6           0       -3.544577   -3.471880    3.811280
     51          6           0       -4.069590   -1.130489    2.860255
     52          6           0       -5.646545   -1.111162    2.795831
     53          6           0       -6.186274    0.211084    2.372649
     54          6           0       -7.116202    0.078405    1.139134
     55          6           0       -6.388166    0.161395   -0.202422
     56          6           0       -8.284067    1.109794    1.271386
     57          6           0       -9.585395    0.615024    0.599928
     58          6           0      -10.218358    1.758940   -0.255420
     59          6           0      -11.361558    1.126265   -1.066759
     60          6           0      -11.303438    1.583084   -2.601971
     61          6           0      -12.651432    1.615292   -0.435763
     62          6           0      -13.881741    0.779918   -0.881012
     63          6           0      -14.799185    0.172522    0.218178
     64          6           0      -16.146696    0.893006    0.366557
     65          6           0      -16.235116    1.829902    1.578179
     66          6           0      -17.216485   -0.248904    0.304028
     67          1           0        1.399151    1.434466   -3.174870
     68          1           0        5.026259    5.417922    0.284610
     69          1           0        7.906740    0.442905    3.085559
     70          1           0        2.721144   -3.253994   -2.489670
     71          1           0        0.811767   -1.150027   -2.799870
     72          1           0        2.794298   -0.702949   -4.868547
     73          1           0        1.416826   -1.791579   -4.918254
     74          1           0        2.954786   -2.479210   -4.481593
     75          1           0        0.295747   -2.408056   -0.977159
     76          1           0        1.577501   -2.674746    0.089209
     77          1           0        1.537801   -4.911748   -0.191907
     78          1           0        1.011013   -4.872958   -1.863311
     79          1           0        1.353362    5.292668   -3.710170
     80          1           0        0.479533    3.831502   -3.035081
     81          1           0        1.656047    3.681977   -4.313201
     82          1           0        5.667358    6.574676   -1.454895
     83          1           0        4.370808    7.385521   -0.590124
     84          1           0        4.835673    8.154753   -2.090611
     85          1           0        5.891858    4.591691    2.893348
     86          1           0        8.384679    3.000221    2.636107
     87          1           0        7.718441    5.634897    0.713289
     88          1           0        8.525823    5.279729    2.306874
     89          1           0        7.110089    6.385971    2.140650
     90          1           0        6.473478    1.953142    4.463568
     91          1           0        6.431861    3.717178    4.673379
     92          1           0        9.008704    3.482901    4.885148
     93          1           0        8.882342    1.729952    4.843865
     94          1           0        8.127596    2.674657    6.218684
     95          1           0        9.304130   -1.978096    2.721884
     96          1           0        8.388333   -3.448213    2.561059
     97          1           0        8.065644   -2.222153    3.854174
     98          1           0        3.984231   -4.539578   -0.074130
     99          1           0        5.682216   -5.324118   -4.140665
    100          1           0        6.366043   -3.782046   -4.676040
    101          1           0        4.572671   -4.055564   -4.535763
    102          1           0       -2.536715   -4.895528    1.535903
    103          1           0       -3.053010   -4.576858    0.134572
    104          1           0       -3.043401   -1.889164    0.765325
    105          1           0       -2.980082   -3.212122    4.706424
    106          1           0       -3.263364   -4.483727    3.519371
    107          1           0       -4.564836   -3.601680    4.171221
    108          1           0       -3.679275   -0.408851    2.142025
    109          1           0       -3.679099   -0.736310    3.798014
    110          1           0       -5.976746   -1.244142    3.826090
    111          1           0       -6.055316   -1.925958    2.197316
    112          1           0       -5.379242    0.892779    2.103724
    113          1           0       -6.612397    0.719983    3.237196
    114          1           0       -7.576542   -0.908055    1.074965
    115          1           0       -6.663344    1.063667   -0.749155
    116          1           0       -6.489118   -0.763412   -0.769719
    117          1           0       -5.306025    0.244704   -0.099639
    118          1           0       -8.106756    2.143410    0.973695
    119          1           0       -8.440146    1.164185    2.348696
    120          1           0      -10.193887    0.294261    1.444981
    121          1           0       -9.362568   -0.228849   -0.052923
    122          1           0       -9.621703    2.501047   -0.786270
    123          1           0      -10.554296    2.334468    0.606804
    124          1           0      -11.327867    0.038378   -1.115094
    125          1           0      -11.152711    0.714068   -3.241278
    126          1           0      -10.611097    2.389553   -2.844094
    127          1           0      -12.206512    1.936103   -3.100281
    128          1           0      -12.873857    2.677695   -0.534547
    129          1           0      -12.546517    1.337735    0.612785
    130          1           0      -13.508759    0.026392   -1.575004
    131          1           0      -14.440658    1.474880   -1.507636
    132          1           0      -14.260039    0.380740    1.142078
    133          1           0      -14.894379   -0.886394   -0.022595
    134          1           0      -16.332523    1.516399   -0.507396
    135          1           0      -16.315630    1.175828    2.446996
    136          1           0      -17.248235    2.216825    1.467535
    137          1           0      -15.501245    2.634787    1.607960
    138          1           0      -18.174817    0.104693    0.684644
    139          1           0      -16.813898   -0.973110    1.012857
    140          1           0      -17.365788   -0.695364   -0.679348
 ---------------------------------------------------------------------

 SCF Done:  E(RPBE1PBE) =  -3005.34090466     A.U. after   15 cycles

 Excitation energies and oscillator strengths:

 Excited State   1:      Singlet-A      1.8384 eV  674.40 nm  f=0.3479  <S**2>=0.000
     245 -> 248        0.17757
     246 -> 247        0.69055
     246 <- 247       -0.10621
 This state for optimization and/or second-order correction.
 Total Energy, E(TD-HF/TD-DFT) =  -3005.27334300
 Copying the excited state density for this state as the 1-particle RhoCI density.

 Excited State   2:      Singlet-A      2.2543 eV  549.99 nm  f=0.0553  <S**2>=0.000
     245 -> 247        0.62168
     246 -> 248       -0.32174

 Excited State   3:      Singlet-A      3.0907 eV  401.16 nm  f=0.1355  <S**2>=0.000
     242 -> 247       -0.31074
     242 -> 249       -0.10026
     244 -> 247       -0.37340
     245 -> 247        0.17839
     246 -> 248        0.43607

 Excited State   4:      Singlet-A      3.1558 eV  392.88 nm  f=0.0286  <S**2>=0.000
     240 -> 247        0.10195
     241 -> 247       -0.17249
     242 -> 247        0.53695
     242 -> 249        0.17185
     242 -> 250        0.10124
     244 -> 247       -0.22341
     246 -> 248        0.19193
     246 -> 249        0.14927

 Excited State   5:      Singlet-A      3.1890 eV  388.78 nm  f=0.1190  <S**2>=0.000
     244 -> 247        0.49782
     245 -> 247        0.14924
     246 -> 248        0.27868
     246 -> 249        0.35803

 The electronic state is 1-A.
 Alpha  occ. eigenvalues --  -46.93052 -19.26743 -19.25631 -19.20953 -19.19711
 Alpha  occ. eigenvalues --  -19.19656 -19.19599 -14.42418 -14.41821 -14.40314
 Alpha  occ. eigenvalues --  -14.38876 -10.36756 -10.36668 -10.33310 -10.33078
 Alpha  occ. eigenvalues --  -10.29731 -10.29518 -10.29400 -10.29334 -10.29206
 Alpha  occ. eigenvalues --  -10.29108 -10.28415 -10.28239 -10.27361 -10.27030
 Alpha  occ. eigenvalues --  -10.26864 -10.26833 -10.26701 -10.26441 -10.26439
 Alpha  occ. eigenvalues --  -10.26439 -10.26222 -10.25744 -10.25678 -10.25568
 Alpha  occ. eigenvalues --  -10.25390 -10.25359 -10.24881 -10.24740 -10.24613
 Alpha  occ. eigenvalues --  -10.24613 -10.24516 -10.24309 -10.23963 -10.23895
 Alpha  occ. eigenvalues --  -10.23857 -10.23735 -10.23492 -10.23440 -10.23423
 Alpha  occ. eigenvalues --  -10.23390 -10.23295 -10.22937 -10.22885 -10.22868
 Alpha  occ. eigenvalues --  -10.22398 -10.22088 -10.22077 -10.22031 -10.21858
 Alpha  occ. eigenvalues --  -10.21840 -10.21790 -10.21747 -10.21627 -10.21620
 Alpha  occ. eigenvalues --  -10.21287  -3.15174  -1.87984  -1.87552  -1.87407
 Alpha  occ. eigenvalues --   -1.12375  -1.10278  -1.05055  -1.03351  -1.02732
 Alpha  occ. eigenvalues --   -1.01326  -0.99601  -0.98828  -0.98246  -0.97308
 Alpha  occ. eigenvalues --   -0.86620  -0.84677  -0.83941  -0.83823  -0.83623
 Alpha  occ. eigenvalues --   -0.83131  -0.82811  -0.81771  -0.81554  -0.81080
 Alpha  occ. eigenvalues --   -0.80417  -0.80131  -0.78632  -0.78193  -0.77921
 Alpha  occ. eigenvalues --   -0.76969  -0.76495  -0.75595  -0.74955  -0.74438
 Alpha  occ. eigenvalues --   -0.73653  -0.72264  -0.72154  -0.71822  -0.70917
 Alpha  occ. eigenvalues --   -0.70594  -0.69821  -0.69761  -0.69103  -0.68106
 Alpha  occ. eigenvalues --   -0.67377  -0.66645  -0.66388  -0.65247  -0.63869
 Alpha  occ. eigenvalues --   -0.63229  -0.62648  -0.62174  -0.60624  -0.60539
 Alpha  occ. eigenvalues --   -0.60359  -0.59730  -0.59562  -0.59082  -0.58784
 Alpha  occ. eigenvalues --   -0.58420  -0.57268  -0.57235  -0.56668  -0.54618
 Alpha  occ. eigenvalues --   -0.54521  -0.54303  -0.53830  -0.53568  -0.52754
 Alpha  occ. eigenvalues --   -0.51609  -0.51329  -0.50913  -0.50614  -0.50524
 Alpha  occ. eigenvalues --   -0.50100  -0.49340  -0.48807  -0.48664  -0.48469
 Alpha  occ. eigenvalues --   -0.48233  -0.48164  -0.47852  -0.47766  -0.47486
 Alpha  occ. eigenvalues --   -0.47182  -0.47022  -0.46848  -0.46782  -0.46656
 Alpha  occ. eigenvalues --   -0.46302  -0.45864  -0.45758  -0.45446  -0.45376
 Alpha  occ. eigenvalues --   -0.45114  -0.44934  -0.44728  -0.44508  -0.44265
 Alpha  occ. eigenvalues --   -0.44134  -0.43963  -0.43748  -0.43543  -0.43401
 Alpha  occ. eigenvalues --   -0.43108  -0.42878  -0.42561  -0.42530  -0.42409
 Alpha  occ. eigenvalues --   -0.42265  -0.42226  -0.41929  -0.41817  -0.41363
 Alpha  occ. eigenvalues --   -0.41199  -0.41060  -0.40947  -0.40831  -0.40540
 Alpha  occ. eigenvalues --   -0.40408  -0.40341  -0.40093  -0.39942  -0.39919
 Alpha  occ. eigenvalues --   -0.39676  -0.39417  -0.39091  -0.38889  -0.38826
 Alpha  occ. eigenvalues --   -0.38707  -0.38346  -0.38125  -0.37966  -0.37926
 Alpha  occ. eigenvalues --   -0.37864  -0.37713  -0.37356  -0.37059  -0.36859
 Alpha  occ. eigenvalues --   -0.36743  -0.36691  -0.36649  -0.36422  -0.36058
 Alpha  occ. eigenvalues --   -0.35983  -0.35857  -0.35358  -0.35087  -0.34935
 Alpha  occ. eigenvalues --   -0.34920  -0.34622  -0.34601  -0.34500  -0.34006
 Alpha  occ. eigenvalues --   -0.33259  -0.33025  -0.32937  -0.32563  -0.32367
 Alpha  occ. eigenvalues --   -0.32237  -0.31919  -0.31759  -0.31699  -0.31556
 Alpha  occ. eigenvalues --   -0.31008  -0.30934  -0.30248  -0.30028  -0.29579
 Alpha  occ. eigenvalues --   -0.28934  -0.28848  -0.27535  -0.27484  -0.26616
 Alpha  occ. eigenvalues --   -0.26208  -0.26095  -0.25622  -0.25290  -0.21206
 Alpha  occ. eigenvalues --   -0.18519
 Alpha virt. eigenvalues --   -0.10950  -0.05899  -0.04558  -0.02843  -0.01328
 Alpha virt. eigenvalues --   -0.00290   0.00290   0.00587   0.01235   0.02673
 Alpha virt. eigenvalues --    0.03683   0.04182   0.04917   0.05275   0.05433

 Mulliken charges:
               1
     1  Mg   0.987599
     2  C   -0.005373
     3  C   -0.066019
     4  C   -0.089852
     5  C   -0.088352
     6  N   -0.345142
     7  C    0.037057
     8  C   -0.118462
     9  C   -0.103227
    10  C    0.046161
    11  C    0.026806
    12  C    0.032193
    13  C   -0.044220
    14  C    0.214989
    15  O   -0.296464
    16  O   -0.319268
    17  N   -0.524773
    18  C    0.159817
    19  C   -0.162678
    20  C   -0.088468
    21  C    0.167766
    22  C    0.063897
    23  C    0.040902
    24  O   -0.240414
    25  C   -0.005295
    26  N   -0.388315
    27  C    0.075631
    28  C   -0.090226
    29  C   -0.125976
    30  C    0.074323
    31  C    0.008295
    32  C   -0.013762
    33  C   -0.074307
    34  N   -0.429001
    35  C    0.128637
    36  C   -0.157377
    37  C   -0.065894
    38  C    0.120123
    39  C    0.032848
    40  C    0.167578
    41  O   -0.226260
    42  C   -0.127925
    43  C    0.287843
    44  O   -0.207878
    45  O   -0.404467
    46  C    0.110177
    47  C    0.245607
    48  C   -0.094806
    49  C   -0.204001
    50  C    0.022076
    51  C   -0.029443
    52  C   -0.012061
    53  C    0.003663
    54  C   -0.243612
    55  C    0.009394
    56  C    0.013697
    57  C   -0.079331
    58  C   -0.011052
    59  C   -0.187933
    60  C   -0.028171
    61  C   -0.017867
    62  C   -0.057523
    63  C    0.017277
    64  C   -0.250292
    65  C   -0.003345
    66  C   -0.045408
    67  H    0.005063
    68  H   -0.003770
    69  H   -0.006823
    70  H    0.043877
    71  H    0.046507
    72  H    0.051225
    73  H    0.045722
    74  H    0.047577
    75  H    0.041333
    76  H    0.051715
    77  H    0.083463
    78  H    0.063112
    79  H    0.064547
    80  H    0.053397
    81  H    0.043860
    82  H    0.067116
    83  H    0.068710
    84  H    0.065972
    85  H    0.051783
    86  H    0.043503
    87  H    0.052200
    88  H    0.049481
    89  H    0.042446
    90  H    0.050585
    91  H    0.038553
    92  H    0.040642
    93  H    0.051824
    94  H    0.053246
    95  H    0.044621
    96  H    0.066774
    97  H    0.054097
    98  H    0.091099
    99  H    0.072529
   100  H    0.069115
   101  H    0.046173
   102  H    0.016572
   103  H    0.055972
   104  H    0.018401
   105  H    0.051728
   106  H    0.028761
   107  H    0.046060
   108  H    0.027795
   109  H    0.030421
   110  H    0.033952
   111  H    0.039754
   112  H    0.021393
   113  H    0.021643
   114  H    0.039526
   115  H    0.038818
   116  H    0.035820
   117  H    0.018637
   118  H    0.025689
   119  H    0.012381
   120  H    0.042162
   121  H    0.037664
   122  H    0.032483
   123  H    0.028553
   124  H    0.038899
   125  H    0.026454
   126  H    0.033025
   127  H    0.020411
   128  H    0.036981
   129  H    0.013640
   130  H    0.016666
   131  H    0.020166
   132  H    0.022467
   133  H    0.035024
   134  H    0.032273
   135  H    0.031087
   136  H    0.030754
   137  H    0.054400
   138  H    0.023999
   139  H    0.037320
   140  H    0.050863
 Sum of Mulliken charges =  -0.00000

 Dipole moment (field-independent basis, Debye):
    X=             -0.1390    Y=              6.4945    Z=              1.9717  Tot=              6.7886
 Quadrupole moment (field-independent basis, Debye-Ang):
   XX=           -380.1387   YY=           -462.2930   ZZ=           -379.9167
   XY=             46.7735   XZ=              0.6954   YZ=             21.3244

 Normal termination of Gaussian 16 at Thu May  5 06:34:09 2022.
