 Gaussian 16, Revision A.03,
 Gaussian 16:  ES64L-G16RevA.03 25-Dec-2016

 --------------------------------
 #p wB97XD/Def2SVP td=(nstates=5)
 --------------------------------

 ---------------------------------------------------
 step_701_chromophore_2 TDDFT with wB97XD functional
 ---------------------------------------------------
 Symbolic Z-matrix:
 Charge =  0 Multiplicity = 1

                         Standard orientation:
 ---------------------------------------------------------------------
 Center     Atomic      Atomic             Coordinates (Angstroms)
 Number     Number       Type             X           Y           Z
 ---------------------------------------------------------------------
      1         12           0        4.950403    1.109629   -0.465034
      2          6           0        4.549016   -2.500178   -0.516300
      3          6           0        2.268564    1.378236   -2.516022
      4          6           0        5.096910    4.346177    0.086357
      5          6           0        7.174898    0.585997    2.288700
      6          7           0        3.470575   -0.382463   -1.273499
      7          6           0        3.519337   -1.748160   -1.233180
      8          6           0        2.324117   -2.394496   -1.950896
      9          6           0        1.890673   -1.252572   -2.919126
     10          6           0        2.569016   -0.000302   -2.203762
     11          6           0        2.348833   -1.577974   -4.395086
     12          6           0        1.253833   -2.925904   -0.921354
     13          6           0        0.851843   -4.423186   -0.883227
     14          6           0       -0.544284   -4.809535   -0.429035
     15          8           0       -1.213569   -5.800163   -0.812237
     16          8           0       -0.992295   -3.946253    0.493707
     17          7           0        3.890652    2.628307   -1.201413
     18          6           0        2.867191    2.606269   -2.108409
     19          6           0        2.579005    4.013508   -2.461801
     20          6           0        3.470566    4.867666   -1.917643
     21          6           0        4.220588    3.926029   -0.937663
     22          6           0        1.413630    4.245869   -3.413146
     23          6           0        3.694956    6.367001   -2.207506
     24          8           0        2.976101    6.940543   -3.026062
     25          6           0        4.777827    7.192435   -1.582777
     26          7           0        5.918404    2.238493    1.047083
     27          6           0        5.856314    3.616205    0.988903
     28          6           0        6.643611    4.259319    2.176652
     29          6           0        7.314249    3.035221    2.838421
     30          6           0        6.772048    1.880878    1.984318
     31          6           0        7.589649    5.474069    1.783298
     32          6           0        7.049001    2.874096    4.363792
     33          6           0        8.373157    2.640111    5.157372
     34          7           0        5.793618   -0.574457    0.647911
     35          6           0        6.785943   -0.571124    1.606431
     36          6           0        7.246323   -1.979956    1.824265
     37          6           0        6.379220   -2.774803    0.979932
     38          6           0        5.567975   -1.852192    0.297776
     39          6           0        8.297191   -2.389331    2.803182
     40          6           0        6.110768   -4.138003    0.486454
     41          8           0        6.697377   -5.214776    0.723048
     42          6           0        4.862778   -4.006683   -0.437278
     43          6           0        5.177710   -4.661128   -1.736162
     44          8           0        5.062462   -5.840313   -1.931733
     45          8           0        5.498468   -3.673451   -2.717852
     46          6           0        5.557735   -4.241733   -4.107561
     47          6           0       -2.389830   -4.072138    0.836654
     48          6           0       -2.991075   -2.783671    1.386831
     49          6           0       -3.422378   -2.517238    2.655723
     50          6           0       -3.544577   -3.471880    3.811280
     51          6           0       -4.069590   -1.130489    2.860255
     52          6           0       -5.646545   -1.111162    2.795831
     53          6           0       -6.186274    0.211084    2.372649
     54          6           0       -7.116202    0.078405    1.139134
     55          6           0       -6.388166    0.161395   -0.202422
     56          6           0       -8.284067    1.109794    1.271386
     57          6           0       -9.585395    0.615024    0.599928
     58          6           0      -10.218358    1.758940   -0.255420
     59          6           0      -11.361558    1.126265   -1.066759
     60          6           0      -11.303438    1.583084   -2.601971
     61          6           0      -12.651432    1.615292   -0.435763
     62          6           0      -13.881741    0.779918   -0.881012
     63          6           0      -14.799185    0.172522    0.218178
     64          6           0      -16.146696    0.893006    0.366557
     65          6           0      -16.235116    1.829902    1.578179
     66          6           0      -17.216485   -0.248904    0.304028
     67          1           0        1.399151    1.434466   -3.174870
     68          1           0        5.026259    5.417922    0.284610
     69          1           0        7.906740    0.442905    3.085559
     70          1           0        2.721144   -3.253994   -2.489670
     71          1           0        0.811767   -1.150027   -2.799870
     72          1           0        2.794298   -0.702949   -4.868547
     73          1           0        1.416826   -1.791579   -4.918254
     74          1           0        2.954786   -2.479210   -4.481593
     75          1           0        0.295747   -2.408056   -0.977159
     76          1           0        1.577501   -2.674746    0.089209
     77          1           0        1.537801   -4.911748   -0.191907
     78          1           0        1.011013   -4.872958   -1.863311
     79          1           0        1.353362    5.292668   -3.710170
     80          1           0        0.479533    3.831502   -3.035081
     81          1           0        1.656047    3.681977   -4.313201
     82          1           0        5.667358    6.574676   -1.454895
     83          1           0        4.370808    7.385521   -0.590124
     84          1           0        4.835673    8.154753   -2.090611
     85          1           0        5.891858    4.591691    2.893348
     86          1           0        8.384679    3.000221    2.636107
     87          1           0        7.718441    5.634897    0.713289
     88          1           0        8.525823    5.279729    2.306874
     89          1           0        7.110089    6.385971    2.140650
     90          1           0        6.473478    1.953142    4.463568
     91          1           0        6.431861    3.717178    4.673379
     92          1           0        9.008704    3.482901    4.885148
     93          1           0        8.882342    1.729952    4.843865
     94          1           0        8.127596    2.674657    6.218684
     95          1           0        9.304130   -1.978096    2.721884
     96          1           0        8.388333   -3.448213    2.561059
     97          1           0        8.065644   -2.222153    3.854174
     98          1           0        3.984231   -4.539578   -0.074130
     99          1           0        5.682216   -5.324118   -4.140665
    100          1           0        6.366043   -3.782046   -4.676040
    101          1           0        4.572671   -4.055564   -4.535763
    102          1           0       -2.536715   -4.895528    1.535903
    103          1           0       -3.053010   -4.576858    0.134572
    104          1           0       -3.043401   -1.889164    0.765325
    105          1           0       -2.980082   -3.212122    4.706424
    106          1           0       -3.263364   -4.483727    3.519371
    107          1           0       -4.564836   -3.601680    4.171221
    108          1           0       -3.679275   -0.408851    2.142025
    109          1           0       -3.679099   -0.736310    3.798014
    110          1           0       -5.976746   -1.244142    3.826090
    111          1           0       -6.055316   -1.925958    2.197316
    112          1           0       -5.379242    0.892779    2.103724
    113          1           0       -6.612397    0.719983    3.237196
    114          1           0       -7.576542   -0.908055    1.074965
    115          1           0       -6.663344    1.063667   -0.749155
    116          1           0       -6.489118   -0.763412   -0.769719
    117          1           0       -5.306025    0.244704   -0.099639
    118          1           0       -8.106756    2.143410    0.973695
    119          1           0       -8.440146    1.164185    2.348696
    120          1           0      -10.193887    0.294261    1.444981
    121          1           0       -9.362568   -0.228849   -0.052923
    122          1           0       -9.621703    2.501047   -0.786270
    123          1           0      -10.554296    2.334468    0.606804
    124          1           0      -11.327867    0.038378   -1.115094
    125          1           0      -11.152711    0.714068   -3.241278
    126          1           0      -10.611097    2.389553   -2.844094
    127          1           0      -12.206512    1.936103   -3.100281
    128          1           0      -12.873857    2.677695   -0.534547
    129          1           0      -12.546517    1.337735    0.612785
    130          1           0      -13.508759    0.026392   -1.575004
    131          1           0      -14.440658    1.474880   -1.507636
    132          1           0      -14.260039    0.380740    1.142078
    133          1           0      -14.894379   -0.886394   -0.022595
    134          1           0      -16.332523    1.516399   -0.507396
    135          1           0      -16.315630    1.175828    2.446996
    136          1           0      -17.248235    2.216825    1.467535
    137          1           0      -15.501245    2.634787    1.607960
    138          1           0      -18.174817    0.104693    0.684644
    139          1           0      -16.813898   -0.973110    1.012857
    140          1           0      -17.365788   -0.695364   -0.679348
 ---------------------------------------------------------------------

 SCF Done:  E(RwB97XD) =  -3007.84723318     A.U. after   18 cycles

 Excitation energies and oscillator strengths:

 Excited State   1:      Singlet-A      1.6372 eV  757.27 nm  f=0.3552  <S**2>=0.000
     245 -> 248        0.18983
     246 -> 247        0.68060
     245 <- 248        0.11788
 This state for optimization and/or second-order correction.
 Total Energy, E(TD-HF/TD-DFT) =  -3007.78706564
 Copying the excited state density for this state as the 1-particle RhoCI density.

 Excited State   2:      Singlet-A      2.2043 eV  562.46 nm  f=0.0452  <S**2>=0.000
     245 -> 247        0.59650
     246 -> 248       -0.36675

 Excited State   3:      Singlet-A      3.3581 eV  369.21 nm  f=0.5659  <S**2>=0.000
     244 -> 247       -0.25873
     245 -> 247        0.32274
     246 -> 248        0.55833
     245 <- 247       -0.10597

 Excited State   4:      Singlet-A      3.5657 eV  347.72 nm  f=0.2282  <S**2>=0.000
     242 -> 247        0.14475
     244 -> 247        0.61935
     245 -> 247        0.17327
     246 -> 248        0.20147

 Excited State   5:      Singlet-A      3.5939 eV  344.99 nm  f=0.0146  <S**2>=0.000
     241 -> 247        0.46722
     241 -> 249        0.33062
     241 -> 250        0.22724
     242 -> 247        0.20220
     242 -> 249        0.13445
     242 -> 250        0.10125

 The electronic state is 1-A.
 Alpha  occ. eigenvalues --  -46.96008 -19.31292 -19.30181 -19.25671 -19.24502
 Alpha  occ. eigenvalues --  -19.24447 -19.24336 -14.47602 -14.46832 -14.45382
 Alpha  occ. eigenvalues --  -14.43729 -10.43518 -10.43511 -10.40224 -10.39923
 Alpha  occ. eigenvalues --  -10.36100 -10.35973 -10.35820 -10.35665 -10.35646
 Alpha  occ. eigenvalues --  -10.35634 -10.34913 -10.34395 -10.33501 -10.33310
 Alpha  occ. eigenvalues --  -10.33259 -10.33217 -10.32886 -10.32862 -10.32685
 Alpha  occ. eigenvalues --  -10.32682 -10.32679 -10.32264 -10.32238 -10.31917
 Alpha  occ. eigenvalues --  -10.31791 -10.31513 -10.31210 -10.31140 -10.31021
 Alpha  occ. eigenvalues --  -10.30945 -10.30942 -10.30853 -10.30240 -10.30237
 Alpha  occ. eigenvalues --  -10.30210 -10.29951 -10.29877 -10.29863 -10.29725
 Alpha  occ. eigenvalues --  -10.29652 -10.29627 -10.29547 -10.29240 -10.29164
 Alpha  occ. eigenvalues --  -10.28762 -10.28471 -10.28434 -10.28428 -10.28285
 Alpha  occ. eigenvalues --  -10.28225 -10.28185 -10.28102 -10.28039 -10.28000
 Alpha  occ. eigenvalues --  -10.27652  -3.21998  -1.95556  -1.95127  -1.94972
 Alpha  occ. eigenvalues --   -1.19727  -1.17695  -1.12632  -1.10830  -1.10106
 Alpha  occ. eigenvalues --   -1.08653  -1.06977  -1.06256  -1.05699  -1.04561
 Alpha  occ. eigenvalues --   -0.94237  -0.92344  -0.91596  -0.91380  -0.91268
 Alpha  occ. eigenvalues --   -0.90759  -0.90470  -0.89431  -0.89341  -0.88725
 Alpha  occ. eigenvalues --   -0.88042  -0.87682  -0.86295  -0.85856  -0.85540
 Alpha  occ. eigenvalues --   -0.84743  -0.84151  -0.83235  -0.82568  -0.82070
 Alpha  occ. eigenvalues --   -0.81321  -0.79930  -0.79754  -0.79518  -0.78565
 Alpha  occ. eigenvalues --   -0.78265  -0.77522  -0.77359  -0.76784  -0.75763
 Alpha  occ. eigenvalues --   -0.74976  -0.74167  -0.73933  -0.72851  -0.71404
 Alpha  occ. eigenvalues --   -0.70762  -0.70274  -0.69804  -0.68157  -0.68100
 Alpha  occ. eigenvalues --   -0.67908  -0.67206  -0.66994  -0.66739  -0.66209
 Alpha  occ. eigenvalues --   -0.66073  -0.64904  -0.64682  -0.64337  -0.62132
 Alpha  occ. eigenvalues --   -0.61995  -0.61765  -0.61214  -0.60949  -0.60142
 Alpha  occ. eigenvalues --   -0.59084  -0.58822  -0.58336  -0.58104  -0.57930
 Alpha  occ. eigenvalues --   -0.57480  -0.56702  -0.56268  -0.56030  -0.55823
 Alpha  occ. eigenvalues --   -0.55718  -0.55606  -0.55231  -0.55173  -0.54852
 Alpha  occ. eigenvalues --   -0.54554  -0.54432  -0.54357  -0.54132  -0.54070
 Alpha  occ. eigenvalues --   -0.53686  -0.53188  -0.53023  -0.52777  -0.52706
 Alpha  occ. eigenvalues --   -0.52471  -0.52354  -0.52012  -0.51931  -0.51665
 Alpha  occ. eigenvalues --   -0.51460  -0.51281  -0.51051  -0.50825  -0.50635
 Alpha  occ. eigenvalues --   -0.50407  -0.50156  -0.49829  -0.49790  -0.49678
 Alpha  occ. eigenvalues --   -0.49597  -0.49489  -0.49241  -0.49088  -0.48595
 Alpha  occ. eigenvalues --   -0.48337  -0.48293  -0.48176  -0.47952  -0.47735
 Alpha  occ. eigenvalues --   -0.47650  -0.47585  -0.47304  -0.47206  -0.47028
 Alpha  occ. eigenvalues --   -0.46806  -0.46523  -0.46193  -0.46041  -0.45908
 Alpha  occ. eigenvalues --   -0.45842  -0.45431  -0.45264  -0.45170  -0.45122
 Alpha  occ. eigenvalues --   -0.45007  -0.44887  -0.44402  -0.44141  -0.44068
 Alpha  occ. eigenvalues --   -0.43867  -0.43835  -0.43722  -0.43557  -0.43115
 Alpha  occ. eigenvalues --   -0.43032  -0.42923  -0.42433  -0.42000  -0.41980
 Alpha  occ. eigenvalues --   -0.41917  -0.41614  -0.41593  -0.41543  -0.40986
 Alpha  occ. eigenvalues --   -0.40324  -0.40014  -0.39987  -0.39501  -0.39433
 Alpha  occ. eigenvalues --   -0.39293  -0.38948  -0.38835  -0.38747  -0.38604
 Alpha  occ. eigenvalues --   -0.38030  -0.37942  -0.37313  -0.36933  -0.36374
 Alpha  occ. eigenvalues --   -0.35993  -0.35503  -0.34330  -0.34281  -0.33650
 Alpha  occ. eigenvalues --   -0.33209  -0.33023  -0.32315  -0.31687  -0.26262
 Alpha  occ. eigenvalues --   -0.22624
 Alpha virt. eigenvalues --   -0.06717  -0.00565   0.01697   0.03619   0.04583
 Alpha virt. eigenvalues --    0.06481   0.07035   0.07336   0.08053   0.09272
 Alpha virt. eigenvalues --    0.10135   0.11030   0.11520   0.11962   0.12124

 Mulliken charges:
               1
     1  Mg   0.979730
     2  C   -0.005799
     3  C   -0.074843
     4  C   -0.106075
     5  C   -0.106210
     6  N   -0.310903
     7  C    0.005689
     8  C   -0.084527
     9  C   -0.077707
    10  C    0.027355
    11  C    0.044756
    12  C    0.038816
    13  C   -0.027523
    14  C    0.206579
    15  O   -0.294164
    16  O   -0.318854
    17  N   -0.493540
    18  C    0.149717
    19  C   -0.149450
    20  C   -0.086160
    21  C    0.166046
    22  C    0.075191
    23  C    0.036310
    24  O   -0.235743
    25  C    0.010155
    26  N   -0.355227
    27  C    0.067411
    28  C   -0.067063
    29  C   -0.103043
    30  C    0.064268
    31  C    0.021676
    32  C    0.000662
    33  C   -0.054224
    34  N   -0.391078
    35  C    0.119273
    36  C   -0.156366
    37  C   -0.063776
    38  C    0.100160
    39  C    0.042061
    40  C    0.151147
    41  O   -0.216572
    42  C   -0.085355
    43  C    0.267370
    44  O   -0.204229
    45  O   -0.404811
    46  C    0.128478
    47  C    0.259235
    48  C   -0.101737
    49  C   -0.190078
    50  C    0.033947
    51  C   -0.006603
    52  C    0.001795
    53  C    0.019415
    54  C   -0.210298
    55  C    0.016391
    56  C    0.027902
    57  C   -0.061106
    58  C    0.004557
    59  C   -0.155916
    60  C   -0.020798
    61  C    0.002614
    62  C   -0.043393
    63  C    0.034831
    64  C   -0.224484
    65  C    0.011274
    66  C   -0.029321
    67  H    0.000683
    68  H   -0.016336
    69  H   -0.017551
    70  H    0.020724
    71  H    0.037456
    72  H    0.045352
    73  H    0.040385
    74  H    0.034210
    75  H    0.032016
    76  H    0.044053
    77  H    0.075754
    78  H    0.057991
    79  H    0.061486
    80  H    0.049375
    81  H    0.037933
    82  H    0.059900
    83  H    0.063593
    84  H    0.065772
    85  H    0.040583
    86  H    0.030556
    87  H    0.045689
    88  H    0.043637
    89  H    0.036884
    90  H    0.040822
    91  H    0.031146
    92  H    0.031709
    93  H    0.045334
    94  H    0.048403
    95  H    0.039428
    96  H    0.061531
    97  H    0.049037
    98  H    0.081374
    99  H    0.068840
   100  H    0.065860
   101  H    0.039682
   102  H    0.009997
   103  H    0.051527
   104  H    0.014376
   105  H    0.047274
   106  H    0.022162
   107  H    0.040525
   108  H    0.016259
   109  H    0.023084
   110  H    0.025999
   111  H    0.029747
   112  H    0.010704
   113  H    0.014763
   114  H    0.024940
   115  H    0.032750
   116  H    0.031342
   117  H    0.010805
   118  H    0.016713
   119  H    0.002159
   120  H    0.035083
   121  H    0.025269
   122  H    0.025276
   123  H    0.016796
   124  H    0.027431
   125  H    0.020855
   126  H    0.027546
   127  H    0.014067
   128  H    0.030306
   129  H   -0.003591
   130  H    0.007739
   131  H    0.009763
   132  H    0.010525
   133  H    0.027893
   134  H    0.019995
   135  H    0.023841
   136  H    0.023522
   137  H    0.049533
   138  H    0.018247
   139  H    0.027998
   140  H    0.045636
 Sum of Mulliken charges =  -0.00000

 Dipole moment (field-independent basis, Debye):
    X=             -0.2321    Y=              6.7732    Z=              1.7043  Tot=              6.9882
 Quadrupole moment (field-independent basis, Debye-Ang):
   XX=           -381.0335   YY=           -461.1515   ZZ=           -379.4749
   XY=             47.4659   XZ=             -0.9666   YZ=             20.5966

 Normal termination of Gaussian 16 at Thu May  5 07:08:50 2022.
