 Gaussian 16, Revision A.03,
 Gaussian 16:  ES64L-G16RevA.03 25-Dec-2016

 --------------------
 #p ZINDO=(nstates=5)
 --------------------

 ----------------------------
 step_701_chromophore_2 ZINDO
 ----------------------------
 Symbolic Z-matrix:
 Charge =  0 Multiplicity = 1

                         Standard orientation:
 ---------------------------------------------------------------------
 Center     Atomic      Atomic             Coordinates (Angstroms)
 Number     Number       Type             X           Y           Z
 ---------------------------------------------------------------------
      1         12           0        4.950403    1.109629   -0.465034
      2          6           0        4.549016   -2.500178   -0.516300
      3          6           0        2.268564    1.378236   -2.516022
      4          6           0        5.096910    4.346177    0.086357
      5          6           0        7.174898    0.585997    2.288700
      6          7           0        3.470575   -0.382463   -1.273499
      7          6           0        3.519337   -1.748160   -1.233180
      8          6           0        2.324117   -2.394496   -1.950896
      9          6           0        1.890673   -1.252572   -2.919126
     10          6           0        2.569016   -0.000302   -2.203762
     11          6           0        2.348833   -1.577974   -4.395086
     12          6           0        1.253833   -2.925904   -0.921354
     13          6           0        0.851843   -4.423186   -0.883227
     14          6           0       -0.544284   -4.809535   -0.429035
     15          8           0       -1.213569   -5.800163   -0.812237
     16          8           0       -0.992295   -3.946253    0.493707
     17          7           0        3.890652    2.628307   -1.201413
     18          6           0        2.867191    2.606269   -2.108409
     19          6           0        2.579005    4.013508   -2.461801
     20          6           0        3.470566    4.867666   -1.917643
     21          6           0        4.220588    3.926029   -0.937663
     22          6           0        1.413630    4.245869   -3.413146
     23          6           0        3.694956    6.367001   -2.207506
     24          8           0        2.976101    6.940543   -3.026062
     25          6           0        4.777827    7.192435   -1.582777
     26          7           0        5.918404    2.238493    1.047083
     27          6           0        5.856314    3.616205    0.988903
     28          6           0        6.643611    4.259319    2.176652
     29          6           0        7.314249    3.035221    2.838421
     30          6           0        6.772048    1.880878    1.984318
     31          6           0        7.589649    5.474069    1.783298
     32          6           0        7.049001    2.874096    4.363792
     33          6           0        8.373157    2.640111    5.157372
     34          7           0        5.793618   -0.574457    0.647911
     35          6           0        6.785943   -0.571124    1.606431
     36          6           0        7.246323   -1.979956    1.824265
     37          6           0        6.379220   -2.774803    0.979932
     38          6           0        5.567975   -1.852192    0.297776
     39          6           0        8.297191   -2.389331    2.803182
     40          6           0        6.110768   -4.138003    0.486454
     41          8           0        6.697377   -5.214776    0.723048
     42          6           0        4.862778   -4.006683   -0.437278
     43          6           0        5.177710   -4.661128   -1.736162
     44          8           0        5.062462   -5.840313   -1.931733
     45          8           0        5.498468   -3.673451   -2.717852
     46          6           0        5.557735   -4.241733   -4.107561
     47          6           0       -2.389830   -4.072138    0.836654
     48          6           0       -2.991075   -2.783671    1.386831
     49          6           0       -3.422378   -2.517238    2.655723
     50          6           0       -3.544577   -3.471880    3.811280
     51          6           0       -4.069590   -1.130489    2.860255
     52          6           0       -5.646545   -1.111162    2.795831
     53          6           0       -6.186274    0.211084    2.372649
     54          6           0       -7.116202    0.078405    1.139134
     55          6           0       -6.388166    0.161395   -0.202422
     56          6           0       -8.284067    1.109794    1.271386
     57          6           0       -9.585395    0.615024    0.599928
     58          6           0      -10.218358    1.758940   -0.255420
     59          6           0      -11.361558    1.126265   -1.066759
     60          6           0      -11.303438    1.583084   -2.601971
     61          6           0      -12.651432    1.615292   -0.435763
     62          6           0      -13.881741    0.779918   -0.881012
     63          6           0      -14.799185    0.172522    0.218178
     64          6           0      -16.146696    0.893006    0.366557
     65          6           0      -16.235116    1.829902    1.578179
     66          6           0      -17.216485   -0.248904    0.304028
     67          1           0        1.399151    1.434466   -3.174870
     68          1           0        5.026259    5.417922    0.284610
     69          1           0        7.906740    0.442905    3.085559
     70          1           0        2.721144   -3.253994   -2.489670
     71          1           0        0.811767   -1.150027   -2.799870
     72          1           0        2.794298   -0.702949   -4.868547
     73          1           0        1.416826   -1.791579   -4.918254
     74          1           0        2.954786   -2.479210   -4.481593
     75          1           0        0.295747   -2.408056   -0.977159
     76          1           0        1.577501   -2.674746    0.089209
     77          1           0        1.537801   -4.911748   -0.191907
     78          1           0        1.011013   -4.872958   -1.863311
     79          1           0        1.353362    5.292668   -3.710170
     80          1           0        0.479533    3.831502   -3.035081
     81          1           0        1.656047    3.681977   -4.313201
     82          1           0        5.667358    6.574676   -1.454895
     83          1           0        4.370808    7.385521   -0.590124
     84          1           0        4.835673    8.154753   -2.090611
     85          1           0        5.891858    4.591691    2.893348
     86          1           0        8.384679    3.000221    2.636107
     87          1           0        7.718441    5.634897    0.713289
     88          1           0        8.525823    5.279729    2.306874
     89          1           0        7.110089    6.385971    2.140650
     90          1           0        6.473478    1.953142    4.463568
     91          1           0        6.431861    3.717178    4.673379
     92          1           0        9.008704    3.482901    4.885148
     93          1           0        8.882342    1.729952    4.843865
     94          1           0        8.127596    2.674657    6.218684
     95          1           0        9.304130   -1.978096    2.721884
     96          1           0        8.388333   -3.448213    2.561059
     97          1           0        8.065644   -2.222153    3.854174
     98          1           0        3.984231   -4.539578   -0.074130
     99          1           0        5.682216   -5.324118   -4.140665
    100          1           0        6.366043   -3.782046   -4.676040
    101          1           0        4.572671   -4.055564   -4.535763
    102          1           0       -2.536715   -4.895528    1.535903
    103          1           0       -3.053010   -4.576858    0.134572
    104          1           0       -3.043401   -1.889164    0.765325
    105          1           0       -2.980082   -3.212122    4.706424
    106          1           0       -3.263364   -4.483727    3.519371
    107          1           0       -4.564836   -3.601680    4.171221
    108          1           0       -3.679275   -0.408851    2.142025
    109          1           0       -3.679099   -0.736310    3.798014
    110          1           0       -5.976746   -1.244142    3.826090
    111          1           0       -6.055316   -1.925958    2.197316
    112          1           0       -5.379242    0.892779    2.103724
    113          1           0       -6.612397    0.719983    3.237196
    114          1           0       -7.576542   -0.908055    1.074965
    115          1           0       -6.663344    1.063667   -0.749155
    116          1           0       -6.489118   -0.763412   -0.769719
    117          1           0       -5.306025    0.244704   -0.099639
    118          1           0       -8.106756    2.143410    0.973695
    119          1           0       -8.440146    1.164185    2.348696
    120          1           0      -10.193887    0.294261    1.444981
    121          1           0       -9.362568   -0.228849   -0.052923
    122          1           0       -9.621703    2.501047   -0.786270
    123          1           0      -10.554296    2.334468    0.606804
    124          1           0      -11.327867    0.038378   -1.115094
    125          1           0      -11.152711    0.714068   -3.241278
    126          1           0      -10.611097    2.389553   -2.844094
    127          1           0      -12.206512    1.936103   -3.100281
    128          1           0      -12.873857    2.677695   -0.534547
    129          1           0      -12.546517    1.337735    0.612785
    130          1           0      -13.508759    0.026392   -1.575004
    131          1           0      -14.440658    1.474880   -1.507636
    132          1           0      -14.260039    0.380740    1.142078
    133          1           0      -14.894379   -0.886394   -0.022595
    134          1           0      -16.332523    1.516399   -0.507396
    135          1           0      -16.315630    1.175828    2.446996
    136          1           0      -17.248235    2.216825    1.467535
    137          1           0      -15.501245    2.634787    1.607960
    138          1           0      -18.174817    0.104693    0.684644
    139          1           0      -16.813898   -0.973110    1.012857
    140          1           0      -17.365788   -0.695364   -0.679348
 ---------------------------------------------------------------------

 SCF Done:  E(RZINDO/S) =  -473.998299919     A.U. after   20 cycles

 Excitation energies and oscillator strengths:

 Excited State   1:      Singlet-A      1.2708 eV  975.62 nm  f=0.5644  <S**2>=0.000
     175 ->178        -0.18985
     176 ->177         0.66193
 This state for optimization and/or second-order correction.
 Total Energy, E(CIS/TDA) =  -473.951598125
 Copying the excited state density for this state as the 1-particle RhoCI density.

 Excited State   2:      Singlet-A      1.8676 eV  663.88 nm  f=0.0003  <S**2>=0.000
     175 ->177         0.46906
     176 ->178         0.50597

 Excited State   3:      Singlet-A      2.8598 eV  433.54 nm  f=0.1705  <S**2>=0.000
     175 ->177         0.17524
     176 ->178        -0.18830
     176 ->179         0.51439
     176 ->181         0.35936

 Excited State   4:      Singlet-A      2.9138 eV  425.51 nm  f=0.4552  <S**2>=0.000
     175 ->177        -0.31328
     176 ->178         0.28508
     176 ->179         0.38622
     176 ->180         0.29313
     176 ->181        -0.21726

 Excited State   5:      Singlet-A      2.9741 eV  416.87 nm  f=0.4764  <S**2>=0.000
     175 ->177        -0.30111
     176 ->178         0.30187
     176 ->179        -0.10507
     176 ->180        -0.13300
     176 ->181         0.48900

 The electronic state is 1-A.
 Alpha  occ. eigenvalues --   -1.82849  -1.80849  -1.80046  -1.74438  -1.70915
 Alpha  occ. eigenvalues --   -1.69795  -1.65817  -1.61918  -1.60245  -1.55835
 Alpha  occ. eigenvalues --   -1.55658  -1.50636  -1.48872  -1.47416  -1.45790
 Alpha  occ. eigenvalues --   -1.43931  -1.43853  -1.40372  -1.39607  -1.37501
 Alpha  occ. eigenvalues --   -1.35745  -1.33261  -1.31834  -1.31359  -1.28508
 Alpha  occ. eigenvalues --   -1.27223  -1.26232  -1.23453  -1.20574  -1.17695
 Alpha  occ. eigenvalues --   -1.16777  -1.16324  -1.15712  -1.14306  -1.13722
 Alpha  occ. eigenvalues --   -1.13121  -1.10468  -1.09517  -1.05498  -1.03929
 Alpha  occ. eigenvalues --   -1.02654  -1.01012  -0.99233  -0.97670  -0.97246
 Alpha  occ. eigenvalues --   -0.96560  -0.94660  -0.94506  -0.93159  -0.92846
 Alpha  occ. eigenvalues --   -0.90461  -0.90051  -0.88998  -0.88348  -0.87430
 Alpha  occ. eigenvalues --   -0.86431  -0.85452  -0.83323  -0.82888  -0.81467
 Alpha  occ. eigenvalues --   -0.80391  -0.79645  -0.77586  -0.77068  -0.76389
 Alpha  occ. eigenvalues --   -0.75704  -0.75525  -0.74516  -0.74001  -0.73402
 Alpha  occ. eigenvalues --   -0.73027  -0.72190  -0.72068  -0.71241  -0.71167
 Alpha  occ. eigenvalues --   -0.70782  -0.69769  -0.69208  -0.69004  -0.68254
 Alpha  occ. eigenvalues --   -0.67893  -0.67483  -0.67099  -0.66346  -0.65426
 Alpha  occ. eigenvalues --   -0.65265  -0.64758  -0.64388  -0.63880  -0.63600
 Alpha  occ. eigenvalues --   -0.63218  -0.62930  -0.62588  -0.62470  -0.61977
 Alpha  occ. eigenvalues --   -0.61818  -0.61577  -0.60979  -0.60525  -0.60077
 Alpha  occ. eigenvalues --   -0.59833  -0.59505  -0.59252  -0.58349  -0.58234
 Alpha  occ. eigenvalues --   -0.57796  -0.57418  -0.57061  -0.56626  -0.56223
 Alpha  occ. eigenvalues --   -0.56076  -0.55817  -0.55249  -0.55025  -0.54689
 Alpha  occ. eigenvalues --   -0.54464  -0.54188  -0.53968  -0.53560  -0.53102
 Alpha  occ. eigenvalues --   -0.52776  -0.52550  -0.52447  -0.52053  -0.51782
 Alpha  occ. eigenvalues --   -0.51654  -0.51436  -0.51302  -0.50892  -0.50813
 Alpha  occ. eigenvalues --   -0.50341  -0.50238  -0.49837  -0.49805  -0.49274
 Alpha  occ. eigenvalues --   -0.49178  -0.48885  -0.48732  -0.48517  -0.48244
 Alpha  occ. eigenvalues --   -0.47792  -0.47666  -0.47030  -0.46686  -0.46664
 Alpha  occ. eigenvalues --   -0.46516  -0.46364  -0.46076  -0.45693  -0.45452
 Alpha  occ. eigenvalues --   -0.45038  -0.44804  -0.44732  -0.44662  -0.44211
 Alpha  occ. eigenvalues --   -0.43691  -0.43586  -0.43101  -0.42996  -0.42665
 Alpha  occ. eigenvalues --   -0.42393  -0.41279  -0.39541  -0.39224  -0.38888
 Alpha  occ. eigenvalues --   -0.38430  -0.37403  -0.36553  -0.35272  -0.35194
 Alpha  occ. eigenvalues --   -0.34761  -0.32890  -0.32719  -0.32141  -0.27034
 Alpha  occ. eigenvalues --   -0.21609
 Alpha virt. eigenvalues --   -0.08187  -0.03043  -0.01065   0.00628   0.00790
 Alpha virt. eigenvalues --    0.01641   0.02495   0.02703   0.04090   0.04222
 Alpha virt. eigenvalues --    0.05564   0.05689   0.06512   0.06954   0.07315

 Mulliken charges:
               1
     1  Mg   0.434918
     2  C   -0.058628
     3  C   -0.081155
     4  C   -0.097690
     5  C   -0.075562
     6  N   -0.259995
     7  C    0.097767
     8  C    0.004980
     9  C    0.006717
    10  C    0.134507
    11  C   -0.047763
    12  C   -0.028055
    13  C    0.007612
    14  C    0.472653
    15  O   -0.534963
    16  O   -0.245646
    17  N   -0.305622
    18  C    0.110197
    19  C    0.064532
    20  C   -0.041959
    21  C    0.131489
    22  C   -0.045035
    23  C    0.334409
    24  O   -0.522101
    25  C   -0.024741
    26  N   -0.265133
    27  C    0.132583
    28  C   -0.003105
    29  C   -0.006048
    30  C    0.122459
    31  C   -0.054132
    32  C   -0.033681
    33  C   -0.056578
    34  N   -0.323354
    35  C    0.079702
    36  C    0.006300
    37  C   -0.059391
    38  C    0.099958
    39  C   -0.040301
    40  C    0.337533
    41  O   -0.515930
    42  C    0.065984
    43  C    0.484678
    44  O   -0.489285
    45  O   -0.289286
    46  C    0.068085
    47  C    0.097150
    48  C   -0.093195
    49  C   -0.001740
    50  C   -0.039017
    51  C   -0.028223
    52  C   -0.025946
    53  C   -0.028547
    54  C   -0.008800
    55  C   -0.056752
    56  C   -0.047316
    57  C   -0.037598
    58  C   -0.044627
    59  C   -0.002829
    60  C   -0.076043
    61  C   -0.032749
    62  C   -0.053504
    63  C   -0.035294
    64  C   -0.011997
    65  C   -0.056713
    66  C   -0.060097
    67  H    0.020854
    68  H    0.020846
    69  H    0.025589
    70  H    0.030334
    71  H    0.034644
    72  H    0.028287
    73  H    0.016877
    74  H    0.036189
    75  H    0.022946
    76  H    0.022676
    77  H    0.048381
    78  H    0.039132
    79  H    0.042019
    80  H    0.034790
    81  H    0.025441
    82  H    0.040061
    83  H    0.039551
    84  H    0.051879
    85  H    0.033617
    86  H    0.029978
    87  H    0.028584
    88  H    0.027580
    89  H    0.017962
    90  H    0.021751
    91  H    0.028026
    92  H    0.015382
    93  H    0.031049
    94  H    0.022623
    95  H    0.028079
    96  H    0.028554
    97  H    0.031495
    98  H    0.063841
    99  H    0.053580
   100  H    0.040081
   101  H    0.031918
   102  H    0.036244
   103  H    0.059021
   104  H    0.031432
   105  H    0.030897
   106  H    0.018145
   107  H    0.024779
   108  H    0.018018
   109  H    0.017847
   110  H    0.013413
   111  H    0.029396
   112  H    0.014010
   113  H    0.018005
   114  H    0.021962
   115  H    0.021370
   116  H    0.020064
   117  H    0.009844
   118  H    0.025007
   119  H    0.006627
   120  H    0.027186
   121  H    0.018402
   122  H    0.036307
   123  H    0.010561
   124  H    0.033969
   125  H    0.012077
   126  H    0.021222
   127  H    0.014341
   128  H    0.030054
   129  H    0.008406
   130  H    0.014945
   131  H    0.010348
   132  H    0.021031
   133  H    0.026618
   134  H    0.013914
   135  H    0.022333
   136  H    0.010633
   137  H    0.034154
   138  H    0.011024
   139  H    0.017239
   140  H    0.026470
 Sum of Mulliken charges =  -0.00000

 Dipole moment (field-independent basis, Debye):
    X=             -0.4959    Y=              9.8305    Z=              1.8737  Tot=             10.0198
 N-N= 4.280546464624D+03 E-N= 0.000000000000D+00  KE=-9.234305888049D+03
 Leave Link  601 at Thu May  5 07:26:29 2022, MaxMem=  6710886400 cpu:               0.7 elap:               0.0
 (Enter /sw/apps/gaussian-16.0/g16/l9999.exe)
 1\1\GINC-BP1-COMPUTE135\SP\RZINDO CIS\STO-3G\C55H74Mg1N4O6\OF15641\05-
 May-2022\0\\#p ZINDO=(nstates=5)\\step_701_chromophore_2 ZINDO\\0,1\Mg
 ,0,2.721,0.153,44.702\C,0,5.631,2.199,43.967\C,0,0.846,2.243,42.808\C,
 0,0.304,-2.053,45.006\C,0,5.038,-2.285,45.924\N,0,3.221,1.914,43.391\C
 ,0,4.4,2.598,43.285\C,0,4.303,3.776,42.303\C,0,2.769,4.052,42.302\C,0,
 2.229,2.659,42.857\C,0,2.441,5.344,43.149\C,0,4.985,3.432,40.923\C,0,6
 .163,4.28,40.377\C,0,6.365,4.398,38.877\O,0,6.848,5.377,38.257\O,0,5.9

 Normal termination of Gaussian 16 at Thu May  5 07:26:29 2022.
