 Gaussian 16, Revision A.03,
 Gaussian 16:  ES64L-G16RevA.03 25-Dec-2016

 ------------------------------
 #p blyp/Def2SVP td=(nstates=5)
 ------------------------------

 -------------------------------------------------
 step_701_chromophore_3 TDDFT with blyp functional
 -------------------------------------------------
 Symbolic Z-matrix:
 Charge =  0 Multiplicity = 1

                         Standard orientation:
 ---------------------------------------------------------------------
 Center     Atomic      Atomic             Coordinates (Angstroms)
 Number     Number       Type             X           Y           Z
 ---------------------------------------------------------------------
      1         12           0       -5.267421    0.779166   -0.288089
      2          6           0       -4.419265   -2.548041   -0.045588
      3          6           0       -1.959138    1.710044   -0.266639
      4          6           0       -6.204918    4.004109    0.031041
      5          6           0       -8.649613   -0.124631    0.223369
      6          7           0       -3.445898   -0.328328   -0.418134
      7          6           0       -3.292122   -1.700429   -0.311448
      8          6           0       -1.860117   -2.100532   -0.559811
      9          6           0       -1.071701   -0.675664   -0.523233
     10          6           0       -2.219073    0.349804   -0.413201
     11          6           0       -0.025045   -0.555082    0.619894
     12          6           0       -1.640067   -2.920957   -1.912807
     13          6           0       -0.525791   -3.926492   -1.840462
     14          6           0        0.648884   -3.670975   -0.873826
     15          8           0        0.817756   -4.152861    0.271230
     16          8           0        1.473942   -2.749675   -1.433998
     17          7           0       -4.218935    2.551541   -0.091352
     18          6           0       -2.856343    2.741278   -0.107574
     19          6           0       -2.588685    4.076233    0.272376
     20          6           0       -3.794853    4.795441    0.319038
     21          6           0       -4.813693    3.787564    0.090291
     22          6           0       -1.184079    4.541423    0.495032
     23          6           0       -4.043965    6.272646    0.554729
     24          8           0       -5.194703    6.690470    0.386035
     25          6           0       -2.938001    7.239600    0.819277
     26          7           0       -7.221595    1.775421    0.036806
     27          6           0       -7.286049    3.097055   -0.032320
     28          6           0       -8.758900    3.568999    0.117374
     29          6           0       -9.568877    2.306875   -0.038822
     30          6           0       -8.440525    1.229083    0.044600
     31          6           0       -9.084390    4.305602    1.446937
     32          6           0      -10.341317    2.170683   -1.345343
     33          6           0      -11.750278    1.668589   -1.275711
     34          7           0       -6.339256   -0.914730    0.111389
     35          6           0       -7.713352   -1.146077    0.344210
     36          6           0       -7.875241   -2.544931    0.648269
     37          6           0       -6.578679   -3.113929    0.534474
     38          6           0       -5.735012   -2.125031    0.098294
     39          6           0       -9.144245   -3.320438    0.987349
     40          6           0       -5.845163   -4.354940    0.581537
     41          8           0       -6.102562   -5.506443    0.796622
     42          6           0       -4.364352   -4.032535    0.251257
     43          6           0       -3.680274   -4.295259    1.574942
     44          8           0       -3.994517   -3.786842    2.616211
     45          8           0       -2.631412   -5.209376    1.370091
     46          6           0       -1.878617   -5.472535    2.578339
     47          6           0        2.816741   -2.632386   -0.882505
     48          6           0        3.678477   -2.162409   -1.966975
     49          6           0        5.052399   -2.276863   -2.026313
     50          6           0        5.837716   -3.051849   -1.046472
     51          6           0        5.892553   -1.861158   -3.214488
     52          6           0        6.524636   -0.428048   -3.274399
     53          6           0        8.039316   -0.319266   -3.618364
     54          6           0        8.941826    0.437006   -2.530174
     55          6           0        8.776366   -0.257862   -1.163438
     56          6           0       10.516063    0.610772   -2.846138
     57          6           0       11.084688    1.916634   -2.164462
     58          6           0       12.592139    1.722055   -1.887456
     59          6           0       13.017859    2.363137   -0.498997
     60          6           0       14.016185    3.517978   -0.327298
     61          6           0       13.324108    1.311566    0.646890
     62          6           0       12.528208    1.523541    1.920793
     63          6           0       12.687657    0.329330    2.836167
     64          6           0       12.244244    0.444232    4.331699
     65          6           0       13.412751   -0.072189    5.184539
     66          6           0       10.876232   -0.245812    4.661209
     67          1           0       -0.905141    1.973658   -0.377094
     68          1           0       -6.575874    5.031038    0.049462
     69          1           0       -9.698114   -0.381581    0.384127
     70          1           0       -1.613466   -2.667688    0.337681
     71          1           0       -0.576296   -0.597081   -1.490748
     72          1           0        0.125103    0.472426    0.951079
     73          1           0        0.969274   -1.001610    0.593570
     74          1           0       -0.415803   -0.957759    1.554526
     75          1           0       -1.411832   -2.314692   -2.788885
     76          1           0       -2.590245   -3.388016   -2.172644
     77          1           0       -0.058203   -3.762736   -2.811412
     78          1           0       -0.905358   -4.931446   -1.652636
     79          1           0       -1.149029    4.841906    1.542026
     80          1           0       -0.773853    5.356213   -0.100864
     81          1           0       -0.452315    3.733490    0.476080
     82          1           0       -2.360406    7.310392   -0.102194
     83          1           0       -2.353027    7.084649    1.725478
     84          1           0       -3.429886    8.197604    0.986557
     85          1           0       -9.080532    4.239162   -0.680230
     86          1           0      -10.330984    2.239515    0.737871
     87          1           0       -8.197489    4.016262    2.009940
     88          1           0       -9.958852    3.889728    1.948007
     89          1           0       -9.232541    5.384899    1.435903
     90          1           0       -9.796332    1.383480   -1.865312
     91          1           0      -10.239077    3.074584   -1.946807
     92          1           0      -12.466305    2.442291   -1.552952
     93          1           0      -11.991501    1.278951   -0.286625
     94          1           0      -11.838271    0.852479   -1.992811
     95          1           0       -9.685689   -3.708928    0.124976
     96          1           0       -9.901824   -2.546705    1.118439
     97          1           0       -9.137849   -3.966511    1.864852
     98          1           0       -3.927902   -4.669340   -0.518854
     99          1           0       -2.337588   -6.314731    3.097849
    100          1           0       -1.784523   -4.743137    3.382419
    101          1           0       -0.905102   -5.763782    2.184150
    102          1           0        3.124422   -3.654385   -0.662789
    103          1           0        2.790406   -1.865765   -0.108048
    104          1           0        3.105862   -1.842395   -2.837334
    105          1           0        5.215081   -3.308570   -0.189436
    106          1           0        6.673098   -2.551595   -0.556475
    107          1           0        6.145514   -3.956638   -1.570390
    108          1           0        5.290031   -2.077130   -4.096404
    109          1           0        6.787590   -2.473101   -3.330267
    110          1           0        6.364744    0.031776   -2.299558
    111          1           0        5.927704    0.057025   -4.047794
    112          1           0        8.125682    0.207976   -4.569101
    113          1           0        8.560990   -1.275735   -3.665074
    114          1           0        8.434158    1.389041   -2.377256
    115          1           0        8.083346    0.367175   -0.599306
    116          1           0        9.709011   -0.367042   -0.609643
    117          1           0        8.501616   -1.285039   -1.403720
    118          1           0       10.653635    0.764316   -3.917242
    119          1           0       11.052199   -0.318184   -2.652043
    120          1           0       10.559163    2.207710   -1.254939
    121          1           0       10.976155    2.735598   -2.875829
    122          1           0       13.116129    2.268086   -2.673045
    123          1           0       12.892717    0.675128   -1.913945
    124          1           0       12.066213    2.782818   -0.170932
    125          1           0       14.170266    3.905022   -1.334151
    126          1           0       15.038333    3.300955   -0.017192
    127          1           0       13.678908    4.253899    0.402443
    128          1           0       14.374825    1.331641    0.934786
    129          1           0       12.997729    0.324371    0.319104
    130          1           0       11.509631    1.776762    1.627507
    131          1           0       12.947026    2.315388    2.541563
    132          1           0       13.756766    0.115601    2.819114
    133          1           0       12.187759   -0.460462    2.275512
    134          1           0       11.969601    1.463298    4.601458
    135          1           0       13.991059    0.680781    5.719796
    136          1           0       14.288976   -0.542233    4.736644
    137          1           0       12.981892   -0.715112    5.952334
    138          1           0       10.910128   -1.126271    5.301627
    139          1           0       10.346875   -0.546619    3.756913
    140          1           0       10.258572    0.475667    5.196793
 ---------------------------------------------------------------------

 SCF Done:  E(RB-LYP) =  -3007.35968027     A.U. after   21 cycles

 Excitation energies and oscillator strengths:

 Excited State   1:      Singlet-A      1.8250 eV  679.35 nm  f=0.0234  <S**2>=0.000
     244 -> 247        0.61937
     245 -> 247       -0.27619
     246 -> 247        0.18848
 This state for optimization and/or second-order correction.
 Total Energy, E(TD-HF/TD-DFT) =  -3007.29261171
 Copying the excited state density for this state as the 1-particle RhoCI density.

 Excited State   2:      Singlet-A      1.8700 eV  663.03 nm  f=0.2797  <S**2>=0.000
     244 -> 247       -0.17512
     245 -> 248       -0.19710
     246 -> 247        0.65657
     246 <- 247       -0.13304

 Excited State   3:      Singlet-A      2.0467 eV  605.79 nm  f=0.0681  <S**2>=0.000
     243 -> 247       -0.19118
     244 -> 247        0.27451
     245 -> 247        0.56575
     246 -> 248        0.23208

 Excited State   4:      Singlet-A      2.0685 eV  599.38 nm  f=0.0079  <S**2>=0.000
     243 -> 247        0.67992
     245 -> 247        0.15909

 Excited State   5:      Singlet-A      2.4827 eV  499.39 nm  f=0.0003  <S**2>=0.000
     241 -> 247        0.70709

 The electronic state is 1-A.
 Alpha  occ. eigenvalues --  -46.26151 -18.83075 -18.81528 -18.77526 -18.76713
 Alpha  occ. eigenvalues --  -18.75540 -18.74899 -14.03253 -14.02611 -14.00787
 Alpha  occ. eigenvalues --  -14.00216 -10.04991 -10.03282 -10.00070  -9.98716
 Alpha  occ. eigenvalues --   -9.98640  -9.96695  -9.96619  -9.95956  -9.95788
 Alpha  occ. eigenvalues --   -9.95771  -9.95511  -9.95365  -9.94777  -9.94451
 Alpha  occ. eigenvalues --   -9.94183  -9.94051  -9.93758  -9.93708  -9.93626
 Alpha  occ. eigenvalues --   -9.93586  -9.93383  -9.93323  -9.92835  -9.92798
 Alpha  occ. eigenvalues --   -9.92755  -9.92726  -9.92678  -9.92546  -9.92501
 Alpha  occ. eigenvalues --   -9.92472  -9.92377  -9.92373  -9.92336  -9.92328
 Alpha  occ. eigenvalues --   -9.92274  -9.92271  -9.92233  -9.92195  -9.92080
 Alpha  occ. eigenvalues --   -9.92067  -9.92015  -9.91867  -9.91666  -9.91654
 Alpha  occ. eigenvalues --   -9.91622  -9.91563  -9.91445  -9.91283  -9.90975
 Alpha  occ. eigenvalues --   -9.90968  -9.90813  -9.90772  -9.90723  -9.90639
 Alpha  occ. eigenvalues --   -9.90355  -2.90879  -1.71310  -1.70756  -1.70591
 Alpha  occ. eigenvalues --   -0.98806  -0.97040  -0.92004  -0.91210  -0.90190
 Alpha  occ. eigenvalues --   -0.89517  -0.87084  -0.85438  -0.85263  -0.83974
 Alpha  occ. eigenvalues --   -0.75432  -0.74329  -0.73014  -0.72830  -0.72813
 Alpha  occ. eigenvalues --   -0.71935  -0.71776  -0.70783  -0.70719  -0.70392
 Alpha  occ. eigenvalues --   -0.69458  -0.69184  -0.68397  -0.67660  -0.67517
 Alpha  occ. eigenvalues --   -0.66558  -0.66083  -0.65870  -0.65175  -0.64683
 Alpha  occ. eigenvalues --   -0.64237  -0.62530  -0.62148  -0.61397  -0.60593
 Alpha  occ. eigenvalues --   -0.60401  -0.60138  -0.59751  -0.59643  -0.58821
 Alpha  occ. eigenvalues --   -0.58544  -0.57523  -0.56742  -0.55792  -0.54047
 Alpha  occ. eigenvalues --   -0.53933  -0.53725  -0.52708  -0.52354  -0.51317
 Alpha  occ. eigenvalues --   -0.51137  -0.51108  -0.50760  -0.50243  -0.50011
 Alpha  occ. eigenvalues --   -0.49946  -0.49416  -0.48623  -0.48130  -0.46822
 Alpha  occ. eigenvalues --   -0.46721  -0.46112  -0.45744  -0.45377  -0.44819
 Alpha  occ. eigenvalues --   -0.44130  -0.44006  -0.43032  -0.42949  -0.42683
 Alpha  occ. eigenvalues --   -0.42296  -0.41862  -0.41605  -0.41541  -0.41005
 Alpha  occ. eigenvalues --   -0.40986  -0.40725  -0.40411  -0.40363  -0.40248
 Alpha  occ. eigenvalues --   -0.40100  -0.39846  -0.39705  -0.39565  -0.39252
 Alpha  occ. eigenvalues --   -0.39136  -0.38966  -0.38634  -0.38597  -0.38368
 Alpha  occ. eigenvalues --   -0.38218  -0.38143  -0.37967  -0.37827  -0.37497
 Alpha  occ. eigenvalues --   -0.37218  -0.36982  -0.36591  -0.36360  -0.36285
 Alpha  occ. eigenvalues --   -0.36192  -0.35810  -0.35754  -0.35440  -0.35281
 Alpha  occ. eigenvalues --   -0.35155  -0.35105  -0.34988  -0.34878  -0.34548
 Alpha  occ. eigenvalues --   -0.34499  -0.34429  -0.34044  -0.33938  -0.33737
 Alpha  occ. eigenvalues --   -0.33637  -0.33407  -0.33323  -0.33262  -0.33095
 Alpha  occ. eigenvalues --   -0.32679  -0.32593  -0.32513  -0.32318  -0.32169
 Alpha  occ. eigenvalues --   -0.31889  -0.31753  -0.31558  -0.31523  -0.31464
 Alpha  occ. eigenvalues --   -0.30985  -0.30769  -0.30725  -0.30636  -0.30484
 Alpha  occ. eigenvalues --   -0.30383  -0.30123  -0.29975  -0.29950  -0.29839
 Alpha  occ. eigenvalues --   -0.29725  -0.29470  -0.29260  -0.29230  -0.29101
 Alpha  occ. eigenvalues --   -0.29033  -0.28480  -0.28456  -0.27964  -0.27475
 Alpha  occ. eigenvalues --   -0.27407  -0.27150  -0.26927  -0.26885  -0.26458
 Alpha  occ. eigenvalues --   -0.26157  -0.26108  -0.25928  -0.25847  -0.25463
 Alpha  occ. eigenvalues --   -0.25115  -0.25009  -0.24280  -0.24222  -0.24014
 Alpha  occ. eigenvalues --   -0.23061  -0.22436  -0.22055  -0.21609  -0.20526
 Alpha  occ. eigenvalues --   -0.20440  -0.20036  -0.18813  -0.18016  -0.17031
 Alpha  occ. eigenvalues --   -0.15873
 Alpha virt. eigenvalues --   -0.11317  -0.06851  -0.05778  -0.04419  -0.04235
 Alpha virt. eigenvalues --   -0.02962  -0.02121  -0.01660  -0.00919   0.00427
 Alpha virt. eigenvalues --    0.01520   0.01595   0.01988   0.02690   0.03110

 Mulliken charges:
               1
     1  Mg   0.691920
     2  C   -0.007227
     3  C   -0.102863
     4  C   -0.041431
     5  C   -0.083755
     6  N   -0.260825
     7  C   -0.097213
     8  C    0.049014
     9  C    0.031719
    10  C    0.052397
    11  C    0.111865
    12  C    0.117821
    13  C    0.167033
    14  C    0.086088
    15  O   -0.217566
    16  O   -0.281980
    17  N   -0.306940
    18  C    0.169451
    19  C   -0.134278
    20  C    0.065526
    21  C    0.117599
    22  C    0.170464
    23  C   -0.084475
    24  O   -0.176011
    25  C    0.143810
    26  N   -0.149556
    27  C   -0.006954
    28  C    0.023223
    29  C    0.001225
    30  C   -0.003745
    31  C    0.117738
    32  C    0.098172
    33  C    0.083349
    34  N   -0.303105
    35  C    0.164977
    36  C   -0.182095
    37  C    0.092256
    38  C    0.115340
    39  C    0.199193
    40  C   -0.079714
    41  O   -0.104865
    42  C    0.083200
    43  C    0.102580
    44  O   -0.152009
    45  O   -0.276900
    46  C    0.214322
    47  C    0.339379
    48  C   -0.147146
    49  C   -0.129772
    50  C    0.130597
    51  C    0.118970
    52  C    0.098442
    53  C    0.081018
    54  C   -0.115790
    55  C    0.097196
    56  C    0.092136
    57  C    0.050808
    58  C    0.128613
    59  C   -0.059790
    60  C    0.107400
    61  C    0.078324
    62  C    0.044847
    63  C    0.082599
    64  C   -0.024443
    65  C    0.087920
    66  C    0.084782
    67  H   -0.046047
    68  H   -0.039701
    69  H   -0.068664
    70  H   -0.002416
    71  H   -0.020611
    72  H   -0.029790
    73  H   -0.021444
    74  H   -0.017984
    75  H   -0.023367
    76  H   -0.015517
    77  H   -0.018347
    78  H    0.013017
    79  H   -0.009029
    80  H    0.004812
    81  H   -0.028529
    82  H    0.018463
    83  H    0.009079
    84  H   -0.013495
    85  H   -0.035784
    86  H   -0.032629
    87  H   -0.004941
    88  H   -0.016316
    89  H    0.004332
    90  H   -0.029918
    91  H   -0.025318
    92  H   -0.006328
    93  H   -0.010920
    94  H   -0.010621
    95  H   -0.011152
    96  H   -0.055053
    97  H    0.028754
    98  H   -0.019422
    99  H   -0.001639
   100  H    0.013468
   101  H    0.021195
   102  H    0.019055
   103  H    0.027149
   104  H   -0.031375
   105  H   -0.027367
   106  H    0.003897
   107  H    0.012772
   108  H   -0.027727
   109  H   -0.048422
   110  H   -0.027266
   111  H   -0.022591
   112  H   -0.026407
   113  H   -0.023056
   114  H   -0.037785
   115  H   -0.000698
   116  H   -0.016175
   117  H   -0.011439
   118  H   -0.039320
   119  H   -0.023101
   120  H   -0.013280
   121  H   -0.019694
   122  H   -0.042694
   123  H   -0.021572
   124  H   -0.040304
   125  H   -0.028829
   126  H   -0.023762
   127  H   -0.006722
   128  H   -0.028533
   129  H   -0.045197
   130  H   -0.031576
   131  H   -0.040981
   132  H   -0.035633
   133  H   -0.035662
   134  H   -0.032114
   135  H   -0.027004
   136  H   -0.012311
   137  H   -0.022638
   138  H   -0.016287
   139  H   -0.018056
   140  H   -0.018295
 Sum of Mulliken charges =  -0.00000

 Dipole moment (field-independent basis, Debye):
    X=              4.6652    Y=              3.2353    Z=             -3.5811  Tot=              6.7124
 Quadrupole moment (field-independent basis, Debye-Ang):
   XX=           -379.4383   YY=           -436.9102   ZZ=           -401.7515
   XY=            -15.3471   XZ=             10.4498   YZ=             13.0516

 Normal termination of Gaussian 16 at Sat Apr 30 11:55:25 2022.
