 Gaussian 16, Revision A.03,
 Gaussian 16:  ES64L-G16RevA.03 25-Dec-2016

 -----------------------------------
 #p cam-b3lyp/Def2SVP td=(nstates=5)
 -----------------------------------

 ------------------------------------------------------
 step_701_chromophore_3 TDDFT with cam-b3lyp functional
 ------------------------------------------------------
 Symbolic Z-matrix:
 Charge =  0 Multiplicity = 1

                         Standard orientation:
 ---------------------------------------------------------------------
 Center     Atomic      Atomic             Coordinates (Angstroms)
 Number     Number       Type             X           Y           Z
 ---------------------------------------------------------------------
      1         12           0       -5.267421    0.779166   -0.288089
      2          6           0       -4.419265   -2.548041   -0.045588
      3          6           0       -1.959138    1.710044   -0.266639
      4          6           0       -6.204918    4.004109    0.031041
      5          6           0       -8.649613   -0.124631    0.223369
      6          7           0       -3.445898   -0.328328   -0.418134
      7          6           0       -3.292122   -1.700429   -0.311448
      8          6           0       -1.860117   -2.100532   -0.559811
      9          6           0       -1.071701   -0.675664   -0.523233
     10          6           0       -2.219073    0.349804   -0.413201
     11          6           0       -0.025045   -0.555082    0.619894
     12          6           0       -1.640067   -2.920957   -1.912807
     13          6           0       -0.525791   -3.926492   -1.840462
     14          6           0        0.648884   -3.670975   -0.873826
     15          8           0        0.817756   -4.152861    0.271230
     16          8           0        1.473942   -2.749675   -1.433998
     17          7           0       -4.218935    2.551541   -0.091352
     18          6           0       -2.856343    2.741278   -0.107574
     19          6           0       -2.588685    4.076233    0.272376
     20          6           0       -3.794853    4.795441    0.319038
     21          6           0       -4.813693    3.787564    0.090291
     22          6           0       -1.184079    4.541423    0.495032
     23          6           0       -4.043965    6.272646    0.554729
     24          8           0       -5.194703    6.690470    0.386035
     25          6           0       -2.938001    7.239600    0.819277
     26          7           0       -7.221595    1.775421    0.036806
     27          6           0       -7.286049    3.097055   -0.032320
     28          6           0       -8.758900    3.568999    0.117374
     29          6           0       -9.568877    2.306875   -0.038822
     30          6           0       -8.440525    1.229083    0.044600
     31          6           0       -9.084390    4.305602    1.446937
     32          6           0      -10.341317    2.170683   -1.345343
     33          6           0      -11.750278    1.668589   -1.275711
     34          7           0       -6.339256   -0.914730    0.111389
     35          6           0       -7.713352   -1.146077    0.344210
     36          6           0       -7.875241   -2.544931    0.648269
     37          6           0       -6.578679   -3.113929    0.534474
     38          6           0       -5.735012   -2.125031    0.098294
     39          6           0       -9.144245   -3.320438    0.987349
     40          6           0       -5.845163   -4.354940    0.581537
     41          8           0       -6.102562   -5.506443    0.796622
     42          6           0       -4.364352   -4.032535    0.251257
     43          6           0       -3.680274   -4.295259    1.574942
     44          8           0       -3.994517   -3.786842    2.616211
     45          8           0       -2.631412   -5.209376    1.370091
     46          6           0       -1.878617   -5.472535    2.578339
     47          6           0        2.816741   -2.632386   -0.882505
     48          6           0        3.678477   -2.162409   -1.966975
     49          6           0        5.052399   -2.276863   -2.026313
     50          6           0        5.837716   -3.051849   -1.046472
     51          6           0        5.892553   -1.861158   -3.214488
     52          6           0        6.524636   -0.428048   -3.274399
     53          6           0        8.039316   -0.319266   -3.618364
     54          6           0        8.941826    0.437006   -2.530174
     55          6           0        8.776366   -0.257862   -1.163438
     56          6           0       10.516063    0.610772   -2.846138
     57          6           0       11.084688    1.916634   -2.164462
     58          6           0       12.592139    1.722055   -1.887456
     59          6           0       13.017859    2.363137   -0.498997
     60          6           0       14.016185    3.517978   -0.327298
     61          6           0       13.324108    1.311566    0.646890
     62          6           0       12.528208    1.523541    1.920793
     63          6           0       12.687657    0.329330    2.836167
     64          6           0       12.244244    0.444232    4.331699
     65          6           0       13.412751   -0.072189    5.184539
     66          6           0       10.876232   -0.245812    4.661209
     67          1           0       -0.905141    1.973658   -0.377094
     68          1           0       -6.575874    5.031038    0.049462
     69          1           0       -9.698114   -0.381581    0.384127
     70          1           0       -1.613466   -2.667688    0.337681
     71          1           0       -0.576296   -0.597081   -1.490748
     72          1           0        0.125103    0.472426    0.951079
     73          1           0        0.969274   -1.001610    0.593570
     74          1           0       -0.415803   -0.957759    1.554526
     75          1           0       -1.411832   -2.314692   -2.788885
     76          1           0       -2.590245   -3.388016   -2.172644
     77          1           0       -0.058203   -3.762736   -2.811412
     78          1           0       -0.905358   -4.931446   -1.652636
     79          1           0       -1.149029    4.841906    1.542026
     80          1           0       -0.773853    5.356213   -0.100864
     81          1           0       -0.452315    3.733490    0.476080
     82          1           0       -2.360406    7.310392   -0.102194
     83          1           0       -2.353027    7.084649    1.725478
     84          1           0       -3.429886    8.197604    0.986557
     85          1           0       -9.080532    4.239162   -0.680230
     86          1           0      -10.330984    2.239515    0.737871
     87          1           0       -8.197489    4.016262    2.009940
     88          1           0       -9.958852    3.889728    1.948007
     89          1           0       -9.232541    5.384899    1.435903
     90          1           0       -9.796332    1.383480   -1.865312
     91          1           0      -10.239077    3.074584   -1.946807
     92          1           0      -12.466305    2.442291   -1.552952
     93          1           0      -11.991501    1.278951   -0.286625
     94          1           0      -11.838271    0.852479   -1.992811
     95          1           0       -9.685689   -3.708928    0.124976
     96          1           0       -9.901824   -2.546705    1.118439
     97          1           0       -9.137849   -3.966511    1.864852
     98          1           0       -3.927902   -4.669340   -0.518854
     99          1           0       -2.337588   -6.314731    3.097849
    100          1           0       -1.784523   -4.743137    3.382419
    101          1           0       -0.905102   -5.763782    2.184150
    102          1           0        3.124422   -3.654385   -0.662789
    103          1           0        2.790406   -1.865765   -0.108048
    104          1           0        3.105862   -1.842395   -2.837334
    105          1           0        5.215081   -3.308570   -0.189436
    106          1           0        6.673098   -2.551595   -0.556475
    107          1           0        6.145514   -3.956638   -1.570390
    108          1           0        5.290031   -2.077130   -4.096404
    109          1           0        6.787590   -2.473101   -3.330267
    110          1           0        6.364744    0.031776   -2.299558
    111          1           0        5.927704    0.057025   -4.047794
    112          1           0        8.125682    0.207976   -4.569101
    113          1           0        8.560990   -1.275735   -3.665074
    114          1           0        8.434158    1.389041   -2.377256
    115          1           0        8.083346    0.367175   -0.599306
    116          1           0        9.709011   -0.367042   -0.609643
    117          1           0        8.501616   -1.285039   -1.403720
    118          1           0       10.653635    0.764316   -3.917242
    119          1           0       11.052199   -0.318184   -2.652043
    120          1           0       10.559163    2.207710   -1.254939
    121          1           0       10.976155    2.735598   -2.875829
    122          1           0       13.116129    2.268086   -2.673045
    123          1           0       12.892717    0.675128   -1.913945
    124          1           0       12.066213    2.782818   -0.170932
    125          1           0       14.170266    3.905022   -1.334151
    126          1           0       15.038333    3.300955   -0.017192
    127          1           0       13.678908    4.253899    0.402443
    128          1           0       14.374825    1.331641    0.934786
    129          1           0       12.997729    0.324371    0.319104
    130          1           0       11.509631    1.776762    1.627507
    131          1           0       12.947026    2.315388    2.541563
    132          1           0       13.756766    0.115601    2.819114
    133          1           0       12.187759   -0.460462    2.275512
    134          1           0       11.969601    1.463298    4.601458
    135          1           0       13.991059    0.680781    5.719796
    136          1           0       14.288976   -0.542233    4.736644
    137          1           0       12.981892   -0.715112    5.952334
    138          1           0       10.910128   -1.126271    5.301627
    139          1           0       10.346875   -0.546619    3.756913
    140          1           0       10.258572    0.475667    5.196793
 ---------------------------------------------------------------------

 SCF Done:  E(RCAM-B3LYP) =  -3007.15837020     A.U. after   17 cycles

 Excitation energies and oscillator strengths:

 Excited State   1:      Singlet-A      1.7621 eV  703.62 nm  f=0.3645  <S**2>=0.000
     245 -> 248        0.19731
     246 -> 247        0.68075
     245 <- 248        0.10955
 This state for optimization and/or second-order correction.
 Total Energy, E(TD-HF/TD-DFT) =  -3007.09361442
 Copying the excited state density for this state as the 1-particle RhoCI density.

 Excited State   2:      Singlet-A      2.2396 eV  553.61 nm  f=0.1176  <S**2>=0.000
     245 -> 247        0.63999
     246 -> 248       -0.28727

 Excited State   3:      Singlet-A      3.3435 eV  370.82 nm  f=0.0002  <S**2>=0.000
     243 -> 247       -0.15799
     244 -> 247        0.66648

 Excited State   4:      Singlet-A      3.4894 eV  355.32 nm  f=0.1083  <S**2>=0.000
     241 -> 247        0.52136
     241 -> 249       -0.13794
     241 -> 250       -0.12291
     243 -> 247       -0.18753
     245 -> 247       -0.11261
     246 -> 248       -0.32623

 Excited State   5:      Singlet-A      3.5383 eV  350.41 nm  f=0.0948  <S**2>=0.000
     240 -> 247        0.13391
     241 -> 247        0.27499
     241 -> 249       -0.17286
     241 -> 250       -0.13760
     243 -> 247        0.45822
     244 -> 247        0.13426
     246 -> 248        0.30581

 The electronic state is 1-A.
 Alpha  occ. eigenvalues --  -46.87616 -19.25944 -19.24331 -19.20432 -19.19755
 Alpha  occ. eigenvalues --  -19.18941 -19.17994 -14.42078 -14.41531 -14.39288
 Alpha  occ. eigenvalues --  -14.38496 -10.40287 -10.38646 -10.35428 -10.33843
 Alpha  occ. eigenvalues --  -10.32651 -10.31219 -10.31195 -10.30230 -10.30043
 Alpha  occ. eigenvalues --  -10.29971 -10.29756 -10.29455 -10.29139 -10.28483
 Alpha  occ. eigenvalues --  -10.28257 -10.27962 -10.27945 -10.27939 -10.27934
 Alpha  occ. eigenvalues --  -10.27795 -10.27614 -10.27489 -10.27017 -10.26797
 Alpha  occ. eigenvalues --  -10.26748 -10.26658 -10.26596 -10.26583 -10.26522
 Alpha  occ. eigenvalues --  -10.26515 -10.26439 -10.26375 -10.26232 -10.26187
 Alpha  occ. eigenvalues --  -10.26050 -10.26013 -10.25984 -10.25943 -10.25870
 Alpha  occ. eigenvalues --  -10.25774 -10.25751 -10.25733 -10.25658 -10.25384
 Alpha  occ. eigenvalues --  -10.25233 -10.25137 -10.25099 -10.24908 -10.24585
 Alpha  occ. eigenvalues --  -10.24571 -10.24498 -10.24442 -10.24309 -10.24309
 Alpha  occ. eigenvalues --  -10.24255  -3.16253  -1.91158  -1.90702  -1.90561
 Alpha  occ. eigenvalues --   -1.17189  -1.15525  -1.10372  -1.09763  -1.08033
 Alpha  occ. eigenvalues --   -1.07320  -1.04850  -1.03078  -1.02846  -1.01466
 Alpha  occ. eigenvalues --   -0.92482  -0.91205  -0.89811  -0.89562  -0.89527
 Alpha  occ. eigenvalues --   -0.88628  -0.88510  -0.87375  -0.87274  -0.87097
 Alpha  occ. eigenvalues --   -0.85841  -0.85516  -0.84697  -0.83829  -0.83658
 Alpha  occ. eigenvalues --   -0.82698  -0.82368  -0.81853  -0.81146  -0.80506
 Alpha  occ. eigenvalues --   -0.79977  -0.78294  -0.77724  -0.76861  -0.75953
 Alpha  occ. eigenvalues --   -0.75768  -0.75446  -0.75012  -0.74938  -0.73940
 Alpha  occ. eigenvalues --   -0.73666  -0.72527  -0.71640  -0.70595  -0.68740
 Alpha  occ. eigenvalues --   -0.68463  -0.68297  -0.67163  -0.66690  -0.65445
 Alpha  occ. eigenvalues --   -0.65339  -0.65281  -0.64831  -0.64141  -0.64057
 Alpha  occ. eigenvalues --   -0.63879  -0.63380  -0.62483  -0.61821  -0.60435
 Alpha  occ. eigenvalues --   -0.60284  -0.59676  -0.59210  -0.58810  -0.58170
 Alpha  occ. eigenvalues --   -0.57778  -0.57177  -0.56361  -0.56155  -0.55644
 Alpha  occ. eigenvalues --   -0.55135  -0.55046  -0.54773  -0.54410  -0.53872
 Alpha  occ. eigenvalues --   -0.53709  -0.53530  -0.53382  -0.53205  -0.53074
 Alpha  occ. eigenvalues --   -0.52750  -0.52603  -0.52331  -0.52178  -0.52022
 Alpha  occ. eigenvalues --   -0.51735  -0.51462  -0.51091  -0.50981  -0.50888
 Alpha  occ. eigenvalues --   -0.50684  -0.50662  -0.50445  -0.50151  -0.50037
 Alpha  occ. eigenvalues --   -0.49505  -0.49344  -0.49049  -0.48818  -0.48747
 Alpha  occ. eigenvalues --   -0.48295  -0.48036  -0.47820  -0.47727  -0.47304
 Alpha  occ. eigenvalues --   -0.47236  -0.47147  -0.46990  -0.46779  -0.46631
 Alpha  occ. eigenvalues --   -0.46380  -0.46259  -0.45912  -0.45704  -0.45579
 Alpha  occ. eigenvalues --   -0.45424  -0.45281  -0.45169  -0.44963  -0.44861
 Alpha  occ. eigenvalues --   -0.44350  -0.44239  -0.44116  -0.43890  -0.43792
 Alpha  occ. eigenvalues --   -0.43368  -0.43283  -0.43226  -0.42954  -0.42933
 Alpha  occ. eigenvalues --   -0.42651  -0.42467  -0.42418  -0.42247  -0.42137
 Alpha  occ. eigenvalues --   -0.41952  -0.41850  -0.41180  -0.41142  -0.41032
 Alpha  occ. eigenvalues --   -0.40948  -0.40764  -0.40440  -0.40376  -0.40229
 Alpha  occ. eigenvalues --   -0.40129  -0.39534  -0.39488  -0.38895  -0.38393
 Alpha  occ. eigenvalues --   -0.38254  -0.38152  -0.37750  -0.37668  -0.37651
 Alpha  occ. eigenvalues --   -0.37289  -0.36973  -0.36753  -0.36551  -0.36077
 Alpha  occ. eigenvalues --   -0.36049  -0.35652  -0.35431  -0.34633  -0.34316
 Alpha  occ. eigenvalues --   -0.34146  -0.33998  -0.33415  -0.31343  -0.31054
 Alpha  occ. eigenvalues --   -0.30000  -0.29925  -0.29912  -0.29199  -0.23736
 Alpha  occ. eigenvalues --   -0.21237
 Alpha virt. eigenvalues --   -0.08388  -0.01707   0.00752   0.02713   0.03152
 Alpha virt. eigenvalues --    0.03408   0.04519   0.06138   0.06293   0.06922
 Alpha virt. eigenvalues --    0.07433   0.08376   0.08876   0.09267   0.09416

 Mulliken charges:
               1
     1  Mg   0.824149
     2  C   -0.049381
     3  C   -0.120299
     4  C   -0.058796
     5  C   -0.083168
     6  N   -0.334979
     7  C   -0.042279
     8  C   -0.009417
     9  C   -0.022261
    10  C    0.075981
    11  C    0.057831
    12  C    0.070221
    13  C    0.098239
    14  C    0.158836
    15  O   -0.258036
    16  O   -0.344541
    17  N   -0.394337
    18  C    0.179851
    19  C   -0.143821
    20  C   -0.001907
    21  C    0.140785
    22  C    0.113114
    23  C   -0.003874
    24  O   -0.217407
    25  C    0.061600
    26  N   -0.218273
    27  C    0.009112
    28  C   -0.032128
    29  C   -0.047353
    30  C    0.005245
    31  C    0.059970
    32  C    0.042265
    33  C    0.018583
    34  N   -0.390887
    35  C    0.161607
    36  C   -0.177246
    37  C    0.012127
    38  C    0.155714
    39  C    0.149060
    40  C    0.014660
    41  O   -0.144624
    42  C    0.016061
    43  C    0.192091
    44  O   -0.188583
    45  O   -0.340448
    46  C    0.171133
    47  C    0.302551
    48  C   -0.159462
    49  C   -0.154360
    50  C    0.065246
    51  C    0.062617
    52  C    0.037502
    53  C    0.032689
    54  C   -0.164257
    55  C    0.038935
    56  C    0.038856
    57  C    0.001705
    58  C    0.074071
    59  C   -0.118715
    60  C    0.052744
    61  C    0.024708
    62  C   -0.000036
    63  C    0.030323
    64  C   -0.090515
    65  C    0.027448
    66  C    0.030180
    67  H   -0.011972
    68  H    0.003125
    69  H   -0.033710
    70  H    0.030258
    71  H    0.014490
    72  H   -0.004137
    73  H    0.000265
    74  H    0.008046
    75  H    0.007749
    76  H    0.015434
    77  H    0.016373
    78  H    0.043442
    79  H    0.017874
    80  H    0.030724
    81  H    0.000764
    82  H    0.045497
    83  H    0.038336
    84  H    0.023448
    85  H    0.000310
    86  H    0.002497
    87  H    0.020634
    88  H    0.008564
    89  H    0.028536
    90  H    0.002197
    91  H    0.003841
    92  H    0.017804
    93  H    0.010556
    94  H    0.013914
    95  H    0.017193
    96  H   -0.029934
    97  H    0.054563
    98  H    0.024083
    99  H    0.021206
   100  H    0.038190
   101  H    0.044673
   102  H    0.047407
   103  H    0.051464
   104  H    0.003913
   105  H   -0.001668
   106  H    0.028078
   107  H    0.037097
   108  H    0.002734
   109  H   -0.016905
   110  H    0.001664
   111  H    0.007653
   112  H    0.002638
   113  H    0.002261
   114  H   -0.007029
   115  H    0.022007
   116  H    0.006599
   117  H    0.007428
   118  H   -0.009712
   119  H    0.003313
   120  H    0.010460
   121  H    0.008520
   122  H   -0.012555
   123  H    0.006256
   124  H   -0.008006
   125  H   -0.004807
   126  H    0.000524
   127  H    0.016874
   128  H   -0.001375
   129  H   -0.018252
   130  H   -0.007108
   131  H   -0.014568
   132  H   -0.007313
   133  H   -0.009425
   134  H    0.001025
   135  H   -0.001870
   136  H    0.011955
   137  H    0.001360
   138  H    0.007440
   139  H    0.005427
   140  H    0.005247
 Sum of Mulliken charges =  -0.00000

 Dipole moment (field-independent basis, Debye):
    X=              4.9538    Y=              3.9173    Z=             -3.6675  Tot=              7.3032
 Quadrupole moment (field-independent basis, Debye-Ang):
   XX=           -378.1389   YY=           -433.0865   ZZ=           -401.3096
   XY=            -17.3850   XZ=             11.0481   YZ=             14.4795

 Normal termination of Gaussian 16 at Sat Apr 30 10:37:42 2022.
