 Gaussian 16, Revision A.03,
 Gaussian 16:  ES64L-G16RevA.03 25-Dec-2016

 ---------------------------------
 #p PBE1PBE/Def2SVP td=(nstates=5)
 ---------------------------------

 ----------------------------------------------------
 step_701_chromophore_3 TDDFT with PBE1PBE functional
 ----------------------------------------------------
 Symbolic Z-matrix:
 Charge =  0 Multiplicity = 1

                         Standard orientation:
 ---------------------------------------------------------------------
 Center     Atomic      Atomic             Coordinates (Angstroms)
 Number     Number       Type             X           Y           Z
 ---------------------------------------------------------------------
      1         12           0       -5.267421    0.779166   -0.288089
      2          6           0       -4.419265   -2.548041   -0.045588
      3          6           0       -1.959138    1.710044   -0.266639
      4          6           0       -6.204918    4.004109    0.031041
      5          6           0       -8.649613   -0.124631    0.223369
      6          7           0       -3.445898   -0.328328   -0.418134
      7          6           0       -3.292122   -1.700429   -0.311448
      8          6           0       -1.860117   -2.100532   -0.559811
      9          6           0       -1.071701   -0.675664   -0.523233
     10          6           0       -2.219073    0.349804   -0.413201
     11          6           0       -0.025045   -0.555082    0.619894
     12          6           0       -1.640067   -2.920957   -1.912807
     13          6           0       -0.525791   -3.926492   -1.840462
     14          6           0        0.648884   -3.670975   -0.873826
     15          8           0        0.817756   -4.152861    0.271230
     16          8           0        1.473942   -2.749675   -1.433998
     17          7           0       -4.218935    2.551541   -0.091352
     18          6           0       -2.856343    2.741278   -0.107574
     19          6           0       -2.588685    4.076233    0.272376
     20          6           0       -3.794853    4.795441    0.319038
     21          6           0       -4.813693    3.787564    0.090291
     22          6           0       -1.184079    4.541423    0.495032
     23          6           0       -4.043965    6.272646    0.554729
     24          8           0       -5.194703    6.690470    0.386035
     25          6           0       -2.938001    7.239600    0.819277
     26          7           0       -7.221595    1.775421    0.036806
     27          6           0       -7.286049    3.097055   -0.032320
     28          6           0       -8.758900    3.568999    0.117374
     29          6           0       -9.568877    2.306875   -0.038822
     30          6           0       -8.440525    1.229083    0.044600
     31          6           0       -9.084390    4.305602    1.446937
     32          6           0      -10.341317    2.170683   -1.345343
     33          6           0      -11.750278    1.668589   -1.275711
     34          7           0       -6.339256   -0.914730    0.111389
     35          6           0       -7.713352   -1.146077    0.344210
     36          6           0       -7.875241   -2.544931    0.648269
     37          6           0       -6.578679   -3.113929    0.534474
     38          6           0       -5.735012   -2.125031    0.098294
     39          6           0       -9.144245   -3.320438    0.987349
     40          6           0       -5.845163   -4.354940    0.581537
     41          8           0       -6.102562   -5.506443    0.796622
     42          6           0       -4.364352   -4.032535    0.251257
     43          6           0       -3.680274   -4.295259    1.574942
     44          8           0       -3.994517   -3.786842    2.616211
     45          8           0       -2.631412   -5.209376    1.370091
     46          6           0       -1.878617   -5.472535    2.578339
     47          6           0        2.816741   -2.632386   -0.882505
     48          6           0        3.678477   -2.162409   -1.966975
     49          6           0        5.052399   -2.276863   -2.026313
     50          6           0        5.837716   -3.051849   -1.046472
     51          6           0        5.892553   -1.861158   -3.214488
     52          6           0        6.524636   -0.428048   -3.274399
     53          6           0        8.039316   -0.319266   -3.618364
     54          6           0        8.941826    0.437006   -2.530174
     55          6           0        8.776366   -0.257862   -1.163438
     56          6           0       10.516063    0.610772   -2.846138
     57          6           0       11.084688    1.916634   -2.164462
     58          6           0       12.592139    1.722055   -1.887456
     59          6           0       13.017859    2.363137   -0.498997
     60          6           0       14.016185    3.517978   -0.327298
     61          6           0       13.324108    1.311566    0.646890
     62          6           0       12.528208    1.523541    1.920793
     63          6           0       12.687657    0.329330    2.836167
     64          6           0       12.244244    0.444232    4.331699
     65          6           0       13.412751   -0.072189    5.184539
     66          6           0       10.876232   -0.245812    4.661209
     67          1           0       -0.905141    1.973658   -0.377094
     68          1           0       -6.575874    5.031038    0.049462
     69          1           0       -9.698114   -0.381581    0.384127
     70          1           0       -1.613466   -2.667688    0.337681
     71          1           0       -0.576296   -0.597081   -1.490748
     72          1           0        0.125103    0.472426    0.951079
     73          1           0        0.969274   -1.001610    0.593570
     74          1           0       -0.415803   -0.957759    1.554526
     75          1           0       -1.411832   -2.314692   -2.788885
     76          1           0       -2.590245   -3.388016   -2.172644
     77          1           0       -0.058203   -3.762736   -2.811412
     78          1           0       -0.905358   -4.931446   -1.652636
     79          1           0       -1.149029    4.841906    1.542026
     80          1           0       -0.773853    5.356213   -0.100864
     81          1           0       -0.452315    3.733490    0.476080
     82          1           0       -2.360406    7.310392   -0.102194
     83          1           0       -2.353027    7.084649    1.725478
     84          1           0       -3.429886    8.197604    0.986557
     85          1           0       -9.080532    4.239162   -0.680230
     86          1           0      -10.330984    2.239515    0.737871
     87          1           0       -8.197489    4.016262    2.009940
     88          1           0       -9.958852    3.889728    1.948007
     89          1           0       -9.232541    5.384899    1.435903
     90          1           0       -9.796332    1.383480   -1.865312
     91          1           0      -10.239077    3.074584   -1.946807
     92          1           0      -12.466305    2.442291   -1.552952
     93          1           0      -11.991501    1.278951   -0.286625
     94          1           0      -11.838271    0.852479   -1.992811
     95          1           0       -9.685689   -3.708928    0.124976
     96          1           0       -9.901824   -2.546705    1.118439
     97          1           0       -9.137849   -3.966511    1.864852
     98          1           0       -3.927902   -4.669340   -0.518854
     99          1           0       -2.337588   -6.314731    3.097849
    100          1           0       -1.784523   -4.743137    3.382419
    101          1           0       -0.905102   -5.763782    2.184150
    102          1           0        3.124422   -3.654385   -0.662789
    103          1           0        2.790406   -1.865765   -0.108048
    104          1           0        3.105862   -1.842395   -2.837334
    105          1           0        5.215081   -3.308570   -0.189436
    106          1           0        6.673098   -2.551595   -0.556475
    107          1           0        6.145514   -3.956638   -1.570390
    108          1           0        5.290031   -2.077130   -4.096404
    109          1           0        6.787590   -2.473101   -3.330267
    110          1           0        6.364744    0.031776   -2.299558
    111          1           0        5.927704    0.057025   -4.047794
    112          1           0        8.125682    0.207976   -4.569101
    113          1           0        8.560990   -1.275735   -3.665074
    114          1           0        8.434158    1.389041   -2.377256
    115          1           0        8.083346    0.367175   -0.599306
    116          1           0        9.709011   -0.367042   -0.609643
    117          1           0        8.501616   -1.285039   -1.403720
    118          1           0       10.653635    0.764316   -3.917242
    119          1           0       11.052199   -0.318184   -2.652043
    120          1           0       10.559163    2.207710   -1.254939
    121          1           0       10.976155    2.735598   -2.875829
    122          1           0       13.116129    2.268086   -2.673045
    123          1           0       12.892717    0.675128   -1.913945
    124          1           0       12.066213    2.782818   -0.170932
    125          1           0       14.170266    3.905022   -1.334151
    126          1           0       15.038333    3.300955   -0.017192
    127          1           0       13.678908    4.253899    0.402443
    128          1           0       14.374825    1.331641    0.934786
    129          1           0       12.997729    0.324371    0.319104
    130          1           0       11.509631    1.776762    1.627507
    131          1           0       12.947026    2.315388    2.541563
    132          1           0       13.756766    0.115601    2.819114
    133          1           0       12.187759   -0.460462    2.275512
    134          1           0       11.969601    1.463298    4.601458
    135          1           0       13.991059    0.680781    5.719796
    136          1           0       14.288976   -0.542233    4.736644
    137          1           0       12.981892   -0.715112    5.952334
    138          1           0       10.910128   -1.126271    5.301627
    139          1           0       10.346875   -0.546619    3.756913
    140          1           0       10.258572    0.475667    5.196793
 ---------------------------------------------------------------------

 SCF Done:  E(RPBE1PBE) =  -3005.34686872     A.U. after   15 cycles

 Excitation energies and oscillator strengths:

 Excited State   1:      Singlet-A      1.9190 eV  646.08 nm  f=0.3547  <S**2>=0.000
     245 -> 248       -0.19006
     246 -> 247        0.68690
 This state for optimization and/or second-order correction.
 Total Energy, E(TD-HF/TD-DFT) =  -3005.27634547
 Copying the excited state density for this state as the 1-particle RhoCI density.

 Excited State   2:      Singlet-A      2.2465 eV  551.91 nm  f=0.1125  <S**2>=0.000
     245 -> 247        0.65056
     246 -> 248        0.26172

 Excited State   3:      Singlet-A      2.9027 eV  427.13 nm  f=0.0006  <S**2>=0.000
     243 -> 247       -0.20006
     244 -> 247        0.65384
     244 -> 249       -0.10140

 Excited State   4:      Singlet-A      3.0603 eV  405.14 nm  f=0.0020  <S**2>=0.000
     241 -> 247       -0.12821
     243 -> 247        0.65225
     244 -> 247        0.21415

 Excited State   5:      Singlet-A      3.1875 eV  388.97 nm  f=0.0003  <S**2>=0.000
     240 -> 247        0.65029
     240 -> 248        0.11100
     240 -> 249        0.17779
     241 -> 247       -0.14350

 The electronic state is 1-A.
 Alpha  occ. eigenvalues --  -46.91026 -19.26641 -19.25045 -19.20756 -19.19990
 Alpha  occ. eigenvalues --  -19.19076 -19.18277 -14.41684 -14.40935 -14.38917
 Alpha  occ. eigenvalues --  -14.38244 -10.37394 -10.35726 -10.32468 -10.31053
 Alpha  occ. eigenvalues --  -10.30057 -10.28993 -10.28877 -10.27906 -10.27843
 Alpha  occ. eigenvalues --  -10.27599 -10.27275 -10.27027 -10.26700 -10.26290
 Alpha  occ. eigenvalues --  -10.26105 -10.25719 -10.25640 -10.25589 -10.25501
 Alpha  occ. eigenvalues --  -10.25454 -10.25401 -10.25130 -10.24708 -10.24453
 Alpha  occ. eigenvalues --  -10.24425 -10.24350 -10.24266 -10.24232 -10.24164
 Alpha  occ. eigenvalues --  -10.24000 -10.23925 -10.23913 -10.23756 -10.23708
 Alpha  occ. eigenvalues --  -10.23659 -10.23551 -10.23541 -10.23444 -10.23406
 Alpha  occ. eigenvalues --  -10.23405 -10.23336 -10.23226 -10.23208 -10.22967
 Alpha  occ. eigenvalues --  -10.22862 -10.22570 -10.22561 -10.22312 -10.22096
 Alpha  occ. eigenvalues --  -10.22073 -10.21999 -10.21985 -10.21963 -10.21751
 Alpha  occ. eigenvalues --  -10.21712  -3.13239  -1.86087  -1.85608  -1.85471
 Alpha  occ. eigenvalues --   -1.12030  -1.10308  -1.05197  -1.04388  -1.02913
 Alpha  occ. eigenvalues --   -1.02188  -0.99456  -0.97703  -0.97520  -0.96092
 Alpha  occ. eigenvalues --   -0.86916  -0.85375  -0.83918  -0.83826  -0.83732
 Alpha  occ. eigenvalues --   -0.82823  -0.82727  -0.81694  -0.81395  -0.81346
 Alpha  occ. eigenvalues --   -0.80152  -0.79816  -0.78897  -0.78068  -0.77926
 Alpha  occ. eigenvalues --   -0.76979  -0.76502  -0.76046  -0.75438  -0.74680
 Alpha  occ. eigenvalues --   -0.74344  -0.72573  -0.72011  -0.71173  -0.70130
 Alpha  occ. eigenvalues --   -0.69864  -0.69793  -0.69354  -0.69084  -0.68193
 Alpha  occ. eigenvalues --   -0.67930  -0.66980  -0.66086  -0.64903  -0.63102
 Alpha  occ. eigenvalues --   -0.62852  -0.62582  -0.61626  -0.60951  -0.59881
 Alpha  occ. eigenvalues --   -0.59664  -0.59554  -0.59403  -0.58576  -0.58434
 Alpha  occ. eigenvalues --   -0.58216  -0.57567  -0.56708  -0.56396  -0.54927
 Alpha  occ. eigenvalues --   -0.54736  -0.54208  -0.53720  -0.53401  -0.52728
 Alpha  occ. eigenvalues --   -0.52188  -0.51778  -0.50915  -0.50762  -0.50080
 Alpha  occ. eigenvalues --   -0.49636  -0.49442  -0.49358  -0.48885  -0.48353
 Alpha  occ. eigenvalues --   -0.48153  -0.48006  -0.47941  -0.47713  -0.47489
 Alpha  occ. eigenvalues --   -0.47304  -0.47139  -0.46956  -0.46730  -0.46570
 Alpha  occ. eigenvalues --   -0.46347  -0.46012  -0.45696  -0.45564  -0.45408
 Alpha  occ. eigenvalues --   -0.45238  -0.45215  -0.44992  -0.44743  -0.44598
 Alpha  occ. eigenvalues --   -0.44073  -0.43938  -0.43637  -0.43456  -0.43342
 Alpha  occ. eigenvalues --   -0.42900  -0.42673  -0.42476  -0.42398  -0.41971
 Alpha  occ. eigenvalues --   -0.41861  -0.41819  -0.41671  -0.41446  -0.41311
 Alpha  occ. eigenvalues --   -0.41075  -0.40910  -0.40632  -0.40359  -0.40295
 Alpha  occ. eigenvalues --   -0.40182  -0.40047  -0.39925  -0.39664  -0.39575
 Alpha  occ. eigenvalues --   -0.39130  -0.39000  -0.38776  -0.38656  -0.38612
 Alpha  occ. eigenvalues --   -0.38150  -0.38003  -0.37951  -0.37751  -0.37715
 Alpha  occ. eigenvalues --   -0.37457  -0.37207  -0.37173  -0.37036  -0.36946
 Alpha  occ. eigenvalues --   -0.36707  -0.36668  -0.36069  -0.35889  -0.35827
 Alpha  occ. eigenvalues --   -0.35777  -0.35657  -0.35329  -0.35205  -0.35101
 Alpha  occ. eigenvalues --   -0.34923  -0.34413  -0.34283  -0.33692  -0.33372
 Alpha  occ. eigenvalues --   -0.33143  -0.33016  -0.32657  -0.32582  -0.32447
 Alpha  occ. eigenvalues --   -0.32247  -0.32038  -0.31589  -0.31361  -0.31058
 Alpha  occ. eigenvalues --   -0.30908  -0.30607  -0.30452  -0.29625  -0.29349
 Alpha  occ. eigenvalues --   -0.29132  -0.29004  -0.28894  -0.26708  -0.25987
 Alpha  occ. eigenvalues --   -0.25502  -0.25276  -0.25078  -0.24726  -0.20701
 Alpha  occ. eigenvalues --   -0.18834
 Alpha virt. eigenvalues --   -0.10873  -0.05193  -0.03472  -0.01639  -0.01211
 Alpha virt. eigenvalues --    0.00029   0.00260   0.01561   0.01793   0.03372
 Alpha virt. eigenvalues --    0.04266   0.04416   0.04944   0.05580   0.06068

 Mulliken charges:
               1
     1  Mg   0.974636
     2  C   -0.068005
     3  C   -0.114205
     4  C   -0.050102
     5  C   -0.075850
     6  N   -0.438954
     7  C    0.039342
     8  C   -0.083244
     9  C   -0.101905
    10  C    0.114826
    11  C   -0.004288
    12  C    0.022530
    13  C    0.020608
    14  C    0.223289
    15  O   -0.291260
    16  O   -0.375115
    17  N   -0.510674
    18  C    0.206165
    19  C   -0.179340
    20  C   -0.051852
    21  C    0.171400
    22  C    0.059403
    23  C    0.045155
    24  O   -0.253660
    25  C   -0.007823
    26  N   -0.325697
    27  C    0.043368
    28  C   -0.106066
    29  C   -0.123522
    30  C    0.038808
    31  C    0.002520
    32  C   -0.010771
    33  C   -0.054389
    34  N   -0.514028
    35  C    0.177753
    36  C   -0.190438
    37  C   -0.032326
    38  C    0.210497
    39  C    0.099239
    40  C    0.105317
    41  O   -0.191583
    42  C   -0.098858
    43  C    0.284057
    44  O   -0.221576
    45  O   -0.372270
    46  C    0.114794
    47  C    0.260196
    48  C   -0.166364
    49  C   -0.201685
    50  C    0.000042
    51  C    0.003550
    52  C   -0.027605
    53  C   -0.024146
    54  C   -0.244246
    55  C   -0.021687
    56  C   -0.019185
    57  C   -0.060465
    58  C    0.019035
    59  C   -0.203032
    60  C   -0.006092
    61  C   -0.031817
    62  C   -0.063500
    63  C   -0.024617
    64  C   -0.184313
    65  C   -0.031064
    66  C   -0.026691
    67  H    0.019395
    68  H    0.035378
    69  H   -0.000824
    70  H    0.073311
    71  H    0.051378
    72  H    0.024238
    73  H    0.033437
    74  H    0.035895
    75  H    0.038290
    76  H    0.048780
    77  H    0.050334
    78  H    0.073920
    79  H    0.046773
    80  H    0.056916
    81  H    0.027187
    82  H    0.071750
    83  H    0.063310
    84  H    0.050612
    85  H    0.037849
    86  H    0.039069
    87  H    0.050555
    88  H    0.035805
    89  H    0.054932
    90  H    0.037084
    91  H    0.035513
    92  H    0.045982
    93  H    0.036523
    94  H    0.041669
    95  H    0.045462
    96  H   -0.000184
    97  H    0.080073
    98  H    0.060346
    99  H    0.044772
   100  H    0.059804
   101  H    0.067215
   102  H    0.072658
   103  H    0.077973
   104  H    0.033552
   105  H    0.026393
   106  H    0.056695
   107  H    0.065098
   108  H    0.034719
   109  H    0.015829
   110  H    0.035708
   111  H    0.040744
   112  H    0.035698
   113  H    0.034007
   114  H    0.031560
   115  H    0.047995
   116  H    0.035693
   117  H    0.036466
   118  H    0.023898
   119  H    0.033446
   120  H    0.040954
   121  H    0.041459
   122  H    0.021141
   123  H    0.037008
   124  H    0.032849
   125  H    0.023519
   126  H    0.027351
   127  H    0.043456
   128  H    0.031053
   129  H    0.015374
   130  H    0.025809
   131  H    0.020387
   132  H    0.025778
   133  H    0.022845
   134  H    0.037642
   135  H    0.025894
   136  H    0.037283
   137  H    0.028749
   138  H    0.033582
   139  H    0.032562
   140  H    0.032407
 Sum of Mulliken charges =  -0.00000

 Dipole moment (field-independent basis, Debye):
    X=              4.8888    Y=              3.7187    Z=             -3.6791  Tot=              7.1599
 Quadrupole moment (field-independent basis, Debye-Ang):
   XX=           -371.7921   YY=           -430.8009   ZZ=           -398.6129
   XY=            -16.8751   XZ=             11.1531   YZ=             14.2481

 Normal termination of Gaussian 16 at Sat Apr 30 11:01:21 2022.
