 Gaussian 16, Revision A.03,
 Gaussian 16:  ES64L-G16RevA.03 25-Dec-2016

 --------------------------------
 #p wB97XD/Def2SVP td=(nstates=5)
 --------------------------------

 ---------------------------------------------------
 step_701_chromophore_3 TDDFT with wB97XD functional
 ---------------------------------------------------
 Symbolic Z-matrix:
 Charge =  0 Multiplicity = 1

                         Standard orientation:
 ---------------------------------------------------------------------
 Center     Atomic      Atomic             Coordinates (Angstroms)
 Number     Number       Type             X           Y           Z
 ---------------------------------------------------------------------
      1         12           0       -5.267421    0.779166   -0.288089
      2          6           0       -4.419265   -2.548041   -0.045588
      3          6           0       -1.959138    1.710044   -0.266639
      4          6           0       -6.204918    4.004109    0.031041
      5          6           0       -8.649613   -0.124631    0.223369
      6          7           0       -3.445898   -0.328328   -0.418134
      7          6           0       -3.292122   -1.700429   -0.311448
      8          6           0       -1.860117   -2.100532   -0.559811
      9          6           0       -1.071701   -0.675664   -0.523233
     10          6           0       -2.219073    0.349804   -0.413201
     11          6           0       -0.025045   -0.555082    0.619894
     12          6           0       -1.640067   -2.920957   -1.912807
     13          6           0       -0.525791   -3.926492   -1.840462
     14          6           0        0.648884   -3.670975   -0.873826
     15          8           0        0.817756   -4.152861    0.271230
     16          8           0        1.473942   -2.749675   -1.433998
     17          7           0       -4.218935    2.551541   -0.091352
     18          6           0       -2.856343    2.741278   -0.107574
     19          6           0       -2.588685    4.076233    0.272376
     20          6           0       -3.794853    4.795441    0.319038
     21          6           0       -4.813693    3.787564    0.090291
     22          6           0       -1.184079    4.541423    0.495032
     23          6           0       -4.043965    6.272646    0.554729
     24          8           0       -5.194703    6.690470    0.386035
     25          6           0       -2.938001    7.239600    0.819277
     26          7           0       -7.221595    1.775421    0.036806
     27          6           0       -7.286049    3.097055   -0.032320
     28          6           0       -8.758900    3.568999    0.117374
     29          6           0       -9.568877    2.306875   -0.038822
     30          6           0       -8.440525    1.229083    0.044600
     31          6           0       -9.084390    4.305602    1.446937
     32          6           0      -10.341317    2.170683   -1.345343
     33          6           0      -11.750278    1.668589   -1.275711
     34          7           0       -6.339256   -0.914730    0.111389
     35          6           0       -7.713352   -1.146077    0.344210
     36          6           0       -7.875241   -2.544931    0.648269
     37          6           0       -6.578679   -3.113929    0.534474
     38          6           0       -5.735012   -2.125031    0.098294
     39          6           0       -9.144245   -3.320438    0.987349
     40          6           0       -5.845163   -4.354940    0.581537
     41          8           0       -6.102562   -5.506443    0.796622
     42          6           0       -4.364352   -4.032535    0.251257
     43          6           0       -3.680274   -4.295259    1.574942
     44          8           0       -3.994517   -3.786842    2.616211
     45          8           0       -2.631412   -5.209376    1.370091
     46          6           0       -1.878617   -5.472535    2.578339
     47          6           0        2.816741   -2.632386   -0.882505
     48          6           0        3.678477   -2.162409   -1.966975
     49          6           0        5.052399   -2.276863   -2.026313
     50          6           0        5.837716   -3.051849   -1.046472
     51          6           0        5.892553   -1.861158   -3.214488
     52          6           0        6.524636   -0.428048   -3.274399
     53          6           0        8.039316   -0.319266   -3.618364
     54          6           0        8.941826    0.437006   -2.530174
     55          6           0        8.776366   -0.257862   -1.163438
     56          6           0       10.516063    0.610772   -2.846138
     57          6           0       11.084688    1.916634   -2.164462
     58          6           0       12.592139    1.722055   -1.887456
     59          6           0       13.017859    2.363137   -0.498997
     60          6           0       14.016185    3.517978   -0.327298
     61          6           0       13.324108    1.311566    0.646890
     62          6           0       12.528208    1.523541    1.920793
     63          6           0       12.687657    0.329330    2.836167
     64          6           0       12.244244    0.444232    4.331699
     65          6           0       13.412751   -0.072189    5.184539
     66          6           0       10.876232   -0.245812    4.661209
     67          1           0       -0.905141    1.973658   -0.377094
     68          1           0       -6.575874    5.031038    0.049462
     69          1           0       -9.698114   -0.381581    0.384127
     70          1           0       -1.613466   -2.667688    0.337681
     71          1           0       -0.576296   -0.597081   -1.490748
     72          1           0        0.125103    0.472426    0.951079
     73          1           0        0.969274   -1.001610    0.593570
     74          1           0       -0.415803   -0.957759    1.554526
     75          1           0       -1.411832   -2.314692   -2.788885
     76          1           0       -2.590245   -3.388016   -2.172644
     77          1           0       -0.058203   -3.762736   -2.811412
     78          1           0       -0.905358   -4.931446   -1.652636
     79          1           0       -1.149029    4.841906    1.542026
     80          1           0       -0.773853    5.356213   -0.100864
     81          1           0       -0.452315    3.733490    0.476080
     82          1           0       -2.360406    7.310392   -0.102194
     83          1           0       -2.353027    7.084649    1.725478
     84          1           0       -3.429886    8.197604    0.986557
     85          1           0       -9.080532    4.239162   -0.680230
     86          1           0      -10.330984    2.239515    0.737871
     87          1           0       -8.197489    4.016262    2.009940
     88          1           0       -9.958852    3.889728    1.948007
     89          1           0       -9.232541    5.384899    1.435903
     90          1           0       -9.796332    1.383480   -1.865312
     91          1           0      -10.239077    3.074584   -1.946807
     92          1           0      -12.466305    2.442291   -1.552952
     93          1           0      -11.991501    1.278951   -0.286625
     94          1           0      -11.838271    0.852479   -1.992811
     95          1           0       -9.685689   -3.708928    0.124976
     96          1           0       -9.901824   -2.546705    1.118439
     97          1           0       -9.137849   -3.966511    1.864852
     98          1           0       -3.927902   -4.669340   -0.518854
     99          1           0       -2.337588   -6.314731    3.097849
    100          1           0       -1.784523   -4.743137    3.382419
    101          1           0       -0.905102   -5.763782    2.184150
    102          1           0        3.124422   -3.654385   -0.662789
    103          1           0        2.790406   -1.865765   -0.108048
    104          1           0        3.105862   -1.842395   -2.837334
    105          1           0        5.215081   -3.308570   -0.189436
    106          1           0        6.673098   -2.551595   -0.556475
    107          1           0        6.145514   -3.956638   -1.570390
    108          1           0        5.290031   -2.077130   -4.096404
    109          1           0        6.787590   -2.473101   -3.330267
    110          1           0        6.364744    0.031776   -2.299558
    111          1           0        5.927704    0.057025   -4.047794
    112          1           0        8.125682    0.207976   -4.569101
    113          1           0        8.560990   -1.275735   -3.665074
    114          1           0        8.434158    1.389041   -2.377256
    115          1           0        8.083346    0.367175   -0.599306
    116          1           0        9.709011   -0.367042   -0.609643
    117          1           0        8.501616   -1.285039   -1.403720
    118          1           0       10.653635    0.764316   -3.917242
    119          1           0       11.052199   -0.318184   -2.652043
    120          1           0       10.559163    2.207710   -1.254939
    121          1           0       10.976155    2.735598   -2.875829
    122          1           0       13.116129    2.268086   -2.673045
    123          1           0       12.892717    0.675128   -1.913945
    124          1           0       12.066213    2.782818   -0.170932
    125          1           0       14.170266    3.905022   -1.334151
    126          1           0       15.038333    3.300955   -0.017192
    127          1           0       13.678908    4.253899    0.402443
    128          1           0       14.374825    1.331641    0.934786
    129          1           0       12.997729    0.324371    0.319104
    130          1           0       11.509631    1.776762    1.627507
    131          1           0       12.947026    2.315388    2.541563
    132          1           0       13.756766    0.115601    2.819114
    133          1           0       12.187759   -0.460462    2.275512
    134          1           0       11.969601    1.463298    4.601458
    135          1           0       13.991059    0.680781    5.719796
    136          1           0       14.288976   -0.542233    4.736644
    137          1           0       12.981892   -0.715112    5.952334
    138          1           0       10.910128   -1.126271    5.301627
    139          1           0       10.346875   -0.546619    3.756913
    140          1           0       10.258572    0.475667    5.196793
 ---------------------------------------------------------------------

 SCF Done:  E(RwB97XD) =  -3007.85440757     A.U. after   20 cycles

 Excitation energies and oscillator strengths:

 Excited State   1:      Singlet-A      1.7050 eV  727.18 nm  f=0.3624  <S**2>=0.000
     245 -> 248        0.20294
     246 -> 247        0.67886
     245 <- 248        0.11894
 This state for optimization and/or second-order correction.
 Total Energy, E(TD-HF/TD-DFT) =  -3007.79175001
 Copying the excited state density for this state as the 1-particle RhoCI density.

 Excited State   2:      Singlet-A      2.1841 eV  567.67 nm  f=0.1139  <S**2>=0.000
     245 -> 247        0.63794
     246 -> 248       -0.28936

 Excited State   3:      Singlet-A      3.3606 eV  368.93 nm  f=0.0001  <S**2>=0.000
     241 -> 247       -0.16426
     244 -> 247        0.66087

 Excited State   4:      Singlet-A      3.5094 eV  353.29 nm  f=0.1818  <S**2>=0.000
     241 -> 247        0.47099
     242 -> 247        0.11857
     243 -> 247       -0.16112
     245 -> 247        0.13841
     246 -> 248        0.41098

 Excited State   5:      Singlet-A      3.5694 eV  347.35 nm  f=0.0588  <S**2>=0.000
     241 -> 247        0.11884
     242 -> 247       -0.31020
     242 -> 249        0.13212
     242 -> 250       -0.11760
     243 -> 247        0.44812
     243 -> 249       -0.18823
     243 -> 250        0.16733
     246 -> 248        0.22146

 The electronic state is 1-A.
 Alpha  occ. eigenvalues --  -46.93971 -19.31158 -19.29553 -19.25362 -19.24664
 Alpha  occ. eigenvalues --  -19.23981 -19.23026 -14.46684 -14.46119 -14.43924
 Alpha  occ. eigenvalues --  -14.43113 -10.44119 -10.42492 -10.39404 -10.37835
 Alpha  occ. eigenvalues --  -10.36546 -10.35260 -10.35248 -10.34255 -10.34033
 Alpha  occ. eigenvalues --  -10.34029 -10.33477 -10.33465 -10.33174 -10.32545
 Alpha  occ. eigenvalues --  -10.32329 -10.32094 -10.32071 -10.31922 -10.31907
 Alpha  occ. eigenvalues --  -10.31813 -10.31597 -10.31503 -10.31061 -10.30854
 Alpha  occ. eigenvalues --  -10.30738 -10.30689 -10.30633 -10.30613 -10.30532
 Alpha  occ. eigenvalues --  -10.30463 -10.30382 -10.30312 -10.30199 -10.30131
 Alpha  occ. eigenvalues --  -10.30016 -10.29959 -10.29932 -10.29896 -10.29860
 Alpha  occ. eigenvalues --  -10.29705 -10.29669 -10.29629 -10.29626 -10.29330
 Alpha  occ. eigenvalues --  -10.29138 -10.28956 -10.28936 -10.28753 -10.28431
 Alpha  occ. eigenvalues --  -10.28401 -10.28399 -10.28367 -10.28325 -10.28137
 Alpha  occ. eigenvalues --  -10.28130  -3.20028  -1.93626  -1.93148  -1.93011
 Alpha  occ. eigenvalues --   -1.19366  -1.17666  -1.12599  -1.11980  -1.10228
 Alpha  occ. eigenvalues --   -1.09493  -1.06853  -1.05111  -1.04887  -1.03481
 Alpha  occ. eigenvalues --   -0.94466  -0.93042  -0.91581  -0.91397  -0.91365
 Alpha  occ. eigenvalues --   -0.90472  -0.90399  -0.89311  -0.89061  -0.89052
 Alpha  occ. eigenvalues --   -0.87752  -0.87416  -0.86546  -0.85690  -0.85540
 Alpha  occ. eigenvalues --   -0.84618  -0.84294  -0.83715  -0.83073  -0.82342
 Alpha  occ. eigenvalues --   -0.81939  -0.80261  -0.79623  -0.78769  -0.77807
 Alpha  occ. eigenvalues --   -0.77554  -0.77382  -0.76936  -0.76772  -0.75815
 Alpha  occ. eigenvalues --   -0.75560  -0.74513  -0.73614  -0.72515  -0.70709
 Alpha  occ. eigenvalues --   -0.70382  -0.70206  -0.69169  -0.68575  -0.67393
 Alpha  occ. eigenvalues --   -0.67203  -0.67195  -0.66833  -0.66048  -0.65910
 Alpha  occ. eigenvalues --   -0.65867  -0.65218  -0.64331  -0.63796  -0.62433
 Alpha  occ. eigenvalues --   -0.62215  -0.61622  -0.61163  -0.60786  -0.60121
 Alpha  occ. eigenvalues --   -0.59718  -0.59138  -0.58363  -0.58126  -0.57523
 Alpha  occ. eigenvalues --   -0.56996  -0.56954  -0.56748  -0.56306  -0.55778
 Alpha  occ. eigenvalues --   -0.55588  -0.55439  -0.55311  -0.55112  -0.54995
 Alpha  occ. eigenvalues --   -0.54700  -0.54498  -0.54272  -0.54057  -0.53903
 Alpha  occ. eigenvalues --   -0.53635  -0.53339  -0.53028  -0.52910  -0.52765
 Alpha  occ. eigenvalues --   -0.52598  -0.52559  -0.52393  -0.52062  -0.51992
 Alpha  occ. eigenvalues --   -0.51419  -0.51242  -0.50938  -0.50771  -0.50676
 Alpha  occ. eigenvalues --   -0.50170  -0.49951  -0.49731  -0.49633  -0.49222
 Alpha  occ. eigenvalues --   -0.49183  -0.49101  -0.48904  -0.48674  -0.48567
 Alpha  occ. eigenvalues --   -0.48302  -0.48127  -0.47828  -0.47584  -0.47528
 Alpha  occ. eigenvalues --   -0.47334  -0.47209  -0.47097  -0.46837  -0.46772
 Alpha  occ. eigenvalues --   -0.46248  -0.46157  -0.45978  -0.45767  -0.45716
 Alpha  occ. eigenvalues --   -0.45293  -0.45181  -0.45121  -0.44851  -0.44827
 Alpha  occ. eigenvalues --   -0.44574  -0.44471  -0.44340  -0.44194  -0.44069
 Alpha  occ. eigenvalues --   -0.43820  -0.43784  -0.43089  -0.43023  -0.42884
 Alpha  occ. eigenvalues --   -0.42869  -0.42665  -0.42314  -0.42254  -0.42114
 Alpha  occ. eigenvalues --   -0.42009  -0.41452  -0.41357  -0.40748  -0.40303
 Alpha  occ. eigenvalues --   -0.40119  -0.40082  -0.39625  -0.39619  -0.39503
 Alpha  occ. eigenvalues --   -0.39258  -0.39055  -0.38606  -0.38396  -0.37963
 Alpha  occ. eigenvalues --   -0.37925  -0.37637  -0.37298  -0.36468  -0.36278
 Alpha  occ. eigenvalues --   -0.36054  -0.35986  -0.35649  -0.33286  -0.33265
 Alpha  occ. eigenvalues --   -0.32131  -0.31978  -0.31972  -0.31346  -0.25658
 Alpha  occ. eigenvalues --   -0.23051
 Alpha virt. eigenvalues --   -0.06736   0.00195   0.02797   0.04885   0.05638
 Alpha virt. eigenvalues --    0.06166   0.06773   0.08425   0.08463   0.09764
 Alpha virt. eigenvalues --    0.10877   0.10909   0.11787   0.12300   0.12868

 Mulliken charges:
               1
     1  Mg   0.962850
     2  C   -0.070449
     3  C   -0.131992
     4  C   -0.065741
     5  C   -0.091637
     6  N   -0.408405
     7  C    0.007606
     8  C   -0.053469
     9  C   -0.075698
    10  C    0.102773
    11  C    0.014301
    12  C    0.029571
    13  C    0.039871
    14  C    0.205649
    15  O   -0.286706
    16  O   -0.371369
    17  N   -0.477214
    18  C    0.199059
    19  C   -0.165935
    20  C   -0.044809
    21  C    0.162490
    22  C    0.068865
    23  C    0.042048
    24  O   -0.248254
    25  C   -0.000464
    26  N   -0.288570
    27  C    0.029227
    28  C   -0.083180
    29  C   -0.094325
    30  C    0.027110
    31  C    0.013914
    32  C    0.000937
    33  C   -0.038800
    34  N   -0.477705
    35  C    0.171908
    36  C   -0.191253
    37  C   -0.031064
    38  C    0.192730
    39  C    0.110927
    40  C    0.091905
    41  O   -0.183310
    42  C   -0.057231
    43  C    0.261545
    44  O   -0.218288
    45  O   -0.370790
    46  C    0.128149
    47  C    0.271966
    48  C   -0.175162
    49  C   -0.186980
    50  C    0.015821
    51  C    0.022108
    52  C   -0.011728
    53  C   -0.006567
    54  C   -0.215858
    55  C   -0.006865
    56  C   -0.003520
    57  C   -0.042404
    58  C    0.031470
    59  C   -0.169655
    60  C    0.006258
    61  C   -0.013718
    62  C   -0.043807
    63  C   -0.005510
    64  C   -0.158357
    65  C   -0.018040
    66  C   -0.015553
    67  H    0.010653
    68  H    0.031365
    69  H   -0.007028
    70  H    0.054123
    71  H    0.041803
    72  H    0.016742
    73  H    0.020699
    74  H    0.029877
    75  H    0.032445
    76  H    0.039874
    77  H    0.043699
    78  H    0.070467
    79  H    0.040614
    80  H    0.053155
    81  H    0.023509
    82  H    0.067295
    83  H    0.060508
    84  H    0.049550
    85  H    0.027500
    86  H    0.025054
    87  H    0.041699
    88  H    0.030307
    89  H    0.050865
    90  H    0.026173
    91  H    0.028276
    92  H    0.040585
    93  H    0.029909
    94  H    0.036258
    95  H    0.040815
    96  H   -0.009368
    97  H    0.077565
    98  H    0.054759
    99  H    0.040101
   100  H    0.055755
   101  H    0.065646
   102  H    0.066212
   103  H    0.073798
   104  H    0.030811
   105  H    0.020334
   106  H    0.049568
   107  H    0.059343
   108  H    0.028439
   109  H    0.004608
   110  H    0.023162
   111  H    0.034825
   112  H    0.028679
   113  H    0.022749
   114  H    0.018638
   115  H    0.043366
   116  H    0.028786
   117  H    0.022225
   118  H    0.015812
   119  H    0.024739
   120  H    0.029295
   121  H    0.034585
   122  H    0.013394
   123  H    0.027658
   124  H    0.013851
   125  H    0.016582
   126  H    0.021187
   127  H    0.038525
   128  H    0.021029
   129  H    0.002760
   130  H    0.015436
   131  H    0.009564
   132  H    0.013308
   133  H    0.012416
   134  H    0.028001
   135  H    0.020088
   136  H    0.031461
   137  H    0.021917
   138  H    0.027673
   139  H    0.026315
   140  H    0.026933
 Sum of Mulliken charges =  -0.00000

 Dipole moment (field-independent basis, Debye):
    X=              5.0102    Y=              4.0167    Z=             -3.6822  Tot=              7.4024
 Quadrupole moment (field-independent basis, Debye-Ang):
   XX=           -373.1231   YY=           -428.8893   ZZ=           -398.2503
   XY=            -17.4779   XZ=             11.2608   YZ=             14.6108

 Normal termination of Gaussian 16 at Sat Apr 30 11:36:12 2022.
