 Gaussian 16, Revision A.03,
 Gaussian 16:  ES64L-G16RevA.03 25-Dec-2016

 --------------------
 #p ZINDO=(nstates=5)
 --------------------

 ----------------------------
 step_701_chromophore_3 ZINDO
 ----------------------------
 Symbolic Z-matrix:
 Charge =  0 Multiplicity = 1

                         Standard orientation:
 ---------------------------------------------------------------------
 Center     Atomic      Atomic             Coordinates (Angstroms)
 Number     Number       Type             X           Y           Z
 ---------------------------------------------------------------------
      1         12           0       -5.267421    0.779166   -0.288089
      2          6           0       -4.419265   -2.548041   -0.045588
      3          6           0       -1.959138    1.710044   -0.266639
      4          6           0       -6.204918    4.004109    0.031041
      5          6           0       -8.649613   -0.124631    0.223369
      6          7           0       -3.445898   -0.328328   -0.418134
      7          6           0       -3.292122   -1.700429   -0.311448
      8          6           0       -1.860117   -2.100532   -0.559811
      9          6           0       -1.071701   -0.675664   -0.523233
     10          6           0       -2.219073    0.349804   -0.413201
     11          6           0       -0.025045   -0.555082    0.619894
     12          6           0       -1.640067   -2.920957   -1.912807
     13          6           0       -0.525791   -3.926492   -1.840462
     14          6           0        0.648884   -3.670975   -0.873826
     15          8           0        0.817756   -4.152861    0.271230
     16          8           0        1.473942   -2.749675   -1.433998
     17          7           0       -4.218935    2.551541   -0.091352
     18          6           0       -2.856343    2.741278   -0.107574
     19          6           0       -2.588685    4.076233    0.272376
     20          6           0       -3.794853    4.795441    0.319038
     21          6           0       -4.813693    3.787564    0.090291
     22          6           0       -1.184079    4.541423    0.495032
     23          6           0       -4.043965    6.272646    0.554729
     24          8           0       -5.194703    6.690470    0.386035
     25          6           0       -2.938001    7.239600    0.819277
     26          7           0       -7.221595    1.775421    0.036806
     27          6           0       -7.286049    3.097055   -0.032320
     28          6           0       -8.758900    3.568999    0.117374
     29          6           0       -9.568877    2.306875   -0.038822
     30          6           0       -8.440525    1.229083    0.044600
     31          6           0       -9.084390    4.305602    1.446937
     32          6           0      -10.341317    2.170683   -1.345343
     33          6           0      -11.750278    1.668589   -1.275711
     34          7           0       -6.339256   -0.914730    0.111389
     35          6           0       -7.713352   -1.146077    0.344210
     36          6           0       -7.875241   -2.544931    0.648269
     37          6           0       -6.578679   -3.113929    0.534474
     38          6           0       -5.735012   -2.125031    0.098294
     39          6           0       -9.144245   -3.320438    0.987349
     40          6           0       -5.845163   -4.354940    0.581537
     41          8           0       -6.102562   -5.506443    0.796622
     42          6           0       -4.364352   -4.032535    0.251257
     43          6           0       -3.680274   -4.295259    1.574942
     44          8           0       -3.994517   -3.786842    2.616211
     45          8           0       -2.631412   -5.209376    1.370091
     46          6           0       -1.878617   -5.472535    2.578339
     47          6           0        2.816741   -2.632386   -0.882505
     48          6           0        3.678477   -2.162409   -1.966975
     49          6           0        5.052399   -2.276863   -2.026313
     50          6           0        5.837716   -3.051849   -1.046472
     51          6           0        5.892553   -1.861158   -3.214488
     52          6           0        6.524636   -0.428048   -3.274399
     53          6           0        8.039316   -0.319266   -3.618364
     54          6           0        8.941826    0.437006   -2.530174
     55          6           0        8.776366   -0.257862   -1.163438
     56          6           0       10.516063    0.610772   -2.846138
     57          6           0       11.084688    1.916634   -2.164462
     58          6           0       12.592139    1.722055   -1.887456
     59          6           0       13.017859    2.363137   -0.498997
     60          6           0       14.016185    3.517978   -0.327298
     61          6           0       13.324108    1.311566    0.646890
     62          6           0       12.528208    1.523541    1.920793
     63          6           0       12.687657    0.329330    2.836167
     64          6           0       12.244244    0.444232    4.331699
     65          6           0       13.412751   -0.072189    5.184539
     66          6           0       10.876232   -0.245812    4.661209
     67          1           0       -0.905141    1.973658   -0.377094
     68          1           0       -6.575874    5.031038    0.049462
     69          1           0       -9.698114   -0.381581    0.384127
     70          1           0       -1.613466   -2.667688    0.337681
     71          1           0       -0.576296   -0.597081   -1.490748
     72          1           0        0.125103    0.472426    0.951079
     73          1           0        0.969274   -1.001610    0.593570
     74          1           0       -0.415803   -0.957759    1.554526
     75          1           0       -1.411832   -2.314692   -2.788885
     76          1           0       -2.590245   -3.388016   -2.172644
     77          1           0       -0.058203   -3.762736   -2.811412
     78          1           0       -0.905358   -4.931446   -1.652636
     79          1           0       -1.149029    4.841906    1.542026
     80          1           0       -0.773853    5.356213   -0.100864
     81          1           0       -0.452315    3.733490    0.476080
     82          1           0       -2.360406    7.310392   -0.102194
     83          1           0       -2.353027    7.084649    1.725478
     84          1           0       -3.429886    8.197604    0.986557
     85          1           0       -9.080532    4.239162   -0.680230
     86          1           0      -10.330984    2.239515    0.737871
     87          1           0       -8.197489    4.016262    2.009940
     88          1           0       -9.958852    3.889728    1.948007
     89          1           0       -9.232541    5.384899    1.435903
     90          1           0       -9.796332    1.383480   -1.865312
     91          1           0      -10.239077    3.074584   -1.946807
     92          1           0      -12.466305    2.442291   -1.552952
     93          1           0      -11.991501    1.278951   -0.286625
     94          1           0      -11.838271    0.852479   -1.992811
     95          1           0       -9.685689   -3.708928    0.124976
     96          1           0       -9.901824   -2.546705    1.118439
     97          1           0       -9.137849   -3.966511    1.864852
     98          1           0       -3.927902   -4.669340   -0.518854
     99          1           0       -2.337588   -6.314731    3.097849
    100          1           0       -1.784523   -4.743137    3.382419
    101          1           0       -0.905102   -5.763782    2.184150
    102          1           0        3.124422   -3.654385   -0.662789
    103          1           0        2.790406   -1.865765   -0.108048
    104          1           0        3.105862   -1.842395   -2.837334
    105          1           0        5.215081   -3.308570   -0.189436
    106          1           0        6.673098   -2.551595   -0.556475
    107          1           0        6.145514   -3.956638   -1.570390
    108          1           0        5.290031   -2.077130   -4.096404
    109          1           0        6.787590   -2.473101   -3.330267
    110          1           0        6.364744    0.031776   -2.299558
    111          1           0        5.927704    0.057025   -4.047794
    112          1           0        8.125682    0.207976   -4.569101
    113          1           0        8.560990   -1.275735   -3.665074
    114          1           0        8.434158    1.389041   -2.377256
    115          1           0        8.083346    0.367175   -0.599306
    116          1           0        9.709011   -0.367042   -0.609643
    117          1           0        8.501616   -1.285039   -1.403720
    118          1           0       10.653635    0.764316   -3.917242
    119          1           0       11.052199   -0.318184   -2.652043
    120          1           0       10.559163    2.207710   -1.254939
    121          1           0       10.976155    2.735598   -2.875829
    122          1           0       13.116129    2.268086   -2.673045
    123          1           0       12.892717    0.675128   -1.913945
    124          1           0       12.066213    2.782818   -0.170932
    125          1           0       14.170266    3.905022   -1.334151
    126          1           0       15.038333    3.300955   -0.017192
    127          1           0       13.678908    4.253899    0.402443
    128          1           0       14.374825    1.331641    0.934786
    129          1           0       12.997729    0.324371    0.319104
    130          1           0       11.509631    1.776762    1.627507
    131          1           0       12.947026    2.315388    2.541563
    132          1           0       13.756766    0.115601    2.819114
    133          1           0       12.187759   -0.460462    2.275512
    134          1           0       11.969601    1.463298    4.601458
    135          1           0       13.991059    0.680781    5.719796
    136          1           0       14.288976   -0.542233    4.736644
    137          1           0       12.981892   -0.715112    5.952334
    138          1           0       10.910128   -1.126271    5.301627
    139          1           0       10.346875   -0.546619    3.756913
    140          1           0       10.258572    0.475667    5.196793
 ---------------------------------------------------------------------

 SCF Done:  E(RZINDO/S) =  -474.455159621     A.U. after   20 cycles

 Excitation energies and oscillator strengths:

 Excited State   1:      Singlet-A      1.2693 eV  976.79 nm  f=0.5787  <S**2>=0.000
     175 ->178        -0.20422
     176 ->177         0.65981
 This state for optimization and/or second-order correction.
 Total Energy, E(CIS/TDA) =  -474.408513547
 Copying the excited state density for this state as the 1-particle RhoCI density.

 Excited State   2:      Singlet-A      1.9389 eV  639.45 nm  f=0.0505  <S**2>=0.000
     175 ->177         0.55134
     176 ->178         0.42009

 Excited State   3:      Singlet-A      2.9115 eV  425.84 nm  f=0.0002  <S**2>=0.000
     168 ->177         0.26054
     168 ->178        -0.12873
     168 ->179        -0.35932
     168 ->181        -0.28202
     168 ->186        -0.18167
     169 ->177         0.16347
     169 ->179        -0.21460
     169 ->181        -0.16427
     169 ->186        -0.10617

 Excited State   4:      Singlet-A      2.9485 eV  420.50 nm  f=0.0165  <S**2>=0.000
     170 ->177         0.32523
     170 ->179         0.31855
     170 ->181        -0.32795
     170 ->186         0.20227
     170 ->187         0.17706
     170 ->203        -0.12449
     172 ->177         0.12235

 Excited State   5:      Singlet-A      3.0608 eV  405.07 nm  f=1.1403  <S**2>=0.000
     175 ->177        -0.36997
     176 ->178         0.50766
     176 ->179         0.23990

 The electronic state is 1-A.
 Alpha  occ. eigenvalues --   -1.84904  -1.82373  -1.80392  -1.75228  -1.71763
 Alpha  occ. eigenvalues --   -1.70107  -1.63970  -1.60316  -1.60223  -1.59192
 Alpha  occ. eigenvalues --   -1.54535  -1.51149  -1.49450  -1.48482  -1.47309
 Alpha  occ. eigenvalues --   -1.44170  -1.43807  -1.40534  -1.40331  -1.39566
 Alpha  occ. eigenvalues --   -1.36283  -1.33914  -1.32688  -1.32362  -1.28934
 Alpha  occ. eigenvalues --   -1.28097  -1.25287  -1.22470  -1.21575  -1.18485
 Alpha  occ. eigenvalues --   -1.16659  -1.16329  -1.14591  -1.13481  -1.12986
 Alpha  occ. eigenvalues --   -1.12578  -1.10241  -1.09721  -1.04279  -1.03737
 Alpha  occ. eigenvalues --   -1.03079  -1.01186  -0.99262  -0.97411  -0.96510
 Alpha  occ. eigenvalues --   -0.95501  -0.95107  -0.93305  -0.92819  -0.92341
 Alpha  occ. eigenvalues --   -0.91401  -0.90936  -0.88453  -0.87496  -0.86657
 Alpha  occ. eigenvalues --   -0.86120  -0.84479  -0.83423  -0.82580  -0.80532
 Alpha  occ. eigenvalues --   -0.79915  -0.79339  -0.77761  -0.77370  -0.76471
 Alpha  occ. eigenvalues --   -0.75779  -0.75405  -0.74392  -0.74167  -0.73810
 Alpha  occ. eigenvalues --   -0.72571  -0.72257  -0.71923  -0.71670  -0.71178
 Alpha  occ. eigenvalues --   -0.70917  -0.69954  -0.69278  -0.68608  -0.67422
 Alpha  occ. eigenvalues --   -0.67215  -0.67032  -0.66826  -0.66747  -0.66102
 Alpha  occ. eigenvalues --   -0.65567  -0.64731  -0.64665  -0.64196  -0.63355
 Alpha  occ. eigenvalues --   -0.63190  -0.62775  -0.62464  -0.62240  -0.61855
 Alpha  occ. eigenvalues --   -0.61816  -0.61340  -0.60919  -0.60151  -0.59775
 Alpha  occ. eigenvalues --   -0.59497  -0.59075  -0.58818  -0.58133  -0.58061
 Alpha  occ. eigenvalues --   -0.57615  -0.57121  -0.56772  -0.56602  -0.56069
 Alpha  occ. eigenvalues --   -0.55637  -0.55170  -0.54996  -0.54474  -0.54277
 Alpha  occ. eigenvalues --   -0.54044  -0.53539  -0.52835  -0.52560  -0.52437
 Alpha  occ. eigenvalues --   -0.52212  -0.51662  -0.51339  -0.51156  -0.50907
 Alpha  occ. eigenvalues --   -0.50698  -0.50527  -0.50374  -0.50237  -0.50145
 Alpha  occ. eigenvalues --   -0.49955  -0.49877  -0.49354  -0.49261  -0.49036
 Alpha  occ. eigenvalues --   -0.48700  -0.48441  -0.48245  -0.47667  -0.47165
 Alpha  occ. eigenvalues --   -0.47145  -0.46981  -0.46623  -0.46336  -0.46104
 Alpha  occ. eigenvalues --   -0.45956  -0.45722  -0.45660  -0.45053  -0.44946
 Alpha  occ. eigenvalues --   -0.44556  -0.44306  -0.44241  -0.44214  -0.44012
 Alpha  occ. eigenvalues --   -0.43852  -0.43802  -0.43193  -0.42700  -0.42104
 Alpha  occ. eigenvalues --   -0.41950  -0.41805  -0.41135  -0.39232  -0.38971
 Alpha  occ. eigenvalues --   -0.37892  -0.36693  -0.35380  -0.35001  -0.34021
 Alpha  occ. eigenvalues --   -0.33203  -0.32293  -0.31901  -0.31877  -0.26282
 Alpha  occ. eigenvalues --   -0.21759
 Alpha virt. eigenvalues --   -0.08252  -0.01972  -0.00144   0.01052   0.01700
 Alpha virt. eigenvalues --    0.02788   0.03038   0.03671   0.03783   0.05130
 Alpha virt. eigenvalues --    0.06435   0.07577   0.07881   0.08095   0.08658

 Mulliken charges:
               1
     1  Mg   0.418434
     2  C   -0.052293
     3  C   -0.070382
     4  C   -0.052363
     5  C   -0.044931
     6  N   -0.292109
     7  C    0.127141
     8  C   -0.001056
     9  C    0.007253
    10  C    0.127804
    11  C   -0.059673
    12  C   -0.012244
    13  C    0.008211
    14  C    0.467718
    15  O   -0.532395
    16  O   -0.277542
    17  N   -0.331851
    18  C    0.118411
    19  C    0.013294
    20  C   -0.040709
    21  C    0.132774
    22  C   -0.049107
    23  C    0.331661
    24  O   -0.527968
    25  C   -0.028442
    26  N   -0.242092
    27  C    0.131218
    28  C    0.005303
    29  C    0.001708
    30  C    0.118356
    31  C   -0.058833
    32  C   -0.030023
    33  C   -0.052365
    34  N   -0.342090
    35  C    0.091936
    36  C    0.032053
    37  C   -0.048728
    38  C    0.133687
    39  C   -0.051094
    40  C    0.344701
    41  O   -0.522283
    42  C    0.046419
    43  C    0.492042
    44  O   -0.506782
    45  O   -0.272436
    46  C    0.072919
    47  C    0.109139
    48  C   -0.092146
    49  C   -0.010615
    50  C   -0.041011
    51  C   -0.027587
    52  C   -0.029312
    53  C   -0.035967
    54  C   -0.030350
    55  C   -0.063653
    56  C   -0.036077
    57  C   -0.031882
    58  C   -0.029929
    59  C   -0.030389
    60  C   -0.052626
    61  C   -0.039743
    62  C   -0.035304
    63  C   -0.036105
    64  C   -0.006015
    65  C   -0.061279
    66  C   -0.059317
    67  H    0.025802
    68  H    0.050124
    69  H    0.021401
    70  H    0.048568
    71  H    0.030893
    72  H    0.013453
    73  H    0.032479
    74  H    0.017785
    75  H    0.027073
    76  H    0.024243
    77  H    0.034034
    78  H    0.047315
    79  H    0.022485
    80  H    0.031686
    81  H    0.020229
    82  H    0.044905
    83  H    0.040780
    84  H    0.030958
    85  H    0.024150
    86  H    0.030930
    87  H    0.024657
    88  H    0.017503
    89  H    0.030396
    90  H    0.014380
    91  H    0.023182
    92  H    0.019351
    93  H    0.021452
    94  H    0.016593
    95  H    0.038803
    96  H    0.006191
    97  H    0.050445
    98  H    0.053777
    99  H    0.032957
   100  H    0.053150
   101  H    0.032527
   102  H    0.062413
   103  H    0.061816
   104  H    0.032498
   105  H    0.010853
   106  H    0.029542
   107  H    0.035236
   108  H    0.017077
   109  H    0.017541
   110  H    0.024941
   111  H    0.020523
   112  H    0.016134
   113  H    0.022965
   114  H    0.015645
   115  H    0.025288
   116  H    0.014435
   117  H    0.022705
   118  H    0.009422
   119  H    0.030063
   120  H    0.029444
   121  H    0.020123
   122  H    0.016752
   123  H    0.027732
   124  H    0.012292
   125  H    0.011745
   126  H    0.017428
   127  H    0.024721
   128  H    0.023380
   129  H    0.014771
   130  H    0.021267
   131  H    0.012082
   132  H    0.017279
   133  H    0.016677
   134  H    0.025584
   135  H    0.010839
   136  H    0.025310
   137  H    0.014159
   138  H    0.020957
   139  H    0.016649
   140  H    0.013967
 Sum of Mulliken charges =  -0.00000

 Dipole moment (field-independent basis, Debye):
    X=              6.1323    Y=              4.1491    Z=             -5.4032  Tot=              9.1659
 N-N= 4.302939881190D+03 E-N= 0.000000000000D+00  KE=-9.280673424529D+03
 Leave Link  601 at Sat Apr 30 11:55:34 2022, MaxMem=  6710886400 cpu:               0.8 elap:               0.1
 (Enter /sw/apps/gaussian-16.0/g16/l9999.exe)
 1\1\GINC-BP1-COMPUTE180\SP\RZINDO CIS\STO-3G\C55H74Mg1N4O6\OF15641\30-
 Apr-2022\0\\#p ZINDO=(nstates=5)\\step_701_chromophore_3 ZINDO\\0,1\Mg
 ,0,1.669,7.998,27.045\C,0,1.664,10.332,29.575\C,0,2.256,5.454,29.28\C,
 0,2.203,5.891,24.465\C,0,1.599,10.649,24.703\N,0,1.676,7.912,29.179\C,
 0,1.653,8.981,30.059\C,0,1.566,8.5,31.485\C,0,1.868,6.905,31.351\C,0,1
 .927,6.693,29.824\C,0,3.153,6.435,32.089\C,0,0.176,8.832,32.199\C,0,0.
 294,9.076,33.677\C,0,1.438,8.396,34.457\O,0,2.536,8.896,34.798\O,0,1.1

 Normal termination of Gaussian 16 at Sat Apr 30 11:55:34 2022.
