 Gaussian 16, Revision A.03,
 Gaussian 16:  ES64L-G16RevA.03 25-Dec-2016

 ------------------------------
 #p blyp/Def2SVP td=(nstates=5)
 ------------------------------

 --------------------------------------------------
 step_851_chromophore_22 TDDFT with blyp functional
 --------------------------------------------------
 Symbolic Z-matrix:
 Charge =  0 Multiplicity = 1

                         Standard orientation:
 ---------------------------------------------------------------------
 Center     Atomic      Atomic             Coordinates (Angstroms)
 Number     Number       Type             X           Y           Z
 ---------------------------------------------------------------------
      1         12           0       -6.382522    0.551670    0.127832
      2          6           0       -3.893392   -2.049054    0.437868
      3          6           0       -3.839806    2.592590    1.155009
      4          6           0       -8.472076    2.897013   -0.285128
      5          6           0       -8.781530   -1.929749   -0.466312
      6          7           0       -4.197511    0.245723    0.771156
      7          6           0       -3.365046   -0.880244    0.858757
      8          6           0       -1.866417   -0.600861    1.290253
      9          6           0       -2.027339    0.900431    1.770782
     10          6           0       -3.412590    1.251391    1.174086
     11          6           0       -2.086025    1.163636    3.291847
     12          6           0       -0.624239   -0.712885    0.287597
     13          6           0        0.487521   -1.625670    0.842207
     14          6           0        1.671548   -1.999914   -0.100533
     15          8           0        1.611176   -2.109062   -1.320478
     16          8           0        2.871668   -1.965965    0.630419
     17          7           0       -6.215947    2.539174    0.387390
     18          6           0       -5.054239    3.185411    0.728714
     19          6           0       -5.319631    4.625052    0.758135
     20          6           0       -6.685893    4.742087    0.317926
     21          6           0       -7.233848    3.391357    0.142922
     22          6           0       -4.280900    5.706975    1.095077
     23          6           0       -7.509384    5.949649    0.056246
     24          8           0       -8.758846    5.953051   -0.127722
     25          6           0       -6.778682    7.221942   -0.047030
     26          7           0       -8.351768    0.433280   -0.262046
     27          6           0       -8.956410    1.628114   -0.487885
     28          6           0      -10.345447    1.375294   -1.042613
     29          6           0      -10.509577   -0.161890   -1.104194
     30          6           0       -9.182425   -0.620303   -0.565839
     31          6           0      -11.491921    2.071884   -0.200553
     32          6           0      -10.929056   -0.673947   -2.478424
     33          6           0      -12.164420   -1.603484   -2.422435
     34          7           0       -6.376839   -1.573453    0.107601
     35          6           0       -7.473261   -2.398179   -0.146355
     36          6           0       -6.930433   -3.735973    0.041101
     37          6           0       -5.566471   -3.676466    0.140410
     38          6           0       -5.282105   -2.278400    0.187559
     39          6           0       -7.793392   -4.949863    0.182420
     40          6           0       -4.314537   -4.435646    0.292844
     41          8           0       -4.169167   -5.652777    0.245734
     42          6           0       -3.193030   -3.365614    0.444369
     43          6           0       -2.216627   -3.592728   -0.677657
     44          8           0       -2.286793   -3.097937   -1.759836
     45          8           0       -1.283640   -4.502110   -0.282857
     46          6           0       -0.149480   -4.805135   -1.120049
     47          6           0        4.104222   -2.050218   -0.199061
     48          6           0        5.177526   -1.253249    0.522593
     49          6           0        6.515636   -1.424829    0.546462
     50          6           0        7.239312   -2.387053   -0.391574
     51          6           0        7.352221   -0.395363    1.318163
     52          6           0        8.448324   -0.902676    2.298888
     53          6           0        9.789505   -0.040215    2.345137
     54          6           0       11.055617   -0.826444    1.883704
     55          6           0       12.036317   -0.982883    3.053279
     56          6           0       11.746794   -0.085976    0.760092
     57          6           0       10.868981    0.013975   -0.480201
     58          6           0       10.455855    1.516015   -0.725921
     59          6           0       11.135418    1.938625   -2.075393
     60          6           0       10.117353    2.616963   -2.948351
     61          6           0       12.462475    2.757097   -1.832809
     62          6           0       13.736214    2.177991   -2.476925
     63          6           0       15.072623    2.354307   -1.608298
     64          6           0       15.431774    1.031945   -0.818118
     65          6           0       15.978746    1.311261    0.575026
     66          6           0       16.314053    0.022169   -1.636409
     67          1           0       -3.061591    3.266708    1.518469
     68          1           0       -9.214835    3.688918   -0.403977
     69          1           0       -9.497340   -2.743041   -0.602094
     70          1           0       -1.622927   -1.103551    2.226561
     71          1           0       -1.430038    1.694386    1.321395
     72          1           0       -2.662762    2.057674    3.528067
     73          1           0       -1.061699    1.219238    3.659219
     74          1           0       -2.579653    0.336626    3.802742
     75          1           0       -0.153402    0.268113    0.224945
     76          1           0       -0.954781   -0.964071   -0.720888
     77          1           0        0.085641   -2.589599    1.156000
     78          1           0        0.896118   -1.120656    1.716819
     79          1           0       -3.306575    5.275074    1.324746
     80          1           0       -4.542600    6.416536    1.880906
     81          1           0       -4.141321    6.279717    0.178465
     82          1           0       -7.394032    8.007944   -0.485349
     83          1           0       -5.896804    7.219082   -0.688273
     84          1           0       -6.675620    7.583169    0.975582
     85          1           0      -10.268976    1.677216   -2.087942
     86          1           0      -11.198730   -0.595956   -0.379946
     87          1           0      -12.371720    1.429127   -0.182015
     88          1           0      -11.780200    3.027270   -0.638218
     89          1           0      -11.208952    2.241862    0.838526
     90          1           0      -10.140470   -1.321757   -2.860973
     91          1           0      -11.285522    0.147009   -3.101565
     92          1           0      -12.704915   -1.610899   -3.369107
     93          1           0      -12.886368   -1.314422   -1.658939
     94          1           0      -11.863314   -2.625138   -2.190469
     95          1           0       -7.184786   -5.849000    0.282471
     96          1           0       -8.551722   -5.042298   -0.594071
     97          1           0       -8.385920   -4.775471    1.079757
     98          1           0       -2.663831   -3.688218    1.340913
     99          1           0       -0.124331   -4.357856   -2.114988
    100          1           0       -0.229528   -5.883922   -1.252504
    101          1           0        0.752353   -4.624747   -0.535537
    102          1           0        4.119778   -1.722667   -1.239245
    103          1           0        4.454775   -3.080527   -0.260233
    104          1           0        4.853917   -0.493997    1.234036
    105          1           0        6.586989   -3.044723   -0.966680
    106          1           0        7.868571   -3.010862    0.244102
    107          1           0        7.874826   -1.857461   -1.100209
    108          1           0        6.636130    0.274313    1.793950
    109          1           0        7.783697    0.268052    0.569123
    110          1           0        8.661876   -1.962849    2.162478
    111          1           0        8.051588   -0.868608    3.313466
    112          1           0        9.952702    0.246283    3.383381
    113          1           0        9.731490    0.879298    1.761116
    114          1           0       10.713689   -1.803922    1.542116
    115          1           0       12.934157   -0.398654    2.854555
    116          1           0       12.289332   -2.009805    3.314113
    117          1           0       11.688186   -0.629197    4.023953
    118          1           0       12.599723   -0.744878    0.597915
    119          1           0       12.050479    0.864665    1.198929
    120          1           0        9.962638   -0.588703   -0.427868
    121          1           0       11.352507   -0.470664   -1.327857
    122          1           0       10.762282    2.131342    0.120900
    123          1           0        9.366525    1.485313   -0.701798
    124          1           0       11.431493    1.082238   -2.680838
    125          1           0        9.166113    2.720502   -2.424443
    126          1           0        9.918993    1.977724   -3.809023
    127          1           0       10.484268    3.574148   -3.318331
    128          1           0       12.587500    2.947730   -0.767403
    129          1           0       12.406468    3.775921   -2.216621
    130          1           0       13.823653    2.724956   -3.415786
    131          1           0       13.542275    1.114528   -2.617052
    132          1           0       15.039019    3.182302   -0.900975
    133          1           0       15.928642    2.583207   -2.242559
    134          1           0       14.496713    0.483155   -0.713589
    135          1           0       16.857081    0.729012    0.854281
    136          1           0       15.169139    1.147403    1.285899
    137          1           0       16.408772    2.302123    0.718835
    138          1           0       16.295652    0.338699   -2.679126
    139          1           0       16.025946   -1.020030   -1.502111
    140          1           0       17.332657    0.125295   -1.263313
 ---------------------------------------------------------------------

 SCF Done:  E(RB-LYP) =  -3007.38673982     A.U. after   20 cycles

 Excitation energies and oscillator strengths:

 Excited State   1:      Singlet-A      1.7927 eV  691.60 nm  f=0.2847  <S**2>=0.000
     244 -> 247       -0.16138
     245 -> 248        0.15005
     246 -> 247        0.67678
     246 <- 247       -0.15371
 This state for optimization and/or second-order correction.
 Total Energy, E(TD-HF/TD-DFT) =  -3007.32085837
 Copying the excited state density for this state as the 1-particle RhoCI density.

 Excited State   2:      Singlet-A      1.8742 eV  661.54 nm  f=0.0207  <S**2>=0.000
     244 -> 247        0.68733
     246 -> 247        0.15559

 Excited State   3:      Singlet-A      1.9320 eV  641.75 nm  f=0.0183  <S**2>=0.000
     243 -> 247        0.64556
     245 -> 247        0.27083

 Excited State   4:      Singlet-A      2.1071 eV  588.41 nm  f=0.0792  <S**2>=0.000
     243 -> 247       -0.27460
     245 -> 247        0.59120
     246 -> 248       -0.21543
     246 -> 249        0.12209

 Excited State   5:      Singlet-A      2.3882 eV  519.16 nm  f=0.0000  <S**2>=0.000
     241 -> 247        0.70144

 The electronic state is 1-A.
 Alpha  occ. eigenvalues --  -46.26255 -18.83006 -18.81402 -18.78020 -18.76092
 Alpha  occ. eigenvalues --  -18.75603 -18.75110 -14.03367 -14.02723 -14.01020
 Alpha  occ. eigenvalues --  -14.00401 -10.05086 -10.03238  -9.99627  -9.99287
 Alpha  occ. eigenvalues --   -9.98531  -9.96777  -9.96365  -9.96163  -9.96114
 Alpha  occ. eigenvalues --   -9.96102  -9.96059  -9.95757  -9.95589  -9.95215
 Alpha  occ. eigenvalues --   -9.94677  -9.94456  -9.94372  -9.94019  -9.93872
 Alpha  occ. eigenvalues --   -9.93700  -9.93586  -9.93399  -9.93127  -9.93057
 Alpha  occ. eigenvalues --   -9.93007  -9.92936  -9.92905  -9.92813  -9.92721
 Alpha  occ. eigenvalues --   -9.92696  -9.92694  -9.92627  -9.92364  -9.92240
 Alpha  occ. eigenvalues --   -9.92140  -9.91885  -9.91816  -9.91757  -9.91751
 Alpha  occ. eigenvalues --   -9.91624  -9.91599  -9.91550  -9.91546  -9.91532
 Alpha  occ. eigenvalues --   -9.91493  -9.91491  -9.91251  -9.91120  -9.90985
 Alpha  occ. eigenvalues --   -9.90911  -9.90812  -9.90625  -9.90615  -9.90291
 Alpha  occ. eigenvalues --   -9.90156  -2.91103  -1.71529  -1.71014  -1.70791
 Alpha  occ. eigenvalues --   -0.98039  -0.97313  -0.90898  -0.90535  -0.90224
 Alpha  occ. eigenvalues --   -0.89237  -0.86790  -0.86073  -0.85866  -0.85111
 Alpha  occ. eigenvalues --   -0.75499  -0.73819  -0.73054  -0.72893  -0.72718
 Alpha  occ. eigenvalues --   -0.71930  -0.71893  -0.70967  -0.70581  -0.70335
 Alpha  occ. eigenvalues --   -0.69633  -0.69352  -0.67866  -0.67445  -0.67055
 Alpha  occ. eigenvalues --   -0.66540  -0.65975  -0.65562  -0.65076  -0.64627
 Alpha  occ. eigenvalues --   -0.64295  -0.62533  -0.62421  -0.61976  -0.61002
 Alpha  occ. eigenvalues --   -0.60746  -0.60025  -0.59993  -0.59286  -0.59018
 Alpha  occ. eigenvalues --   -0.58369  -0.57694  -0.56827  -0.55964  -0.54617
 Alpha  occ. eigenvalues --   -0.53848  -0.53642  -0.52993  -0.52593  -0.51821
 Alpha  occ. eigenvalues --   -0.51498  -0.51417  -0.50799  -0.50482  -0.50130
 Alpha  occ. eigenvalues --   -0.50042  -0.49365  -0.48876  -0.48164  -0.46891
 Alpha  occ. eigenvalues --   -0.46345  -0.46058  -0.45794  -0.45243  -0.44527
 Alpha  occ. eigenvalues --   -0.44018  -0.43398  -0.42992  -0.42763  -0.42133
 Alpha  occ. eigenvalues --   -0.41641  -0.41584  -0.41345  -0.41097  -0.40880
 Alpha  occ. eigenvalues --   -0.40650  -0.40473  -0.40436  -0.40265  -0.40156
 Alpha  occ. eigenvalues --   -0.39970  -0.39885  -0.39536  -0.39260  -0.38990
 Alpha  occ. eigenvalues --   -0.38820  -0.38664  -0.38420  -0.38172  -0.37991
 Alpha  occ. eigenvalues --   -0.37894  -0.37827  -0.37710  -0.37509  -0.37351
 Alpha  occ. eigenvalues --   -0.37056  -0.36835  -0.36749  -0.36560  -0.36284
 Alpha  occ. eigenvalues --   -0.36219  -0.36160  -0.36101  -0.35795  -0.35684
 Alpha  occ. eigenvalues --   -0.35475  -0.35405  -0.35238  -0.34963  -0.34614
 Alpha  occ. eigenvalues --   -0.34429  -0.34319  -0.34208  -0.34010  -0.33901
 Alpha  occ. eigenvalues --   -0.33678  -0.33643  -0.33612  -0.33409  -0.33217
 Alpha  occ. eigenvalues --   -0.32934  -0.32863  -0.32632  -0.32496  -0.32274
 Alpha  occ. eigenvalues --   -0.32073  -0.31894  -0.31718  -0.31618  -0.31508
 Alpha  occ. eigenvalues --   -0.31339  -0.31202  -0.31101  -0.30929  -0.30802
 Alpha  occ. eigenvalues --   -0.30720  -0.30639  -0.30486  -0.30208  -0.29946
 Alpha  occ. eigenvalues --   -0.29752  -0.29207  -0.29139  -0.29074  -0.28983
 Alpha  occ. eigenvalues --   -0.28770  -0.28660  -0.28534  -0.28333  -0.27896
 Alpha  occ. eigenvalues --   -0.27755  -0.27668  -0.27343  -0.26864  -0.26540
 Alpha  occ. eigenvalues --   -0.26479  -0.26017  -0.25919  -0.25714  -0.25417
 Alpha  occ. eigenvalues --   -0.25233  -0.24553  -0.24230  -0.23661  -0.23361
 Alpha  occ. eigenvalues --   -0.23097  -0.22842  -0.22467  -0.21544  -0.20803
 Alpha  occ. eigenvalues --   -0.20312  -0.20254  -0.18612  -0.18303  -0.17429
 Alpha  occ. eigenvalues --   -0.15685
 Alpha virt. eigenvalues --   -0.11535  -0.06716  -0.05522  -0.04836  -0.04029
 Alpha virt. eigenvalues --   -0.01875  -0.01746  -0.01253  -0.00786   0.00451
 Alpha virt. eigenvalues --    0.00957   0.01764   0.01978   0.02282   0.02503

 Mulliken charges:
               1
     1  Mg   0.701922
     2  C    0.029599
     3  C   -0.091456
     4  C   -0.047384
     5  C   -0.073670
     6  N   -0.181632
     7  C   -0.080605
     8  C    0.102509
     9  C   -0.054406
    10  C   -0.006474
    11  C    0.134234
    12  C    0.144263
    13  C    0.065378
    14  C    0.108636
    15  O   -0.188224
    16  O   -0.288131
    17  N   -0.325844
    18  C    0.163917
    19  C   -0.138462
    20  C    0.052959
    21  C    0.099956
    22  C    0.181861
    23  C   -0.089712
    24  O   -0.197736
    25  C    0.147100
    26  N   -0.276042
    27  C    0.055632
    28  C    0.052149
    29  C    0.051953
    30  C    0.019438
    31  C    0.119035
    32  C    0.128654
    33  C    0.022589
    34  N   -0.213280
    35  C    0.095148
    36  C   -0.209009
    37  C    0.094828
    38  C    0.076612
    39  C    0.174520
    40  C   -0.054857
    41  O   -0.129054
    42  C    0.037724
    43  C    0.084555
    44  O   -0.142641
    45  O   -0.268765
    46  C    0.214233
    47  C    0.332179
    48  C   -0.119574
    49  C   -0.160365
    50  C    0.136781
    51  C    0.142940
    52  C    0.074980
    53  C    0.106543
    54  C   -0.104628
    55  C    0.115957
    56  C    0.079385
    57  C    0.078105
    58  C    0.076525
    59  C   -0.064804
    60  C    0.127872
    61  C    0.097169
    62  C    0.060227
    63  C    0.103298
    64  C   -0.118260
    65  C    0.101719
    66  C    0.101844
    67  H   -0.071597
    68  H   -0.047028
    69  H   -0.069052
    70  H   -0.034966
    71  H   -0.020183
    72  H   -0.003453
    73  H   -0.003208
    74  H   -0.012064
    75  H   -0.020086
    76  H    0.018418
    77  H    0.012269
    78  H   -0.001373
    79  H   -0.019604
    80  H    0.006553
    81  H   -0.000991
    82  H   -0.023847
    83  H    0.010947
    84  H    0.004799
    85  H   -0.019010
    86  H   -0.028169
    87  H   -0.013425
    88  H    0.009210
    89  H    0.001941
    90  H   -0.010981
    91  H   -0.009958
    92  H   -0.011502
    93  H   -0.011297
    94  H   -0.009018
    95  H    0.009471
    96  H   -0.010768
    97  H   -0.010466
    98  H   -0.009017
    99  H    0.035136
   100  H    0.004412
   101  H    0.012395
   102  H    0.018975
   103  H   -0.001200
   104  H   -0.041484
   105  H   -0.021326
   106  H   -0.007688
   107  H    0.013778
   108  H   -0.044310
   109  H   -0.021649
   110  H   -0.024918
   111  H   -0.032080
   112  H   -0.039747
   113  H   -0.040515
   114  H   -0.038901
   115  H   -0.019667
   116  H   -0.019868
   117  H   -0.031521
   118  H   -0.021903
   119  H   -0.016192
   120  H   -0.043622
   121  H   -0.036290
   122  H   -0.005595
   123  H   -0.024297
   124  H   -0.028824
   125  H   -0.022021
   126  H   -0.025626
   127  H   -0.023948
   128  H   -0.040946
   129  H   -0.042396
   130  H   -0.025880
   131  H   -0.015644
   132  H   -0.032408
   133  H   -0.039846
   134  H   -0.023315
   135  H   -0.029010
   136  H   -0.004379
   137  H   -0.022837
   138  H   -0.015979
   139  H   -0.009204
   140  H   -0.022113
 Sum of Mulliken charges =  -0.00000

 Dipole moment (field-independent basis, Debye):
    X=              3.1964    Y=              2.6705    Z=              2.2234  Tot=              4.7215
 Quadrupole moment (field-independent basis, Debye-Ang):
   XX=           -382.3663   YY=           -426.3322   ZZ=           -405.8782
   XY=              5.1851   XZ=              3.0843   YZ=              2.3037

 Normal termination of Gaussian 16 at Sat Apr 30 19:36:45 2022.
