 Gaussian 16, Revision A.03,
 Gaussian 16:  ES64L-G16RevA.03 25-Dec-2016

 -----------------------------------
 #p cam-b3lyp/Def2SVP td=(nstates=5)
 -----------------------------------

 -------------------------------------------------------
 step_851_chromophore_22 TDDFT with cam-b3lyp functional
 -------------------------------------------------------
 Symbolic Z-matrix:
 Charge =  0 Multiplicity = 1

                         Standard orientation:
 ---------------------------------------------------------------------
 Center     Atomic      Atomic             Coordinates (Angstroms)
 Number     Number       Type             X           Y           Z
 ---------------------------------------------------------------------
      1         12           0       -6.382522    0.551670    0.127832
      2          6           0       -3.893392   -2.049054    0.437868
      3          6           0       -3.839806    2.592590    1.155009
      4          6           0       -8.472076    2.897013   -0.285128
      5          6           0       -8.781530   -1.929749   -0.466312
      6          7           0       -4.197511    0.245723    0.771156
      7          6           0       -3.365046   -0.880244    0.858757
      8          6           0       -1.866417   -0.600861    1.290253
      9          6           0       -2.027339    0.900431    1.770782
     10          6           0       -3.412590    1.251391    1.174086
     11          6           0       -2.086025    1.163636    3.291847
     12          6           0       -0.624239   -0.712885    0.287597
     13          6           0        0.487521   -1.625670    0.842207
     14          6           0        1.671548   -1.999914   -0.100533
     15          8           0        1.611176   -2.109062   -1.320478
     16          8           0        2.871668   -1.965965    0.630419
     17          7           0       -6.215947    2.539174    0.387390
     18          6           0       -5.054239    3.185411    0.728714
     19          6           0       -5.319631    4.625052    0.758135
     20          6           0       -6.685893    4.742087    0.317926
     21          6           0       -7.233848    3.391357    0.142922
     22          6           0       -4.280900    5.706975    1.095077
     23          6           0       -7.509384    5.949649    0.056246
     24          8           0       -8.758846    5.953051   -0.127722
     25          6           0       -6.778682    7.221942   -0.047030
     26          7           0       -8.351768    0.433280   -0.262046
     27          6           0       -8.956410    1.628114   -0.487885
     28          6           0      -10.345447    1.375294   -1.042613
     29          6           0      -10.509577   -0.161890   -1.104194
     30          6           0       -9.182425   -0.620303   -0.565839
     31          6           0      -11.491921    2.071884   -0.200553
     32          6           0      -10.929056   -0.673947   -2.478424
     33          6           0      -12.164420   -1.603484   -2.422435
     34          7           0       -6.376839   -1.573453    0.107601
     35          6           0       -7.473261   -2.398179   -0.146355
     36          6           0       -6.930433   -3.735973    0.041101
     37          6           0       -5.566471   -3.676466    0.140410
     38          6           0       -5.282105   -2.278400    0.187559
     39          6           0       -7.793392   -4.949863    0.182420
     40          6           0       -4.314537   -4.435646    0.292844
     41          8           0       -4.169167   -5.652777    0.245734
     42          6           0       -3.193030   -3.365614    0.444369
     43          6           0       -2.216627   -3.592728   -0.677657
     44          8           0       -2.286793   -3.097937   -1.759836
     45          8           0       -1.283640   -4.502110   -0.282857
     46          6           0       -0.149480   -4.805135   -1.120049
     47          6           0        4.104222   -2.050218   -0.199061
     48          6           0        5.177526   -1.253249    0.522593
     49          6           0        6.515636   -1.424829    0.546462
     50          6           0        7.239312   -2.387053   -0.391574
     51          6           0        7.352221   -0.395363    1.318163
     52          6           0        8.448324   -0.902676    2.298888
     53          6           0        9.789505   -0.040215    2.345137
     54          6           0       11.055617   -0.826444    1.883704
     55          6           0       12.036317   -0.982883    3.053279
     56          6           0       11.746794   -0.085976    0.760092
     57          6           0       10.868981    0.013975   -0.480201
     58          6           0       10.455855    1.516015   -0.725921
     59          6           0       11.135418    1.938625   -2.075393
     60          6           0       10.117353    2.616963   -2.948351
     61          6           0       12.462475    2.757097   -1.832809
     62          6           0       13.736214    2.177991   -2.476925
     63          6           0       15.072623    2.354307   -1.608298
     64          6           0       15.431774    1.031945   -0.818118
     65          6           0       15.978746    1.311261    0.575026
     66          6           0       16.314053    0.022169   -1.636409
     67          1           0       -3.061591    3.266708    1.518469
     68          1           0       -9.214835    3.688918   -0.403977
     69          1           0       -9.497340   -2.743041   -0.602094
     70          1           0       -1.622927   -1.103551    2.226561
     71          1           0       -1.430038    1.694386    1.321395
     72          1           0       -2.662762    2.057674    3.528067
     73          1           0       -1.061699    1.219238    3.659219
     74          1           0       -2.579653    0.336626    3.802742
     75          1           0       -0.153402    0.268113    0.224945
     76          1           0       -0.954781   -0.964071   -0.720888
     77          1           0        0.085641   -2.589599    1.156000
     78          1           0        0.896118   -1.120656    1.716819
     79          1           0       -3.306575    5.275074    1.324746
     80          1           0       -4.542600    6.416536    1.880906
     81          1           0       -4.141321    6.279717    0.178465
     82          1           0       -7.394032    8.007944   -0.485349
     83          1           0       -5.896804    7.219082   -0.688273
     84          1           0       -6.675620    7.583169    0.975582
     85          1           0      -10.268976    1.677216   -2.087942
     86          1           0      -11.198730   -0.595956   -0.379946
     87          1           0      -12.371720    1.429127   -0.182015
     88          1           0      -11.780200    3.027270   -0.638218
     89          1           0      -11.208952    2.241862    0.838526
     90          1           0      -10.140470   -1.321757   -2.860973
     91          1           0      -11.285522    0.147009   -3.101565
     92          1           0      -12.704915   -1.610899   -3.369107
     93          1           0      -12.886368   -1.314422   -1.658939
     94          1           0      -11.863314   -2.625138   -2.190469
     95          1           0       -7.184786   -5.849000    0.282471
     96          1           0       -8.551722   -5.042298   -0.594071
     97          1           0       -8.385920   -4.775471    1.079757
     98          1           0       -2.663831   -3.688218    1.340913
     99          1           0       -0.124331   -4.357856   -2.114988
    100          1           0       -0.229528   -5.883922   -1.252504
    101          1           0        0.752353   -4.624747   -0.535537
    102          1           0        4.119778   -1.722667   -1.239245
    103          1           0        4.454775   -3.080527   -0.260233
    104          1           0        4.853917   -0.493997    1.234036
    105          1           0        6.586989   -3.044723   -0.966680
    106          1           0        7.868571   -3.010862    0.244102
    107          1           0        7.874826   -1.857461   -1.100209
    108          1           0        6.636130    0.274313    1.793950
    109          1           0        7.783697    0.268052    0.569123
    110          1           0        8.661876   -1.962849    2.162478
    111          1           0        8.051588   -0.868608    3.313466
    112          1           0        9.952702    0.246283    3.383381
    113          1           0        9.731490    0.879298    1.761116
    114          1           0       10.713689   -1.803922    1.542116
    115          1           0       12.934157   -0.398654    2.854555
    116          1           0       12.289332   -2.009805    3.314113
    117          1           0       11.688186   -0.629197    4.023953
    118          1           0       12.599723   -0.744878    0.597915
    119          1           0       12.050479    0.864665    1.198929
    120          1           0        9.962638   -0.588703   -0.427868
    121          1           0       11.352507   -0.470664   -1.327857
    122          1           0       10.762282    2.131342    0.120900
    123          1           0        9.366525    1.485313   -0.701798
    124          1           0       11.431493    1.082238   -2.680838
    125          1           0        9.166113    2.720502   -2.424443
    126          1           0        9.918993    1.977724   -3.809023
    127          1           0       10.484268    3.574148   -3.318331
    128          1           0       12.587500    2.947730   -0.767403
    129          1           0       12.406468    3.775921   -2.216621
    130          1           0       13.823653    2.724956   -3.415786
    131          1           0       13.542275    1.114528   -2.617052
    132          1           0       15.039019    3.182302   -0.900975
    133          1           0       15.928642    2.583207   -2.242559
    134          1           0       14.496713    0.483155   -0.713589
    135          1           0       16.857081    0.729012    0.854281
    136          1           0       15.169139    1.147403    1.285899
    137          1           0       16.408772    2.302123    0.718835
    138          1           0       16.295652    0.338699   -2.679126
    139          1           0       16.025946   -1.020030   -1.502111
    140          1           0       17.332657    0.125295   -1.263313
 ---------------------------------------------------------------------

 SCF Done:  E(RCAM-B3LYP) =  -3007.18629671     A.U. after   17 cycles

 Excitation energies and oscillator strengths:

 Excited State   1:      Singlet-A      1.6847 eV  735.93 nm  f=0.3842  <S**2>=0.000
     245 -> 248        0.15469
     246 -> 247        0.69048
 This state for optimization and/or second-order correction.
 Total Energy, E(TD-HF/TD-DFT) =  -3007.12438374
 Copying the excited state density for this state as the 1-particle RhoCI density.

 Excited State   2:      Singlet-A      2.2944 eV  540.38 nm  f=0.1228  <S**2>=0.000
     245 -> 247        0.64057
     246 -> 248       -0.27688

 Excited State   3:      Singlet-A      3.4097 eV  363.63 nm  f=0.0230  <S**2>=0.000
     241 -> 247       -0.20889
     242 -> 247        0.21220
     244 -> 247        0.61443
     246 -> 248       -0.11948

 Excited State   4:      Singlet-A      3.4922 eV  355.03 nm  f=0.0186  <S**2>=0.000
     240 -> 247        0.43259
     240 -> 248       -0.19118
     240 -> 249       -0.25153
     240 -> 250        0.17017
     241 -> 247        0.23084
     242 -> 247       -0.18011
     244 -> 247        0.18906
     246 -> 248        0.19245

 Excited State   5:      Singlet-A      3.5299 eV  351.24 nm  f=0.1166  <S**2>=0.000
     240 -> 247       -0.33037
     240 -> 248        0.11125
     240 -> 249        0.15067
     241 -> 247        0.27202
     242 -> 247       -0.22147
     244 -> 247        0.24035
     245 -> 247        0.11413
     246 -> 248        0.36928

 The electronic state is 1-A.
 Alpha  occ. eigenvalues --  -46.87715 -19.25905 -19.24247 -19.21059 -19.19150
 Alpha  occ. eigenvalues --  -19.18610 -19.18548 -14.42389 -14.41461 -14.39555
 Alpha  occ. eigenvalues --  -14.38650 -10.40535 -10.38587 -10.34809 -10.34778
 Alpha  occ. eigenvalues --  -10.32609 -10.30781 -10.30730 -10.30723 -10.30666
 Alpha  occ. eigenvalues --  -10.30641 -10.30417 -10.30264 -10.29800 -10.29785
 Alpha  occ. eigenvalues --  -10.29060 -10.28602 -10.28446 -10.27991 -10.27925
 Alpha  occ. eigenvalues --  -10.27855 -10.27663 -10.27473 -10.27442 -10.27151
 Alpha  occ. eigenvalues --  -10.27122 -10.27036 -10.26872 -10.26832 -10.26776
 Alpha  occ. eigenvalues --  -10.26725 -10.26316 -10.26258 -10.26138 -10.25895
 Alpha  occ. eigenvalues --  -10.25884 -10.25745 -10.25739 -10.25622 -10.25587
 Alpha  occ. eigenvalues --  -10.25544 -10.25330 -10.25299 -10.25290 -10.25275
 Alpha  occ. eigenvalues --  -10.25234 -10.24996 -10.24925 -10.24813 -10.24670
 Alpha  occ. eigenvalues --  -10.24550 -10.24426 -10.24224 -10.24219 -10.23906
 Alpha  occ. eigenvalues --  -10.23844  -3.16481  -1.91378  -1.90966  -1.90767
 Alpha  occ. eigenvalues --   -1.16585  -1.15759  -1.09115  -1.08471  -1.08071
 Alpha  occ. eigenvalues --   -1.07783  -1.04478  -1.03727  -1.03488  -1.02636
 Alpha  occ. eigenvalues --   -0.92560  -0.90713  -0.89884  -0.89574  -0.89495
 Alpha  occ. eigenvalues --   -0.88632  -0.88579  -0.87573  -0.87211  -0.87155
 Alpha  occ. eigenvalues --   -0.86042  -0.85778  -0.84073  -0.83525  -0.83198
 Alpha  occ. eigenvalues --   -0.82598  -0.82273  -0.81385  -0.80931  -0.80606
 Alpha  occ. eigenvalues --   -0.80084  -0.78490  -0.78025  -0.77407  -0.76422
 Alpha  occ. eigenvalues --   -0.76096  -0.75395  -0.75248  -0.74562  -0.74274
 Alpha  occ. eigenvalues --   -0.73415  -0.72651  -0.71713  -0.70805  -0.69129
 Alpha  occ. eigenvalues --   -0.68529  -0.68202  -0.67500  -0.66996  -0.65855
 Alpha  occ. eigenvalues --   -0.65741  -0.65662  -0.64718  -0.64522  -0.64151
 Alpha  occ. eigenvalues --   -0.63864  -0.63345  -0.62798  -0.61788  -0.60700
 Alpha  occ. eigenvalues --   -0.59955  -0.59543  -0.59290  -0.58586  -0.58056
 Alpha  occ. eigenvalues --   -0.57345  -0.56816  -0.56319  -0.56047  -0.55287
 Alpha  occ. eigenvalues --   -0.54865  -0.54713  -0.54299  -0.53973  -0.53646
 Alpha  occ. eigenvalues --   -0.53466  -0.53317  -0.53158  -0.53010  -0.52907
 Alpha  occ. eigenvalues --   -0.52642  -0.52448  -0.52346  -0.51913  -0.51523
 Alpha  occ. eigenvalues --   -0.51398  -0.51226  -0.50903  -0.50777  -0.50665
 Alpha  occ. eigenvalues --   -0.50315  -0.50085  -0.50069  -0.49931  -0.49482
 Alpha  occ. eigenvalues --   -0.49465  -0.49214  -0.49036  -0.48903  -0.48624
 Alpha  occ. eigenvalues --   -0.48484  -0.48373  -0.48234  -0.48177  -0.47980
 Alpha  occ. eigenvalues --   -0.47773  -0.47676  -0.47329  -0.46940  -0.46575
 Alpha  occ. eigenvalues --   -0.46265  -0.46177  -0.46052  -0.45846  -0.45663
 Alpha  occ. eigenvalues --   -0.45409  -0.45339  -0.45232  -0.45030  -0.45011
 Alpha  occ. eigenvalues --   -0.44848  -0.44654  -0.44404  -0.43955  -0.43893
 Alpha  occ. eigenvalues --   -0.43750  -0.43411  -0.43369  -0.43243  -0.42884
 Alpha  occ. eigenvalues --   -0.42862  -0.42799  -0.42582  -0.42472  -0.42184
 Alpha  occ. eigenvalues --   -0.42130  -0.42006  -0.41728  -0.41511  -0.41367
 Alpha  occ. eigenvalues --   -0.41238  -0.40836  -0.40739  -0.40299  -0.40241
 Alpha  occ. eigenvalues --   -0.39780  -0.39708  -0.39653  -0.39284  -0.38777
 Alpha  occ. eigenvalues --   -0.38652  -0.38519  -0.38187  -0.37892  -0.37393
 Alpha  occ. eigenvalues --   -0.37336  -0.37109  -0.37084  -0.36758  -0.36071
 Alpha  occ. eigenvalues --   -0.35769  -0.35659  -0.35053  -0.34908  -0.34103
 Alpha  occ. eigenvalues --   -0.33874  -0.33789  -0.32890  -0.31632  -0.30976
 Alpha  occ. eigenvalues --   -0.30412  -0.30284  -0.29957  -0.29364  -0.24300
 Alpha  occ. eigenvalues --   -0.20926
 Alpha virt. eigenvalues --   -0.08669  -0.01245   0.00839   0.02099   0.03594
 Alpha virt. eigenvalues --    0.03919   0.05374   0.05585   0.06368   0.06659
 Alpha virt. eigenvalues --    0.08205   0.08301   0.08465   0.08537   0.09110

 Mulliken charges:
               1
     1  Mg   0.838820
     2  C    0.005284
     3  C   -0.103924
     4  C   -0.070390
     5  C   -0.078475
     6  N   -0.245884
     7  C   -0.041432
     8  C    0.052105
     9  C   -0.102360
    10  C    0.013273
    11  C    0.075950
    12  C    0.086079
    13  C    0.000258
    14  C    0.189560
    15  O   -0.227544
    16  O   -0.353401
    17  N   -0.419571
    18  C    0.175493
    19  C   -0.140716
    20  C   -0.022149
    21  C    0.129825
    22  C    0.127786
    23  C   -0.001443
    24  O   -0.237864
    25  C    0.053041
    26  N   -0.356239
    27  C    0.082446
    28  C   -0.013046
    29  C   -0.002089
    30  C    0.044164
    31  C    0.060906
    32  C    0.063867
    33  C   -0.032515
    34  N   -0.301113
    35  C    0.093742
    36  C   -0.204602
    37  C    0.012482
    38  C    0.112391
    39  C    0.118019
    40  C    0.046981
    41  O   -0.168526
    42  C   -0.043595
    43  C    0.173283
    44  O   -0.178555
    45  O   -0.332046
    46  C    0.176571
    47  C    0.298715
    48  C   -0.141085
    49  C   -0.177328
    50  C    0.077536
    51  C    0.086240
    52  C    0.016740
    53  C    0.054547
    54  C   -0.152124
    55  C    0.056554
    56  C    0.025821
    57  C    0.025743
    58  C    0.025415
    59  C   -0.123688
    60  C    0.070771
    61  C    0.049521
    62  C    0.007267
    63  C    0.049021
    64  C   -0.171194
    65  C    0.042527
    66  C    0.045048
    67  H   -0.038655
    68  H   -0.005799
    69  H   -0.033885
    70  H    0.002495
    71  H    0.013536
    72  H    0.022560
    73  H    0.021657
    74  H    0.013830
    75  H    0.010881
    76  H    0.050377
    77  H    0.039456
    78  H    0.031486
    79  H    0.009870
    80  H    0.034298
    81  H    0.025572
    82  H    0.015116
    83  H    0.039834
    84  H    0.035170
    85  H    0.017031
    86  H    0.007272
    87  H    0.010431
    88  H    0.032295
    89  H    0.027297
    90  H    0.019977
    91  H    0.017812
    92  H    0.013704
    93  H    0.009849
    94  H    0.012290
    95  H    0.036449
    96  H    0.012355
    97  H    0.014930
    98  H    0.034772
    99  H    0.061558
   100  H    0.028534
   101  H    0.028849
   102  H    0.049408
   103  H    0.024539
   104  H   -0.006947
   105  H    0.004190
   106  H    0.015189
   107  H    0.035623
   108  H   -0.012102
   109  H    0.001915
   110  H    0.001362
   111  H   -0.001246
   112  H   -0.008906
   113  H   -0.014251
   114  H   -0.008059
   115  H    0.003464
   116  H    0.005688
   117  H   -0.005888
   118  H    0.006709
   119  H    0.007492
   120  H   -0.019584
   121  H   -0.007034
   122  H    0.018930
   123  H    0.001982
   124  H    0.002789
   125  H    0.002396
   126  H   -0.001005
   127  H    0.000660
   128  H   -0.014202
   129  H   -0.013012
   130  H    0.002999
   131  H    0.007301
   132  H   -0.003684
   133  H   -0.010288
   134  H    0.002846
   135  H   -0.003282
   136  H    0.015556
   137  H    0.001525
   138  H    0.007256
   139  H    0.014758
   140  H    0.000807
 Sum of Mulliken charges =  -0.00000

 Dipole moment (field-independent basis, Debye):
    X=              3.5525    Y=              3.8149    Z=              2.4675  Tot=              5.7673
 Quadrupole moment (field-independent basis, Debye-Ang):
   XX=           -382.5360   YY=           -421.2114   ZZ=           -405.8006
   XY=             -0.2131   XZ=              3.2700   YZ=              2.8063

 Normal termination of Gaussian 16 at Sat Apr 30 18:30:49 2022.
