 Gaussian 16, Revision A.03,
 Gaussian 16:  ES64L-G16RevA.03 25-Dec-2016

 ---------------------------------
 #p PBE1PBE/Def2SVP td=(nstates=5)
 ---------------------------------

 -----------------------------------------------------
 step_851_chromophore_22 TDDFT with PBE1PBE functional
 -----------------------------------------------------
 Symbolic Z-matrix:
 Charge =  0 Multiplicity = 1

                         Standard orientation:
 ---------------------------------------------------------------------
 Center     Atomic      Atomic             Coordinates (Angstroms)
 Number     Number       Type             X           Y           Z
 ---------------------------------------------------------------------
      1         12           0       -6.382522    0.551670    0.127832
      2          6           0       -3.893392   -2.049054    0.437868
      3          6           0       -3.839806    2.592590    1.155009
      4          6           0       -8.472076    2.897013   -0.285128
      5          6           0       -8.781530   -1.929749   -0.466312
      6          7           0       -4.197511    0.245723    0.771156
      7          6           0       -3.365046   -0.880244    0.858757
      8          6           0       -1.866417   -0.600861    1.290253
      9          6           0       -2.027339    0.900431    1.770782
     10          6           0       -3.412590    1.251391    1.174086
     11          6           0       -2.086025    1.163636    3.291847
     12          6           0       -0.624239   -0.712885    0.287597
     13          6           0        0.487521   -1.625670    0.842207
     14          6           0        1.671548   -1.999914   -0.100533
     15          8           0        1.611176   -2.109062   -1.320478
     16          8           0        2.871668   -1.965965    0.630419
     17          7           0       -6.215947    2.539174    0.387390
     18          6           0       -5.054239    3.185411    0.728714
     19          6           0       -5.319631    4.625052    0.758135
     20          6           0       -6.685893    4.742087    0.317926
     21          6           0       -7.233848    3.391357    0.142922
     22          6           0       -4.280900    5.706975    1.095077
     23          6           0       -7.509384    5.949649    0.056246
     24          8           0       -8.758846    5.953051   -0.127722
     25          6           0       -6.778682    7.221942   -0.047030
     26          7           0       -8.351768    0.433280   -0.262046
     27          6           0       -8.956410    1.628114   -0.487885
     28          6           0      -10.345447    1.375294   -1.042613
     29          6           0      -10.509577   -0.161890   -1.104194
     30          6           0       -9.182425   -0.620303   -0.565839
     31          6           0      -11.491921    2.071884   -0.200553
     32          6           0      -10.929056   -0.673947   -2.478424
     33          6           0      -12.164420   -1.603484   -2.422435
     34          7           0       -6.376839   -1.573453    0.107601
     35          6           0       -7.473261   -2.398179   -0.146355
     36          6           0       -6.930433   -3.735973    0.041101
     37          6           0       -5.566471   -3.676466    0.140410
     38          6           0       -5.282105   -2.278400    0.187559
     39          6           0       -7.793392   -4.949863    0.182420
     40          6           0       -4.314537   -4.435646    0.292844
     41          8           0       -4.169167   -5.652777    0.245734
     42          6           0       -3.193030   -3.365614    0.444369
     43          6           0       -2.216627   -3.592728   -0.677657
     44          8           0       -2.286793   -3.097937   -1.759836
     45          8           0       -1.283640   -4.502110   -0.282857
     46          6           0       -0.149480   -4.805135   -1.120049
     47          6           0        4.104222   -2.050218   -0.199061
     48          6           0        5.177526   -1.253249    0.522593
     49          6           0        6.515636   -1.424829    0.546462
     50          6           0        7.239312   -2.387053   -0.391574
     51          6           0        7.352221   -0.395363    1.318163
     52          6           0        8.448324   -0.902676    2.298888
     53          6           0        9.789505   -0.040215    2.345137
     54          6           0       11.055617   -0.826444    1.883704
     55          6           0       12.036317   -0.982883    3.053279
     56          6           0       11.746794   -0.085976    0.760092
     57          6           0       10.868981    0.013975   -0.480201
     58          6           0       10.455855    1.516015   -0.725921
     59          6           0       11.135418    1.938625   -2.075393
     60          6           0       10.117353    2.616963   -2.948351
     61          6           0       12.462475    2.757097   -1.832809
     62          6           0       13.736214    2.177991   -2.476925
     63          6           0       15.072623    2.354307   -1.608298
     64          6           0       15.431774    1.031945   -0.818118
     65          6           0       15.978746    1.311261    0.575026
     66          6           0       16.314053    0.022169   -1.636409
     67          1           0       -3.061591    3.266708    1.518469
     68          1           0       -9.214835    3.688918   -0.403977
     69          1           0       -9.497340   -2.743041   -0.602094
     70          1           0       -1.622927   -1.103551    2.226561
     71          1           0       -1.430038    1.694386    1.321395
     72          1           0       -2.662762    2.057674    3.528067
     73          1           0       -1.061699    1.219238    3.659219
     74          1           0       -2.579653    0.336626    3.802742
     75          1           0       -0.153402    0.268113    0.224945
     76          1           0       -0.954781   -0.964071   -0.720888
     77          1           0        0.085641   -2.589599    1.156000
     78          1           0        0.896118   -1.120656    1.716819
     79          1           0       -3.306575    5.275074    1.324746
     80          1           0       -4.542600    6.416536    1.880906
     81          1           0       -4.141321    6.279717    0.178465
     82          1           0       -7.394032    8.007944   -0.485349
     83          1           0       -5.896804    7.219082   -0.688273
     84          1           0       -6.675620    7.583169    0.975582
     85          1           0      -10.268976    1.677216   -2.087942
     86          1           0      -11.198730   -0.595956   -0.379946
     87          1           0      -12.371720    1.429127   -0.182015
     88          1           0      -11.780200    3.027270   -0.638218
     89          1           0      -11.208952    2.241862    0.838526
     90          1           0      -10.140470   -1.321757   -2.860973
     91          1           0      -11.285522    0.147009   -3.101565
     92          1           0      -12.704915   -1.610899   -3.369107
     93          1           0      -12.886368   -1.314422   -1.658939
     94          1           0      -11.863314   -2.625138   -2.190469
     95          1           0       -7.184786   -5.849000    0.282471
     96          1           0       -8.551722   -5.042298   -0.594071
     97          1           0       -8.385920   -4.775471    1.079757
     98          1           0       -2.663831   -3.688218    1.340913
     99          1           0       -0.124331   -4.357856   -2.114988
    100          1           0       -0.229528   -5.883922   -1.252504
    101          1           0        0.752353   -4.624747   -0.535537
    102          1           0        4.119778   -1.722667   -1.239245
    103          1           0        4.454775   -3.080527   -0.260233
    104          1           0        4.853917   -0.493997    1.234036
    105          1           0        6.586989   -3.044723   -0.966680
    106          1           0        7.868571   -3.010862    0.244102
    107          1           0        7.874826   -1.857461   -1.100209
    108          1           0        6.636130    0.274313    1.793950
    109          1           0        7.783697    0.268052    0.569123
    110          1           0        8.661876   -1.962849    2.162478
    111          1           0        8.051588   -0.868608    3.313466
    112          1           0        9.952702    0.246283    3.383381
    113          1           0        9.731490    0.879298    1.761116
    114          1           0       10.713689   -1.803922    1.542116
    115          1           0       12.934157   -0.398654    2.854555
    116          1           0       12.289332   -2.009805    3.314113
    117          1           0       11.688186   -0.629197    4.023953
    118          1           0       12.599723   -0.744878    0.597915
    119          1           0       12.050479    0.864665    1.198929
    120          1           0        9.962638   -0.588703   -0.427868
    121          1           0       11.352507   -0.470664   -1.327857
    122          1           0       10.762282    2.131342    0.120900
    123          1           0        9.366525    1.485313   -0.701798
    124          1           0       11.431493    1.082238   -2.680838
    125          1           0        9.166113    2.720502   -2.424443
    126          1           0        9.918993    1.977724   -3.809023
    127          1           0       10.484268    3.574148   -3.318331
    128          1           0       12.587500    2.947730   -0.767403
    129          1           0       12.406468    3.775921   -2.216621
    130          1           0       13.823653    2.724956   -3.415786
    131          1           0       13.542275    1.114528   -2.617052
    132          1           0       15.039019    3.182302   -0.900975
    133          1           0       15.928642    2.583207   -2.242559
    134          1           0       14.496713    0.483155   -0.713589
    135          1           0       16.857081    0.729012    0.854281
    136          1           0       15.169139    1.147403    1.285899
    137          1           0       16.408772    2.302123    0.718835
    138          1           0       16.295652    0.338699   -2.679126
    139          1           0       16.025946   -1.020030   -1.502111
    140          1           0       17.332657    0.125295   -1.263313
 ---------------------------------------------------------------------

 SCF Done:  E(RPBE1PBE) =  -3005.37349700     A.U. after   15 cycles

 Excitation energies and oscillator strengths:

 Excited State   1:      Singlet-A      1.8379 eV  674.60 nm  f=0.3717  <S**2>=0.000
     245 -> 248        0.14561
     246 -> 247        0.69853
     246 <- 247       -0.11715
 This state for optimization and/or second-order correction.
 Total Energy, E(TD-HF/TD-DFT) =  -3005.30595549
 Copying the excited state density for this state as the 1-particle RhoCI density.

 Excited State   2:      Singlet-A      2.3021 eV  538.58 nm  f=0.1199  <S**2>=0.000
     245 -> 247        0.65080
     246 -> 248       -0.24778
     246 -> 249        0.10082

 Excited State   3:      Singlet-A      2.9883 eV  414.90 nm  f=0.0002  <S**2>=0.000
     240 -> 247       -0.12235
     241 -> 247        0.65230
     241 -> 248       -0.13582
     241 -> 249       -0.12487

 Excited State   4:      Singlet-A      3.0281 eV  409.45 nm  f=0.0016  <S**2>=0.000
     242 -> 247        0.54192
     242 -> 249        0.10789
     244 -> 247        0.41745

 Excited State   5:      Singlet-A      3.0427 eV  407.48 nm  f=0.0045  <S**2>=0.000
     242 -> 247       -0.39784
     244 -> 247        0.55747

 The electronic state is 1-A.
 Alpha  occ. eigenvalues --  -46.91127 -19.26637 -19.24918 -19.21325 -19.19347
 Alpha  occ. eigenvalues --  -19.18969 -19.18629 -14.41835 -14.41053 -14.39142
 Alpha  occ. eigenvalues --  -14.38415 -10.37595 -10.35584 -10.32098 -10.31717
 Alpha  occ. eigenvalues --  -10.30041 -10.28588 -10.28365 -10.28249 -10.28204
 Alpha  occ. eigenvalues --  -10.28179 -10.27903 -10.27902 -10.27637 -10.27199
 Alpha  occ. eigenvalues --  -10.27106 -10.26368 -10.25936 -10.25886 -10.25471
 Alpha  occ. eigenvalues --  -10.25333 -10.25281 -10.25183 -10.24985 -10.24913
 Alpha  occ. eigenvalues --  -10.24836 -10.24745 -10.24659 -10.24562 -10.24535
 Alpha  occ. eigenvalues --  -10.24297 -10.23971 -10.23715 -10.23707 -10.23461
 Alpha  occ. eigenvalues --  -10.23394 -10.23319 -10.23292 -10.23274 -10.23242
 Alpha  occ. eigenvalues --  -10.22930 -10.22910 -10.22877 -10.22870 -10.22866
 Alpha  occ. eigenvalues --  -10.22812 -10.22601 -10.22521 -10.22391 -10.22230
 Alpha  occ. eigenvalues --  -10.22115 -10.21855 -10.21807 -10.21637 -10.21600
 Alpha  occ. eigenvalues --  -10.21220  -3.13467  -1.86307  -1.85874  -1.85678
 Alpha  occ. eigenvalues --   -1.11363  -1.10562  -1.03979  -1.03309  -1.02952
 Alpha  occ. eigenvalues --   -1.02314  -0.99144  -0.98354  -0.98167  -0.97324
 Alpha  occ. eigenvalues --   -0.86990  -0.84806  -0.84055  -0.83888  -0.83704
 Alpha  occ. eigenvalues --   -0.82889  -0.82732  -0.81893  -0.81337  -0.81253
 Alpha  occ. eigenvalues --   -0.80472  -0.80039  -0.78294  -0.77869  -0.77460
 Alpha  occ. eigenvalues --   -0.76768  -0.76394  -0.75714  -0.75162  -0.74878
 Alpha  occ. eigenvalues --   -0.74277  -0.72639  -0.72291  -0.71791  -0.70591
 Alpha  occ. eigenvalues --   -0.70473  -0.69599  -0.69476  -0.68719  -0.68435
 Alpha  occ. eigenvalues --   -0.67816  -0.67086  -0.66125  -0.65115  -0.63543
 Alpha  occ. eigenvalues --   -0.62886  -0.62428  -0.61969  -0.61216  -0.60330
 Alpha  occ. eigenvalues --   -0.60206  -0.59893  -0.59344  -0.59096  -0.58415
 Alpha  occ. eigenvalues --   -0.58260  -0.57473  -0.57000  -0.56383  -0.55135
 Alpha  occ. eigenvalues --   -0.54405  -0.54148  -0.53736  -0.53264  -0.52540
 Alpha  occ. eigenvalues --   -0.51940  -0.51248  -0.50723  -0.50632  -0.49787
 Alpha  occ. eigenvalues --   -0.49466  -0.49265  -0.48835  -0.48571  -0.48126
 Alpha  occ. eigenvalues --   -0.47975  -0.47698  -0.47594  -0.47553  -0.47446
 Alpha  occ. eigenvalues --   -0.47211  -0.47053  -0.46820  -0.46515  -0.46075
 Alpha  occ. eigenvalues --   -0.45891  -0.45741  -0.45539  -0.45308  -0.45220
 Alpha  occ. eigenvalues --   -0.44915  -0.44694  -0.44561  -0.44401  -0.44046
 Alpha  occ. eigenvalues --   -0.44010  -0.43811  -0.43688  -0.43455  -0.43251
 Alpha  occ. eigenvalues --   -0.43151  -0.42948  -0.42876  -0.42740  -0.42535
 Alpha  occ. eigenvalues --   -0.42370  -0.42307  -0.41947  -0.41612  -0.41255
 Alpha  occ. eigenvalues --   -0.40973  -0.40811  -0.40750  -0.40605  -0.40326
 Alpha  occ. eigenvalues --   -0.40214  -0.40144  -0.39915  -0.39794  -0.39690
 Alpha  occ. eigenvalues --   -0.39669  -0.39500  -0.39209  -0.38795  -0.38666
 Alpha  occ. eigenvalues --   -0.38422  -0.38225  -0.38119  -0.38052  -0.37636
 Alpha  occ. eigenvalues --   -0.37600  -0.37479  -0.37356  -0.37181  -0.37119
 Alpha  occ. eigenvalues --   -0.36998  -0.36845  -0.36577  -0.36347  -0.36176
 Alpha  occ. eigenvalues --   -0.35993  -0.35737  -0.35480  -0.35207  -0.34990
 Alpha  occ. eigenvalues --   -0.34704  -0.34637  -0.34481  -0.34105  -0.33788
 Alpha  occ. eigenvalues --   -0.33416  -0.33304  -0.33022  -0.32774  -0.32403
 Alpha  occ. eigenvalues --   -0.32229  -0.32085  -0.31963  -0.31827  -0.30897
 Alpha  occ. eigenvalues --   -0.30676  -0.30601  -0.29978  -0.29740  -0.29262
 Alpha  occ. eigenvalues --   -0.28959  -0.28726  -0.28417  -0.27224  -0.25887
 Alpha  occ. eigenvalues --   -0.25483  -0.25350  -0.25272  -0.25157  -0.21181
 Alpha  occ. eigenvalues --   -0.18596
 Alpha virt. eigenvalues --   -0.11137  -0.04893  -0.03297  -0.02317  -0.00829
 Alpha virt. eigenvalues --    0.00746   0.01238   0.01589   0.01879   0.03082
 Alpha virt. eigenvalues --    0.03912   0.04856   0.04886   0.05175   0.05340

 Mulliken charges:
               1
     1  Mg   0.994195
     2  C   -0.011208
     3  C   -0.094630
     4  C   -0.062149
     5  C   -0.076484
     6  N   -0.345754
     7  C    0.040632
     8  C   -0.011129
     9  C   -0.175300
    10  C    0.051879
    11  C    0.018178
    12  C    0.033984
    13  C   -0.078874
    14  C    0.256329
    15  O   -0.259760
    16  O   -0.382543
    17  N   -0.540974
    18  C    0.198969
    19  C   -0.163222
    20  C   -0.081118
    21  C    0.172142
    22  C    0.067528
    23  C    0.051340
    24  O   -0.277039
    25  C   -0.021518
    26  N   -0.468684
    27  C    0.113148
    28  C   -0.098353
    29  C   -0.072466
    30  C    0.088090
    31  C    0.000530
    32  C   -0.001632
    33  C   -0.103338
    34  N   -0.433950
    35  C    0.124884
    36  C   -0.231620
    37  C   -0.033857
    38  C    0.162271
    39  C    0.064107
    40  C    0.144709
    41  O   -0.213325
    42  C   -0.153528
    43  C    0.271805
    44  O   -0.216573
    45  O   -0.367122
    46  C    0.122863
    47  C    0.255224
    48  C   -0.151859
    49  C   -0.219848
    50  C    0.015766
    51  C    0.013347
    52  C   -0.045251
    53  C   -0.000744
    54  C   -0.234934
    55  C   -0.001240
    56  C   -0.040092
    57  C   -0.037745
    58  C   -0.035013
    59  C   -0.213335
    60  C    0.014273
    61  C    0.008966
    62  C   -0.064809
    63  C   -0.004630
    64  C   -0.267234
    65  C   -0.018451
    66  C   -0.016605
    67  H   -0.007415
    68  H    0.027377
    69  H   -0.000249
    70  H    0.040540
    71  H    0.049146
    72  H    0.050820
    73  H    0.049867
    74  H    0.041447
    75  H    0.044697
    76  H    0.081061
    77  H    0.072660
    78  H    0.063283
    79  H    0.036746
    80  H    0.060283
    81  H    0.052829
    82  H    0.042706
    83  H    0.064761
    84  H    0.062702
    85  H    0.054982
    86  H    0.044955
    87  H    0.038523
    88  H    0.059201
    89  H    0.055104
    90  H    0.053814
    91  H    0.050712
    92  H    0.042349
    93  H    0.037550
    94  H    0.040224
    95  H    0.064734
    96  H    0.040386
    97  H    0.044887
    98  H    0.071512
    99  H    0.081533
   100  H    0.051307
   101  H    0.052061
   102  H    0.075568
   103  H    0.051969
   104  H    0.023766
   105  H    0.031378
   106  H    0.043068
   107  H    0.062503
   108  H    0.019916
   109  H    0.041458
   110  H    0.032959
   111  H    0.032274
   112  H    0.024103
   113  H    0.023099
   114  H    0.029170
   115  H    0.031533
   116  H    0.033505
   117  H    0.020831
   118  H    0.040986
   119  H    0.040431
   120  H    0.021358
   121  H    0.024423
   122  H    0.047897
   123  H    0.037204
   124  H    0.040002
   125  H    0.029440
   126  H    0.026689
   127  H    0.027883
   128  H    0.017539
   129  H    0.019110
   130  H    0.035957
   131  H    0.038888
   132  H    0.027732
   133  H    0.022524
   134  H    0.049241
   135  H    0.023716
   136  H    0.044182
   137  H    0.028287
   138  H    0.034864
   139  H    0.041529
   140  H    0.028704
 Sum of Mulliken charges =  -0.00000

 Dipole moment (field-independent basis, Debye):
    X=              3.4001    Y=              3.3234    Z=              2.4256  Tot=              5.3376
 Quadrupole moment (field-independent basis, Debye-Ang):
   XX=           -374.5096   YY=           -419.2241   ZZ=           -403.1871
   XY=              3.4520   XZ=              4.3023   YZ=              2.8858

 Normal termination of Gaussian 16 at Sat Apr 30 18:47:35 2022.
