 Gaussian 16, Revision A.03,
 Gaussian 16:  ES64L-G16RevA.03 25-Dec-2016

 --------------------------------
 #p wB97XD/Def2SVP td=(nstates=5)
 --------------------------------

 ----------------------------------------------------
 step_851_chromophore_22 TDDFT with wB97XD functional
 ----------------------------------------------------
 Symbolic Z-matrix:
 Charge =  0 Multiplicity = 1

                         Standard orientation:
 ---------------------------------------------------------------------
 Center     Atomic      Atomic             Coordinates (Angstroms)
 Number     Number       Type             X           Y           Z
 ---------------------------------------------------------------------
      1         12           0       -6.382522    0.551670    0.127832
      2          6           0       -3.893392   -2.049054    0.437868
      3          6           0       -3.839806    2.592590    1.155009
      4          6           0       -8.472076    2.897013   -0.285128
      5          6           0       -8.781530   -1.929749   -0.466312
      6          7           0       -4.197511    0.245723    0.771156
      7          6           0       -3.365046   -0.880244    0.858757
      8          6           0       -1.866417   -0.600861    1.290253
      9          6           0       -2.027339    0.900431    1.770782
     10          6           0       -3.412590    1.251391    1.174086
     11          6           0       -2.086025    1.163636    3.291847
     12          6           0       -0.624239   -0.712885    0.287597
     13          6           0        0.487521   -1.625670    0.842207
     14          6           0        1.671548   -1.999914   -0.100533
     15          8           0        1.611176   -2.109062   -1.320478
     16          8           0        2.871668   -1.965965    0.630419
     17          7           0       -6.215947    2.539174    0.387390
     18          6           0       -5.054239    3.185411    0.728714
     19          6           0       -5.319631    4.625052    0.758135
     20          6           0       -6.685893    4.742087    0.317926
     21          6           0       -7.233848    3.391357    0.142922
     22          6           0       -4.280900    5.706975    1.095077
     23          6           0       -7.509384    5.949649    0.056246
     24          8           0       -8.758846    5.953051   -0.127722
     25          6           0       -6.778682    7.221942   -0.047030
     26          7           0       -8.351768    0.433280   -0.262046
     27          6           0       -8.956410    1.628114   -0.487885
     28          6           0      -10.345447    1.375294   -1.042613
     29          6           0      -10.509577   -0.161890   -1.104194
     30          6           0       -9.182425   -0.620303   -0.565839
     31          6           0      -11.491921    2.071884   -0.200553
     32          6           0      -10.929056   -0.673947   -2.478424
     33          6           0      -12.164420   -1.603484   -2.422435
     34          7           0       -6.376839   -1.573453    0.107601
     35          6           0       -7.473261   -2.398179   -0.146355
     36          6           0       -6.930433   -3.735973    0.041101
     37          6           0       -5.566471   -3.676466    0.140410
     38          6           0       -5.282105   -2.278400    0.187559
     39          6           0       -7.793392   -4.949863    0.182420
     40          6           0       -4.314537   -4.435646    0.292844
     41          8           0       -4.169167   -5.652777    0.245734
     42          6           0       -3.193030   -3.365614    0.444369
     43          6           0       -2.216627   -3.592728   -0.677657
     44          8           0       -2.286793   -3.097937   -1.759836
     45          8           0       -1.283640   -4.502110   -0.282857
     46          6           0       -0.149480   -4.805135   -1.120049
     47          6           0        4.104222   -2.050218   -0.199061
     48          6           0        5.177526   -1.253249    0.522593
     49          6           0        6.515636   -1.424829    0.546462
     50          6           0        7.239312   -2.387053   -0.391574
     51          6           0        7.352221   -0.395363    1.318163
     52          6           0        8.448324   -0.902676    2.298888
     53          6           0        9.789505   -0.040215    2.345137
     54          6           0       11.055617   -0.826444    1.883704
     55          6           0       12.036317   -0.982883    3.053279
     56          6           0       11.746794   -0.085976    0.760092
     57          6           0       10.868981    0.013975   -0.480201
     58          6           0       10.455855    1.516015   -0.725921
     59          6           0       11.135418    1.938625   -2.075393
     60          6           0       10.117353    2.616963   -2.948351
     61          6           0       12.462475    2.757097   -1.832809
     62          6           0       13.736214    2.177991   -2.476925
     63          6           0       15.072623    2.354307   -1.608298
     64          6           0       15.431774    1.031945   -0.818118
     65          6           0       15.978746    1.311261    0.575026
     66          6           0       16.314053    0.022169   -1.636409
     67          1           0       -3.061591    3.266708    1.518469
     68          1           0       -9.214835    3.688918   -0.403977
     69          1           0       -9.497340   -2.743041   -0.602094
     70          1           0       -1.622927   -1.103551    2.226561
     71          1           0       -1.430038    1.694386    1.321395
     72          1           0       -2.662762    2.057674    3.528067
     73          1           0       -1.061699    1.219238    3.659219
     74          1           0       -2.579653    0.336626    3.802742
     75          1           0       -0.153402    0.268113    0.224945
     76          1           0       -0.954781   -0.964071   -0.720888
     77          1           0        0.085641   -2.589599    1.156000
     78          1           0        0.896118   -1.120656    1.716819
     79          1           0       -3.306575    5.275074    1.324746
     80          1           0       -4.542600    6.416536    1.880906
     81          1           0       -4.141321    6.279717    0.178465
     82          1           0       -7.394032    8.007944   -0.485349
     83          1           0       -5.896804    7.219082   -0.688273
     84          1           0       -6.675620    7.583169    0.975582
     85          1           0      -10.268976    1.677216   -2.087942
     86          1           0      -11.198730   -0.595956   -0.379946
     87          1           0      -12.371720    1.429127   -0.182015
     88          1           0      -11.780200    3.027270   -0.638218
     89          1           0      -11.208952    2.241862    0.838526
     90          1           0      -10.140470   -1.321757   -2.860973
     91          1           0      -11.285522    0.147009   -3.101565
     92          1           0      -12.704915   -1.610899   -3.369107
     93          1           0      -12.886368   -1.314422   -1.658939
     94          1           0      -11.863314   -2.625138   -2.190469
     95          1           0       -7.184786   -5.849000    0.282471
     96          1           0       -8.551722   -5.042298   -0.594071
     97          1           0       -8.385920   -4.775471    1.079757
     98          1           0       -2.663831   -3.688218    1.340913
     99          1           0       -0.124331   -4.357856   -2.114988
    100          1           0       -0.229528   -5.883922   -1.252504
    101          1           0        0.752353   -4.624747   -0.535537
    102          1           0        4.119778   -1.722667   -1.239245
    103          1           0        4.454775   -3.080527   -0.260233
    104          1           0        4.853917   -0.493997    1.234036
    105          1           0        6.586989   -3.044723   -0.966680
    106          1           0        7.868571   -3.010862    0.244102
    107          1           0        7.874826   -1.857461   -1.100209
    108          1           0        6.636130    0.274313    1.793950
    109          1           0        7.783697    0.268052    0.569123
    110          1           0        8.661876   -1.962849    2.162478
    111          1           0        8.051588   -0.868608    3.313466
    112          1           0        9.952702    0.246283    3.383381
    113          1           0        9.731490    0.879298    1.761116
    114          1           0       10.713689   -1.803922    1.542116
    115          1           0       12.934157   -0.398654    2.854555
    116          1           0       12.289332   -2.009805    3.314113
    117          1           0       11.688186   -0.629197    4.023953
    118          1           0       12.599723   -0.744878    0.597915
    119          1           0       12.050479    0.864665    1.198929
    120          1           0        9.962638   -0.588703   -0.427868
    121          1           0       11.352507   -0.470664   -1.327857
    122          1           0       10.762282    2.131342    0.120900
    123          1           0        9.366525    1.485313   -0.701798
    124          1           0       11.431493    1.082238   -2.680838
    125          1           0        9.166113    2.720502   -2.424443
    126          1           0        9.918993    1.977724   -3.809023
    127          1           0       10.484268    3.574148   -3.318331
    128          1           0       12.587500    2.947730   -0.767403
    129          1           0       12.406468    3.775921   -2.216621
    130          1           0       13.823653    2.724956   -3.415786
    131          1           0       13.542275    1.114528   -2.617052
    132          1           0       15.039019    3.182302   -0.900975
    133          1           0       15.928642    2.583207   -2.242559
    134          1           0       14.496713    0.483155   -0.713589
    135          1           0       16.857081    0.729012    0.854281
    136          1           0       15.169139    1.147403    1.285899
    137          1           0       16.408772    2.302123    0.718835
    138          1           0       16.295652    0.338699   -2.679126
    139          1           0       16.025946   -1.020030   -1.502111
    140          1           0       17.332657    0.125295   -1.263313
 ---------------------------------------------------------------------

 SCF Done:  E(RwB97XD) =  -3007.88555350     A.U. after   20 cycles

 Excitation energies and oscillator strengths:

 Excited State   1:      Singlet-A      1.6342 eV  758.68 nm  f=0.3824  <S**2>=0.000
     245 -> 248        0.16023
     246 -> 247        0.68801
     245 <- 248        0.10784
 This state for optimization and/or second-order correction.
 Total Energy, E(TD-HF/TD-DFT) =  -3007.82549753
 Copying the excited state density for this state as the 1-particle RhoCI density.

 Excited State   2:      Singlet-A      2.2402 eV  553.45 nm  f=0.1202  <S**2>=0.000
     245 -> 247        0.63891
     246 -> 248       -0.27898

 Excited State   3:      Singlet-A      3.4413 eV  360.28 nm  f=0.0367  <S**2>=0.000
     241 -> 247       -0.38229
     244 -> 247        0.53609
     246 -> 248       -0.17226

 Excited State   4:      Singlet-A      3.5040 eV  353.84 nm  f=0.0044  <S**2>=0.000
     240 -> 247        0.45597
     240 -> 248       -0.20322
     240 -> 249       -0.28820
     240 -> 250        0.17930
     241 -> 247        0.21917
     244 -> 247        0.20424
     246 -> 248        0.10979

 Excited State   5:      Singlet-A      3.5489 eV  349.36 nm  f=0.1337  <S**2>=0.000
     240 -> 247       -0.27000
     240 -> 249        0.11371
     241 -> 247        0.30161
     244 -> 247        0.35577
     245 -> 247        0.11469
     246 -> 248        0.38801

 The electronic state is 1-A.
 Alpha  occ. eigenvalues --  -46.94057 -19.31176 -19.29448 -19.25993 -19.24041
 Alpha  occ. eigenvalues --  -19.23648 -19.23615 -14.47033 -14.46061 -14.44180
 Alpha  occ. eigenvalues --  -14.43206 -10.44383 -10.42402 -10.38798 -10.38785
 Alpha  occ. eigenvalues --  -10.36529 -10.34843 -10.34835 -10.34751 -10.34689
 Alpha  occ. eigenvalues --  -10.34513 -10.34402 -10.34218 -10.34040 -10.33908
 Alpha  occ. eigenvalues --  -10.33037 -10.32681 -10.32385 -10.31927 -10.31926
 Alpha  occ. eigenvalues --  -10.31848 -10.31682 -10.31636 -10.31489 -10.31208
 Alpha  occ. eigenvalues --  -10.31175 -10.31157 -10.30852 -10.30766 -10.30765
 Alpha  occ. eigenvalues --  -10.30757 -10.30177 -10.30162 -10.30112 -10.29841
 Alpha  occ. eigenvalues --  -10.29774 -10.29701 -10.29650 -10.29634 -10.29577
 Alpha  occ. eigenvalues --  -10.29549 -10.29258 -10.29255 -10.29232 -10.29213
 Alpha  occ. eigenvalues --  -10.29115 -10.28957 -10.28753 -10.28753 -10.28605
 Alpha  occ. eigenvalues --  -10.28483 -10.28240 -10.28057 -10.28028 -10.27898
 Alpha  occ. eigenvalues --  -10.27653  -3.20233  -1.93827  -1.93393  -1.93193
 Alpha  occ. eigenvalues --   -1.18723  -1.17940  -1.11308  -1.10635  -1.10290
 Alpha  occ. eigenvalues --   -1.10034  -1.06485  -1.05742  -1.05534  -1.04679
 Alpha  occ. eigenvalues --   -0.94509  -0.92482  -0.91725  -0.91451  -0.91353
 Alpha  occ. eigenvalues --   -0.90511  -0.90401  -0.89500  -0.89193  -0.88926
 Alpha  occ. eigenvalues --   -0.87971  -0.87676  -0.85948  -0.85437  -0.85088
 Alpha  occ. eigenvalues --   -0.84432  -0.84214  -0.83303  -0.82833  -0.82533
 Alpha  occ. eigenvalues --   -0.81940  -0.80488  -0.79929  -0.79327  -0.78267
 Alpha  occ. eigenvalues --   -0.78022  -0.77189  -0.77181  -0.76391  -0.76110
 Alpha  occ. eigenvalues --   -0.75356  -0.74605  -0.73682  -0.72744  -0.71043
 Alpha  occ. eigenvalues --   -0.70514  -0.70073  -0.69516  -0.68871  -0.67816
 Alpha  occ. eigenvalues --   -0.67668  -0.67530  -0.66732  -0.66527  -0.65972
 Alpha  occ. eigenvalues --   -0.65850  -0.65155  -0.64632  -0.63752  -0.62734
 Alpha  occ. eigenvalues --   -0.61901  -0.61499  -0.61232  -0.60581  -0.59991
 Alpha  occ. eigenvalues --   -0.59304  -0.58740  -0.58228  -0.58056  -0.57203
 Alpha  occ. eigenvalues --   -0.56843  -0.56673  -0.56212  -0.55904  -0.55541
 Alpha  occ. eigenvalues --   -0.55390  -0.55242  -0.55055  -0.54914  -0.54810
 Alpha  occ. eigenvalues --   -0.54551  -0.54376  -0.54234  -0.53847  -0.53480
 Alpha  occ. eigenvalues --   -0.53283  -0.53101  -0.52835  -0.52664  -0.52563
 Alpha  occ. eigenvalues --   -0.52274  -0.51998  -0.51965  -0.51881  -0.51464
 Alpha  occ. eigenvalues --   -0.51369  -0.51141  -0.50959  -0.50767  -0.50505
 Alpha  occ. eigenvalues --   -0.50374  -0.50292  -0.50161  -0.50129  -0.49943
 Alpha  occ. eigenvalues --   -0.49715  -0.49583  -0.49208  -0.48827  -0.48482
 Alpha  occ. eigenvalues --   -0.48200  -0.48014  -0.47992  -0.47783  -0.47537
 Alpha  occ. eigenvalues --   -0.47313  -0.47267  -0.47110  -0.46967  -0.46905
 Alpha  occ. eigenvalues --   -0.46780  -0.46580  -0.46350  -0.45887  -0.45828
 Alpha  occ. eigenvalues --   -0.45613  -0.45366  -0.45250  -0.45168  -0.44825
 Alpha  occ. eigenvalues --   -0.44746  -0.44723  -0.44488  -0.44335  -0.44106
 Alpha  occ. eigenvalues --   -0.44033  -0.43919  -0.43621  -0.43405  -0.43311
 Alpha  occ. eigenvalues --   -0.43125  -0.42894  -0.42639  -0.42170  -0.42081
 Alpha  occ. eigenvalues --   -0.41674  -0.41566  -0.41547  -0.41154  -0.40683
 Alpha  occ. eigenvalues --   -0.40502  -0.40354  -0.40057  -0.39829  -0.39400
 Alpha  occ. eigenvalues --   -0.39272  -0.39018  -0.38994  -0.38812  -0.37912
 Alpha  occ. eigenvalues --   -0.37635  -0.37610  -0.36914  -0.36825  -0.36059
 Alpha  occ. eigenvalues --   -0.35859  -0.35634  -0.35123  -0.33850  -0.32951
 Alpha  occ. eigenvalues --   -0.32588  -0.32263  -0.32005  -0.31482  -0.26244
 Alpha  occ. eigenvalues --   -0.22747
 Alpha virt. eigenvalues --   -0.07018   0.00682   0.02863   0.04205   0.06020
 Alpha virt. eigenvalues --    0.06768   0.07889   0.07957   0.08646   0.09322
 Alpha virt. eigenvalues --    0.10670   0.11456   0.11681   0.11849   0.12071

 Mulliken charges:
               1
     1  Mg   0.982116
     2  C   -0.005490
     3  C   -0.111041
     4  C   -0.081900
     5  C   -0.090195
     6  N   -0.312166
     7  C   -0.001740
     8  C    0.010516
     9  C   -0.148213
    10  C    0.040703
    11  C    0.027864
    12  C    0.044505
    13  C   -0.055939
    14  C    0.242135
    15  O   -0.255248
    16  O   -0.381866
    17  N   -0.507827
    18  C    0.192705
    19  C   -0.155113
    20  C   -0.070765
    21  C    0.161173
    22  C    0.080735
    23  C    0.047807
    24  O   -0.268826
    25  C   -0.012657
    26  N   -0.435402
    27  C    0.105181
    28  C   -0.070075
    29  C   -0.047622
    30  C    0.073204
    31  C    0.011994
    32  C    0.011910
    33  C   -0.085426
    34  N   -0.392136
    35  C    0.109458
    36  C   -0.222532
    37  C   -0.030628
    38  C    0.143860
    39  C    0.072276
    40  C    0.123476
    41  O   -0.204400
    42  C   -0.111813
    43  C    0.240261
    44  O   -0.208696
    45  O   -0.362931
    46  C    0.135984
    47  C    0.268902
    48  C   -0.157996
    49  C   -0.207671
    50  C    0.028726
    51  C    0.041125
    52  C   -0.029775
    53  C    0.018238
    54  C   -0.206262
    55  C    0.010252
    56  C   -0.013833
    57  C   -0.011471
    58  C   -0.014670
    59  C   -0.179352
    60  C    0.025988
    61  C    0.015453
    62  C   -0.038882
    63  C    0.007181
    64  C   -0.229032
    65  C   -0.005789
    66  C   -0.003762
    67  H   -0.017540
    68  H    0.020936
    69  H   -0.006574
    70  H    0.028114
    71  H    0.038469
    72  H    0.044065
    73  H    0.045011
    74  H    0.035929
    75  H    0.036323
    76  H    0.074991
    77  H    0.061119
    78  H    0.057536
    79  H    0.034378
    80  H    0.057340
    81  H    0.047157
    82  H    0.042143
    83  H    0.060629
    84  H    0.058427
    85  H    0.043950
    86  H    0.031721
    87  H    0.032343
    88  H    0.054059
    89  H    0.049191
    90  H    0.045431
    91  H    0.042017
    92  H    0.037080
    93  H    0.029591
    94  H    0.033440
    95  H    0.061222
    96  H    0.034045
    97  H    0.037800
    98  H    0.064817
    99  H    0.079852
   100  H    0.048359
   101  H    0.046156
   102  H    0.071584
   103  H    0.045447
   104  H    0.018942
   105  H    0.026734
   106  H    0.036139
   107  H    0.057703
   108  H    0.013369
   109  H    0.023041
   110  H    0.021818
   111  H    0.025834
   112  H    0.015422
   113  H    0.007202
   114  H    0.015990
   115  H    0.024122
   116  H    0.028638
   117  H    0.014583
   118  H    0.030596
   119  H    0.025565
   120  H   -0.001561
   121  H    0.016323
   122  H    0.037545
   123  H    0.024358
   124  H    0.024852
   125  H    0.023281
   126  H    0.021407
   127  H    0.021656
   128  H    0.006099
   129  H    0.011152
   130  H    0.029373
   131  H    0.025328
   132  H    0.019288
   133  H    0.014676
   134  H    0.025053
   135  H    0.017896
   136  H    0.037588
   137  H    0.022031
   138  H    0.028109
   139  H    0.037237
   140  H    0.021466
 Sum of Mulliken charges =  -0.00000

 Dipole moment (field-independent basis, Debye):
    X=              3.6202    Y=              4.0176    Z=              2.5126  Tot=              5.9633
 Quadrupole moment (field-independent basis, Debye-Ang):
   XX=           -376.9254   YY=           -416.6248   ZZ=           -402.8316
   XY=             -0.8707   XZ=              3.6529   YZ=              3.0281

 Normal termination of Gaussian 16 at Sat Apr 30 19:22:18 2022.
