 Gaussian 16, Revision A.03,
 Gaussian 16:  ES64L-G16RevA.03 25-Dec-2016

 --------------------
 #p ZINDO=(nstates=5)
 --------------------

 -----------------------------
 step_851_chromophore_22 ZINDO
 -----------------------------
 Symbolic Z-matrix:
 Charge =  0 Multiplicity = 1

                         Standard orientation:
 ---------------------------------------------------------------------
 Center     Atomic      Atomic             Coordinates (Angstroms)
 Number     Number       Type             X           Y           Z
 ---------------------------------------------------------------------
      1         12           0       -6.382522    0.551670    0.127832
      2          6           0       -3.893392   -2.049054    0.437868
      3          6           0       -3.839806    2.592590    1.155009
      4          6           0       -8.472076    2.897013   -0.285128
      5          6           0       -8.781530   -1.929749   -0.466312
      6          7           0       -4.197511    0.245723    0.771156
      7          6           0       -3.365046   -0.880244    0.858757
      8          6           0       -1.866417   -0.600861    1.290253
      9          6           0       -2.027339    0.900431    1.770782
     10          6           0       -3.412590    1.251391    1.174086
     11          6           0       -2.086025    1.163636    3.291847
     12          6           0       -0.624239   -0.712885    0.287597
     13          6           0        0.487521   -1.625670    0.842207
     14          6           0        1.671548   -1.999914   -0.100533
     15          8           0        1.611176   -2.109062   -1.320478
     16          8           0        2.871668   -1.965965    0.630419
     17          7           0       -6.215947    2.539174    0.387390
     18          6           0       -5.054239    3.185411    0.728714
     19          6           0       -5.319631    4.625052    0.758135
     20          6           0       -6.685893    4.742087    0.317926
     21          6           0       -7.233848    3.391357    0.142922
     22          6           0       -4.280900    5.706975    1.095077
     23          6           0       -7.509384    5.949649    0.056246
     24          8           0       -8.758846    5.953051   -0.127722
     25          6           0       -6.778682    7.221942   -0.047030
     26          7           0       -8.351768    0.433280   -0.262046
     27          6           0       -8.956410    1.628114   -0.487885
     28          6           0      -10.345447    1.375294   -1.042613
     29          6           0      -10.509577   -0.161890   -1.104194
     30          6           0       -9.182425   -0.620303   -0.565839
     31          6           0      -11.491921    2.071884   -0.200553
     32          6           0      -10.929056   -0.673947   -2.478424
     33          6           0      -12.164420   -1.603484   -2.422435
     34          7           0       -6.376839   -1.573453    0.107601
     35          6           0       -7.473261   -2.398179   -0.146355
     36          6           0       -6.930433   -3.735973    0.041101
     37          6           0       -5.566471   -3.676466    0.140410
     38          6           0       -5.282105   -2.278400    0.187559
     39          6           0       -7.793392   -4.949863    0.182420
     40          6           0       -4.314537   -4.435646    0.292844
     41          8           0       -4.169167   -5.652777    0.245734
     42          6           0       -3.193030   -3.365614    0.444369
     43          6           0       -2.216627   -3.592728   -0.677657
     44          8           0       -2.286793   -3.097937   -1.759836
     45          8           0       -1.283640   -4.502110   -0.282857
     46          6           0       -0.149480   -4.805135   -1.120049
     47          6           0        4.104222   -2.050218   -0.199061
     48          6           0        5.177526   -1.253249    0.522593
     49          6           0        6.515636   -1.424829    0.546462
     50          6           0        7.239312   -2.387053   -0.391574
     51          6           0        7.352221   -0.395363    1.318163
     52          6           0        8.448324   -0.902676    2.298888
     53          6           0        9.789505   -0.040215    2.345137
     54          6           0       11.055617   -0.826444    1.883704
     55          6           0       12.036317   -0.982883    3.053279
     56          6           0       11.746794   -0.085976    0.760092
     57          6           0       10.868981    0.013975   -0.480201
     58          6           0       10.455855    1.516015   -0.725921
     59          6           0       11.135418    1.938625   -2.075393
     60          6           0       10.117353    2.616963   -2.948351
     61          6           0       12.462475    2.757097   -1.832809
     62          6           0       13.736214    2.177991   -2.476925
     63          6           0       15.072623    2.354307   -1.608298
     64          6           0       15.431774    1.031945   -0.818118
     65          6           0       15.978746    1.311261    0.575026
     66          6           0       16.314053    0.022169   -1.636409
     67          1           0       -3.061591    3.266708    1.518469
     68          1           0       -9.214835    3.688918   -0.403977
     69          1           0       -9.497340   -2.743041   -0.602094
     70          1           0       -1.622927   -1.103551    2.226561
     71          1           0       -1.430038    1.694386    1.321395
     72          1           0       -2.662762    2.057674    3.528067
     73          1           0       -1.061699    1.219238    3.659219
     74          1           0       -2.579653    0.336626    3.802742
     75          1           0       -0.153402    0.268113    0.224945
     76          1           0       -0.954781   -0.964071   -0.720888
     77          1           0        0.085641   -2.589599    1.156000
     78          1           0        0.896118   -1.120656    1.716819
     79          1           0       -3.306575    5.275074    1.324746
     80          1           0       -4.542600    6.416536    1.880906
     81          1           0       -4.141321    6.279717    0.178465
     82          1           0       -7.394032    8.007944   -0.485349
     83          1           0       -5.896804    7.219082   -0.688273
     84          1           0       -6.675620    7.583169    0.975582
     85          1           0      -10.268976    1.677216   -2.087942
     86          1           0      -11.198730   -0.595956   -0.379946
     87          1           0      -12.371720    1.429127   -0.182015
     88          1           0      -11.780200    3.027270   -0.638218
     89          1           0      -11.208952    2.241862    0.838526
     90          1           0      -10.140470   -1.321757   -2.860973
     91          1           0      -11.285522    0.147009   -3.101565
     92          1           0      -12.704915   -1.610899   -3.369107
     93          1           0      -12.886368   -1.314422   -1.658939
     94          1           0      -11.863314   -2.625138   -2.190469
     95          1           0       -7.184786   -5.849000    0.282471
     96          1           0       -8.551722   -5.042298   -0.594071
     97          1           0       -8.385920   -4.775471    1.079757
     98          1           0       -2.663831   -3.688218    1.340913
     99          1           0       -0.124331   -4.357856   -2.114988
    100          1           0       -0.229528   -5.883922   -1.252504
    101          1           0        0.752353   -4.624747   -0.535537
    102          1           0        4.119778   -1.722667   -1.239245
    103          1           0        4.454775   -3.080527   -0.260233
    104          1           0        4.853917   -0.493997    1.234036
    105          1           0        6.586989   -3.044723   -0.966680
    106          1           0        7.868571   -3.010862    0.244102
    107          1           0        7.874826   -1.857461   -1.100209
    108          1           0        6.636130    0.274313    1.793950
    109          1           0        7.783697    0.268052    0.569123
    110          1           0        8.661876   -1.962849    2.162478
    111          1           0        8.051588   -0.868608    3.313466
    112          1           0        9.952702    0.246283    3.383381
    113          1           0        9.731490    0.879298    1.761116
    114          1           0       10.713689   -1.803922    1.542116
    115          1           0       12.934157   -0.398654    2.854555
    116          1           0       12.289332   -2.009805    3.314113
    117          1           0       11.688186   -0.629197    4.023953
    118          1           0       12.599723   -0.744878    0.597915
    119          1           0       12.050479    0.864665    1.198929
    120          1           0        9.962638   -0.588703   -0.427868
    121          1           0       11.352507   -0.470664   -1.327857
    122          1           0       10.762282    2.131342    0.120900
    123          1           0        9.366525    1.485313   -0.701798
    124          1           0       11.431493    1.082238   -2.680838
    125          1           0        9.166113    2.720502   -2.424443
    126          1           0        9.918993    1.977724   -3.809023
    127          1           0       10.484268    3.574148   -3.318331
    128          1           0       12.587500    2.947730   -0.767403
    129          1           0       12.406468    3.775921   -2.216621
    130          1           0       13.823653    2.724956   -3.415786
    131          1           0       13.542275    1.114528   -2.617052
    132          1           0       15.039019    3.182302   -0.900975
    133          1           0       15.928642    2.583207   -2.242559
    134          1           0       14.496713    0.483155   -0.713589
    135          1           0       16.857081    0.729012    0.854281
    136          1           0       15.169139    1.147403    1.285899
    137          1           0       16.408772    2.302123    0.718835
    138          1           0       16.295652    0.338699   -2.679126
    139          1           0       16.025946   -1.020030   -1.502111
    140          1           0       17.332657    0.125295   -1.263313
 ---------------------------------------------------------------------

 SCF Done:  E(RZINDO/S) =  -474.387327344     A.U. after   19 cycles

 Excitation energies and oscillator strengths:

 Excited State   1:      Singlet-A      1.2291 eV 1008.78 nm  f=0.6102  <S**2>=0.000
     175 ->178         0.16833
     176 ->177         0.66898
 This state for optimization and/or second-order correction.
 Total Energy, E(CIS/TDA) =  -474.342160575
 Copying the excited state density for this state as the 1-particle RhoCI density.

 Excited State   2:      Singlet-A      1.9915 eV  622.55 nm  f=0.0445  <S**2>=0.000
     175 ->177         0.54720
     176 ->178        -0.41827

 Excited State   3:      Singlet-A      2.9312 eV  422.98 nm  f=0.0024  <S**2>=0.000
     168 ->177         0.33724
     168 ->178        -0.18729
     168 ->179        -0.39709
     168 ->180        -0.16156
     168 ->181         0.19937
     168 ->184        -0.11337
     168 ->186        -0.20501

 Excited State   4:      Singlet-A      3.0171 eV  410.94 nm  f=0.1035  <S**2>=0.000
     170 ->181        -0.11960
     175 ->177        -0.13276
     176 ->178        -0.12189
     176 ->179         0.56775
     176 ->180        -0.12499
     176 ->181         0.19757

 Excited State   5:      Singlet-A      3.0578 eV  405.47 nm  f=0.8122  <S**2>=0.000
     171 ->177         0.14634
     175 ->177         0.33068
     176 ->178         0.48781
     176 ->179         0.25102

 The electronic state is 1-A.
 Alpha  occ. eigenvalues --   -1.84766  -1.82779  -1.80485  -1.73403  -1.71582
 Alpha  occ. eigenvalues --   -1.69400  -1.67455  -1.59331  -1.58018  -1.57385
 Alpha  occ. eigenvalues --   -1.53288  -1.51958  -1.49677  -1.49152  -1.47518
 Alpha  occ. eigenvalues --   -1.45181  -1.43326  -1.40712  -1.39175  -1.36710
 Alpha  occ. eigenvalues --   -1.36276  -1.33289  -1.33200  -1.31831  -1.29132
 Alpha  occ. eigenvalues --   -1.28143  -1.25399  -1.22218  -1.20269  -1.18136
 Alpha  occ. eigenvalues --   -1.17522  -1.16751  -1.15596  -1.14507  -1.12555
 Alpha  occ. eigenvalues --   -1.11790  -1.11217  -1.11037  -1.05677  -1.04269
 Alpha  occ. eigenvalues --   -1.03122  -1.01344  -0.99872  -0.98422  -0.97544
 Alpha  occ. eigenvalues --   -0.96255  -0.94970  -0.94176  -0.93030  -0.91560
 Alpha  occ. eigenvalues --   -0.91077  -0.90293  -0.90107  -0.87793  -0.87731
 Alpha  occ. eigenvalues --   -0.86103  -0.84855  -0.83851  -0.82022  -0.80444
 Alpha  occ. eigenvalues --   -0.79615  -0.79031  -0.77509  -0.76372  -0.75393
 Alpha  occ. eigenvalues --   -0.74644  -0.74496  -0.74052  -0.73754  -0.73178
 Alpha  occ. eigenvalues --   -0.72494  -0.72206  -0.71123  -0.71052  -0.70590
 Alpha  occ. eigenvalues --   -0.70082  -0.69495  -0.68955  -0.68922  -0.67638
 Alpha  occ. eigenvalues --   -0.67523  -0.67012  -0.66907  -0.66065  -0.65433
 Alpha  occ. eigenvalues --   -0.64916  -0.64471  -0.64261  -0.63641  -0.63460
 Alpha  occ. eigenvalues --   -0.63118  -0.62861  -0.62812  -0.62192  -0.61620
 Alpha  occ. eigenvalues --   -0.61414  -0.61049  -0.60764  -0.60173  -0.60122
 Alpha  occ. eigenvalues --   -0.59257  -0.59183  -0.58943  -0.58715  -0.58316
 Alpha  occ. eigenvalues --   -0.57638  -0.57341  -0.57303  -0.56694  -0.56572
 Alpha  occ. eigenvalues --   -0.56210  -0.55540  -0.55067  -0.54963  -0.54648
 Alpha  occ. eigenvalues --   -0.54465  -0.54046  -0.53585  -0.53433  -0.53015
 Alpha  occ. eigenvalues --   -0.52530  -0.52425  -0.52074  -0.52058  -0.51818
 Alpha  occ. eigenvalues --   -0.51642  -0.51385  -0.50714  -0.50010  -0.49846
 Alpha  occ. eigenvalues --   -0.49600  -0.49492  -0.49475  -0.49193  -0.48806
 Alpha  occ. eigenvalues --   -0.48721  -0.48433  -0.48386  -0.47962  -0.47869
 Alpha  occ. eigenvalues --   -0.47501  -0.47323  -0.47215  -0.46970  -0.46891
 Alpha  occ. eigenvalues --   -0.46627  -0.46447  -0.45747  -0.45035  -0.44721
 Alpha  occ. eigenvalues --   -0.44673  -0.44610  -0.44419  -0.44236  -0.44047
 Alpha  occ. eigenvalues --   -0.43961  -0.43426  -0.42775  -0.42660  -0.42292
 Alpha  occ. eigenvalues --   -0.40992  -0.40812  -0.40685  -0.39416  -0.38965
 Alpha  occ. eigenvalues --   -0.37854  -0.36625  -0.35474  -0.34665  -0.34334
 Alpha  occ. eigenvalues --   -0.33622  -0.32923  -0.32371  -0.31963  -0.27014
 Alpha  occ. eigenvalues --   -0.21546
 Alpha virt. eigenvalues --   -0.08522  -0.01465  -0.00380   0.01057   0.01152
 Alpha virt. eigenvalues --    0.02902   0.03399   0.03920   0.04762   0.05230
 Alpha virt. eigenvalues --    0.06453   0.06796   0.06960   0.07381   0.08372

 Mulliken charges:
               1
     1  Mg   0.429036
     2  C   -0.013826
     3  C   -0.092440
     4  C   -0.067956
     5  C   -0.056622
     6  N   -0.289075
     7  C    0.089447
     8  C   -0.001101
     9  C   -0.008608
    10  C    0.157631
    11  C   -0.045747
    12  C   -0.015712
    13  C    0.009455
    14  C    0.457727
    15  O   -0.500957
    16  O   -0.271483
    17  N   -0.321507
    18  C    0.120740
    19  C    0.016016
    20  C   -0.041526
    21  C    0.148691
    22  C   -0.039320
    23  C    0.333122
    24  O   -0.545260
    25  C   -0.032814
    26  N   -0.274279
    27  C    0.160443
    28  C    0.003781
    29  C    0.002239
    30  C    0.105833
    31  C   -0.049820
    32  C   -0.030294
    33  C   -0.062393
    34  N   -0.301419
    35  C    0.055247
    36  C    0.038080
    37  C   -0.067836
    38  C    0.114779
    39  C   -0.045255
    40  C    0.334721
    41  O   -0.522992
    42  C    0.053214
    43  C    0.493233
    44  O   -0.512691
    45  O   -0.275038
    46  C    0.076233
    47  C    0.106803
    48  C   -0.087154
    49  C   -0.021976
    50  C   -0.044194
    51  C   -0.021152
    52  C   -0.035100
    53  C   -0.043988
    54  C   -0.010418
    55  C   -0.062762
    56  C   -0.029516
    57  C   -0.043681
    58  C   -0.037364
    59  C   -0.009788
    60  C   -0.057047
    61  C   -0.039066
    62  C   -0.037455
    63  C   -0.037887
    64  C   -0.014994
    65  C   -0.055704
    66  C   -0.059964
    67  H    0.018634
    68  H    0.039109
    69  H    0.027396
    70  H    0.029603
    71  H    0.036293
    72  H    0.027722
    73  H    0.017594
    74  H    0.021314
    75  H    0.022754
    76  H    0.051547
    77  H    0.044327
    78  H    0.033316
    79  H    0.025548
    80  H    0.036362
    81  H    0.029214
    82  H    0.025770
    83  H    0.038544
    84  H    0.046053
    85  H    0.038692
    86  H    0.032292
    87  H    0.016781
    88  H    0.025674
    89  H    0.028261
    90  H    0.033158
    91  H    0.028682
    92  H    0.015487
    93  H    0.016128
    94  H    0.016555
    95  H    0.034765
    96  H    0.026394
    97  H    0.023978
    98  H    0.053203
    99  H    0.062098
   100  H    0.029888
   101  H    0.035482
   102  H    0.065153
   103  H    0.042436
   104  H    0.028184
   105  H    0.022516
   106  H    0.024196
   107  H    0.029201
   108  H    0.019286
   109  H    0.023913
   110  H    0.026318
   111  H    0.013288
   112  H    0.016841
   113  H    0.024702
   114  H    0.022222
   115  H    0.017366
   116  H    0.015467
   117  H    0.012878
   118  H    0.011826
   119  H    0.029136
   120  H    0.014555
   121  H    0.017481
   122  H    0.026898
   123  H    0.020740
   124  H    0.024710
   125  H    0.018960
   126  H    0.012544
   127  H    0.018975
   128  H    0.016136
   129  H    0.012714
   130  H    0.021373
   131  H    0.026187
   132  H    0.022126
   133  H    0.016527
   134  H    0.014938
   135  H    0.015547
   136  H    0.018090
   137  H    0.016562
   138  H    0.020060
   139  H    0.024003
   140  H    0.016037
 Sum of Mulliken charges =  -0.00000

 Dipole moment (field-independent basis, Debye):
    X=              4.8586    Y=              6.4184    Z=              5.0396  Tot=              9.4973
 N-N= 4.232650023221D+03 E-N= 0.000000000000D+00  KE=-9.139808604604D+03
 Leave Link  601 at Sat Apr 30 19:36:52 2022, MaxMem=  6710886400 cpu:               1.0 elap:               0.1
 (Enter /sw/apps/gaussian-16.0/g16/l9999.exe)
 1\1\GINC-BP1-COMPUTE198\SP\RZINDO CIS\STO-3G\C55H74Mg1N4O6\OF15641\30-
 Apr-2022\0\\#p ZINDO=(nstates=5)\\step_851_chromophore_22 ZINDO\\0,1\M
 g,0,8.922,47.878,24.897\C,0,6.724,47.809,27.764\C,0,11.307,48.677,27.2
 12\C,0,10.93,47.79,22.448\C,0,6.116,47.477,22.84\N,0,8.94,48.255,27.16
 4\C,0,7.952,48.207,28.159\C,0,8.448,48.473,29.64\C,0,9.899,49.021,29.3
 16\C,0,10.046,48.6,27.833\C,0,10.124,50.547,29.4\C,0,8.543,47.331,30.7
 57\C,0,7.8,47.722,32.05\C,0,7.626,46.637,33.156\O,0,7.53,45.429,32.968

 Normal termination of Gaussian 16 at Sat Apr 30 19:36:52 2022.
