 Gaussian 16, Revision A.03,
 Gaussian 16:  ES64L-G16RevA.03 25-Dec-2016

 ------------------------------
 #p blyp/Def2SVP td=(nstates=5)
 ------------------------------

 ---------------------------------------------------
 step_1801_chromophore_19 TDDFT with blyp functional
 ---------------------------------------------------
 Symbolic Z-matrix:
 Charge =  0 Multiplicity = 1

                         Standard orientation:
 ---------------------------------------------------------------------
 Center     Atomic      Atomic             Coordinates (Angstroms)
 Number     Number       Type             X           Y           Z
 ---------------------------------------------------------------------
      1         12           0       -5.905425    0.440891   -0.396050
      2          6           0       -3.594602   -2.271225   -0.267699
      3          6           0       -3.312954    2.471336    0.452601
      4          6           0       -8.103109    2.909138    0.202231
      5          6           0       -8.514335   -1.887037   -0.610705
      6          7           0       -3.773005    0.104861    0.008782
      7          6           0       -2.949646   -1.052136   -0.160822
      8          6           0       -1.460960   -0.829240    0.080373
      9          6           0       -1.468256    0.771216    0.371251
     10          6           0       -2.970358    1.119278    0.372821
     11          6           0       -0.715731    1.334377    1.630755
     12          6           0       -0.447220   -1.293477   -1.010013
     13          6           0        1.026561   -0.846584   -0.873229
     14          6           0        2.259716   -1.866923   -0.677023
     15          8           0        2.228285   -3.072935   -0.490586
     16          8           0        3.439905   -1.174570   -0.887800
     17          7           0       -5.672884    2.463516    0.193475
     18          6           0       -4.515303    3.116448    0.257550
     19          6           0       -4.872270    4.543849    0.343803
     20          6           0       -6.275909    4.734608    0.317060
     21          6           0       -6.780886    3.322845    0.261364
     22          6           0       -3.786739    5.559463    0.440003
     23          6           0       -7.111761    5.927584    0.493096
     24          8           0       -8.283651    5.902174    0.714958
     25          6           0       -6.454621    7.278170    0.374705
     26          7           0       -7.999088    0.485960   -0.242297
     27          6           0       -8.676292    1.608634    0.035344
     28          6           0      -10.102890    1.342247    0.414231
     29          6           0      -10.320510   -0.150892   -0.013343
     30          6           0       -8.887583   -0.619746   -0.236020
     31          6           0      -10.263260    1.607173    1.957155
     32          6           0      -11.319921   -0.331309   -1.213689
     33          6           0      -10.694034   -0.209835   -2.685182
     34          7           0       -6.081216   -1.674547   -0.451636
     35          6           0       -7.201735   -2.456452   -0.554664
     36          6           0       -6.799468   -3.845092   -0.536541
     37          6           0       -5.422045   -3.824458   -0.494154
     38          6           0       -5.003747   -2.507449   -0.411676
     39          6           0       -7.755640   -4.998731   -0.584819
     40          6           0       -4.268923   -4.634521   -0.430342
     41          8           0       -4.170000   -5.875077   -0.523203
     42          6           0       -3.084296   -3.671746   -0.164181
     43          6           0       -2.626110   -4.114640    1.146963
     44          8           0       -3.235511   -4.176185    2.155434
     45          8           0       -1.269863   -4.534613    1.019317
     46          6           0       -0.638103   -5.187847    2.222026
     47          6           0        4.591327   -2.046775   -0.971275
     48          6           0        5.881824   -1.207102   -0.887650
     49          6           0        6.330647   -0.501204    0.182810
     50          6           0        5.621184   -0.311497    1.483858
     51          6           0        7.755093   -0.017569    0.249586
     52          6           0        7.957668    1.177360   -0.724607
     53          6           0        8.676989    0.931161   -2.092545
     54          6           0        9.834471    1.925598   -2.392024
     55          6           0        9.190927    2.948246   -3.340489
     56          6           0       11.118291    1.428855   -3.054899
     57          6           0       12.380626    1.795371   -2.360576
     58          6           0       13.289246    0.485938   -2.227045
     59          6           0       13.578684    0.053481   -0.811090
     60          6           0       14.609426   -1.021485   -0.825603
     61          6           0       12.332447   -0.211033    0.148310
     62          6           0       12.100841    0.946404    1.133693
     63          6           0       12.844558    0.723221    2.553694
     64          6           0       11.840350    0.494144    3.742690
     65          6           0       11.103703   -0.888320    3.777695
     66          6           0       10.800913    1.643227    3.883861
     67          1           0       -2.500719    3.191648    0.573429
     68          1           0       -8.887416    3.667820    0.184512
     69          1           0       -9.383267   -2.545661   -0.676172
     70          1           0       -1.156771   -1.270235    1.029535
     71          1           0       -0.993140    1.201243   -0.511228
     72          1           0       -0.233582    2.230041    1.238377
     73          1           0       -0.001872    0.554873    1.899866
     74          1           0       -1.421145    1.629643    2.407346
     75          1           0       -0.894424   -1.052056   -1.974445
     76          1           0       -0.491840   -2.383095   -1.004011
     77          1           0        1.056292   -0.189398   -0.004460
     78          1           0        1.186915   -0.367488   -1.839348
     79          1           0       -4.054057    6.252874   -0.356989
     80          1           0       -2.771165    5.173225    0.349358
     81          1           0       -3.809377    6.264847    1.271084
     82          1           0       -6.050539    7.455814   -0.622011
     83          1           0       -5.725628    7.340113    1.183299
     84          1           0       -7.155650    8.086648    0.580046
     85          1           0      -10.705362    1.971712   -0.240132
     86          1           0      -10.779456   -0.687782    0.817042
     87          1           0       -9.911062    2.585311    2.283196
     88          1           0       -9.909687    0.739485    2.513497
     89          1           0      -11.352104    1.614266    2.021080
     90          1           0      -12.059036    0.448367   -1.026621
     91          1           0      -11.710149   -1.344126   -1.110237
     92          1           0       -9.672499    0.167191   -2.666307
     93          1           0      -11.356347    0.391974   -3.307604
     94          1           0      -10.676067   -1.204488   -3.132347
     95          1           0       -8.794148   -4.787831   -0.837430
     96          1           0       -7.731239   -5.450193    0.407104
     97          1           0       -7.442615   -5.781690   -1.275494
     98          1           0       -2.328722   -3.855192   -0.927804
     99          1           0       -1.150418   -4.756944    3.081692
    100          1           0        0.418686   -4.936666    2.311222
    101          1           0       -0.753540   -6.267638    2.306017
    102          1           0        4.652583   -2.612522   -1.901170
    103          1           0        4.567287   -2.752946   -0.142099
    104          1           0        6.426214   -1.445607   -1.801059
    105          1           0        5.860457    0.637494    1.962541
    106          1           0        5.946261   -1.162704    2.082643
    107          1           0        4.547479   -0.287697    1.298413
    108          1           0        8.481057   -0.810304    0.069904
    109          1           0        7.945290    0.387659    1.243373
    110          1           0        8.602280    1.869804   -0.183947
    111          1           0        6.994523    1.621688   -0.978011
    112          1           0        7.915411    1.007582   -2.869024
    113          1           0        9.131062   -0.044680   -2.266757
    114          1           0       10.065349    2.522449   -1.508974
    115          1           0        9.884882    3.743934   -3.610463
    116          1           0        8.355172    3.389585   -2.796483
    117          1           0        8.820806    2.581727   -4.297685
    118          1           0       11.153632    1.684676   -4.114378
    119          1           0       11.060480    0.340993   -3.094601
    120          1           0       12.162332    2.158699   -1.356529
    121          1           0       12.896394    2.601697   -2.880695
    122          1           0       14.217758    0.619108   -2.782207
    123          1           0       12.909249   -0.432249   -2.676269
    124          1           0       14.215424    0.878494   -0.492146
    125          1           0       14.089902   -1.861869   -0.364805
    126          1           0       15.464992   -0.707118   -0.226385
    127          1           0       14.892316   -1.425894   -1.797142
    128          1           0       12.450433   -1.122862    0.734631
    129          1           0       11.431282   -0.224004   -0.464873
    130          1           0       11.021066    1.021085    1.258795
    131          1           0       12.473564    1.833824    0.621523
    132          1           0       13.408471    1.629792    2.772471
    133          1           0       13.574284   -0.086416    2.578164
    134          1           0       12.471102    0.546111    4.630191
    135          1           0       11.256053   -1.415287    2.835798
    136          1           0       10.077110   -0.878090    4.142429
    137          1           0       11.562037   -1.505907    4.549250
    138          1           0        9.793484    1.241028    3.994945
    139          1           0       10.853222    2.212167    2.956228
    140          1           0       11.087934    2.290115    4.712983
 ---------------------------------------------------------------------

 SCF Done:  E(RB-LYP) =  -3007.35722734     A.U. after   20 cycles

 Excitation energies and oscillator strengths:

 Excited State   1:      Singlet-A      1.7455 eV  710.29 nm  f=0.0718  <S**2>=0.000
     244 -> 247        0.54393
     245 -> 247       -0.31260
     246 -> 247       -0.31518
 This state for optimization and/or second-order correction.
 Total Energy, E(TD-HF/TD-DFT) =  -3007.29308010
 Copying the excited state density for this state as the 1-particle RhoCI density.

 Excited State   2:      Singlet-A      1.7708 eV  700.15 nm  f=0.2280  <S**2>=0.000
     244 -> 247        0.26427
     245 -> 247       -0.18400
     245 -> 248        0.15930
     246 -> 247        0.61525
     246 <- 247       -0.12661

 Excited State   3:      Singlet-A      2.0192 eV  614.04 nm  f=0.0552  <S**2>=0.000
     243 -> 247        0.17272
     244 -> 247        0.34235
     245 -> 247        0.53244
     246 -> 248       -0.23619

 Excited State   4:      Singlet-A      2.1209 eV  584.59 nm  f=0.0071  <S**2>=0.000
     243 -> 247        0.68411
     245 -> 247       -0.13033

 Excited State   5:      Singlet-A      2.2789 eV  544.06 nm  f=0.0004  <S**2>=0.000
     242 -> 247        0.70563

 The electronic state is 1-A.
 Alpha  occ. eigenvalues --  -46.27161 -18.82364 -18.79882 -18.77765 -18.76544
 Alpha  occ. eigenvalues --  -18.75899 -18.74524 -14.03575 -14.03162 -14.01067
 Alpha  occ. eigenvalues --  -14.00169 -10.04946 -10.02876  -9.99885  -9.98346
 Alpha  occ. eigenvalues --   -9.97483  -9.96737  -9.96585  -9.96420  -9.96387
 Alpha  occ. eigenvalues --   -9.96154  -9.95979  -9.95719  -9.94985  -9.94815
 Alpha  occ. eigenvalues --   -9.94793  -9.94459  -9.94166  -9.93817  -9.93766
 Alpha  occ. eigenvalues --   -9.93671  -9.93411  -9.93405  -9.93338  -9.93287
 Alpha  occ. eigenvalues --   -9.93149  -9.93094  -9.93065  -9.92783  -9.92689
 Alpha  occ. eigenvalues --   -9.92591  -9.92547  -9.92535  -9.92350  -9.92304
 Alpha  occ. eigenvalues --   -9.92190  -9.92099  -9.92012  -9.91969  -9.91950
 Alpha  occ. eigenvalues --   -9.91928  -9.91728  -9.91652  -9.91613  -9.91544
 Alpha  occ. eigenvalues --   -9.91480  -9.91190  -9.91151  -9.91128  -9.91106
 Alpha  occ. eigenvalues --   -9.90929  -9.90753  -9.90352  -9.90335  -9.90247
 Alpha  occ. eigenvalues --   -9.89618  -2.91750  -1.72176  -1.71611  -1.71476
 Alpha  occ. eigenvalues --   -0.98248  -0.96613  -0.93663  -0.90339  -0.89089
 Alpha  occ. eigenvalues --   -0.88499  -0.86198  -0.85543  -0.85348  -0.84516
 Alpha  occ. eigenvalues --   -0.75839  -0.73879  -0.73315  -0.72466  -0.72159
 Alpha  occ. eigenvalues --   -0.72018  -0.71645  -0.71310  -0.70863  -0.70826
 Alpha  occ. eigenvalues --   -0.69422  -0.68867  -0.68039  -0.67232  -0.67040
 Alpha  occ. eigenvalues --   -0.66283  -0.65871  -0.65689  -0.64995  -0.64434
 Alpha  occ. eigenvalues --   -0.64316  -0.62833  -0.62479  -0.61394  -0.60201
 Alpha  occ. eigenvalues --   -0.60168  -0.59984  -0.59624  -0.59430  -0.58973
 Alpha  occ. eigenvalues --   -0.58351  -0.57562  -0.56717  -0.55641  -0.55318
 Alpha  occ. eigenvalues --   -0.54208  -0.53906  -0.53390  -0.52822  -0.51491
 Alpha  occ. eigenvalues --   -0.51086  -0.51054  -0.50611  -0.50269  -0.50141
 Alpha  occ. eigenvalues --   -0.49602  -0.48766  -0.47566  -0.47070  -0.46571
 Alpha  occ. eigenvalues --   -0.46152  -0.45866  -0.45603  -0.45151  -0.44294
 Alpha  occ. eigenvalues --   -0.43951  -0.43645  -0.43341  -0.42825  -0.42422
 Alpha  occ. eigenvalues --   -0.42013  -0.41953  -0.41638  -0.41189  -0.41046
 Alpha  occ. eigenvalues --   -0.40840  -0.40786  -0.40496  -0.40249  -0.39985
 Alpha  occ. eigenvalues --   -0.39829  -0.39664  -0.39503  -0.39434  -0.39165
 Alpha  occ. eigenvalues --   -0.38933  -0.38516  -0.38431  -0.38310  -0.38160
 Alpha  occ. eigenvalues --   -0.37797  -0.37711  -0.37527  -0.37516  -0.37352
 Alpha  occ. eigenvalues --   -0.37297  -0.37260  -0.36972  -0.36833  -0.36689
 Alpha  occ. eigenvalues --   -0.36387  -0.36345  -0.36233  -0.35823  -0.35789
 Alpha  occ. eigenvalues --   -0.35370  -0.35073  -0.34931  -0.34910  -0.34791
 Alpha  occ. eigenvalues --   -0.34298  -0.34233  -0.34152  -0.34009  -0.33906
 Alpha  occ. eigenvalues --   -0.33802  -0.33399  -0.33266  -0.33228  -0.33066
 Alpha  occ. eigenvalues --   -0.32975  -0.32579  -0.32362  -0.32267  -0.32199
 Alpha  occ. eigenvalues --   -0.32096  -0.32059  -0.31892  -0.31590  -0.31370
 Alpha  occ. eigenvalues --   -0.31336  -0.31330  -0.31261  -0.31005  -0.30862
 Alpha  occ. eigenvalues --   -0.30482  -0.30211  -0.30065  -0.29984  -0.29722
 Alpha  occ. eigenvalues --   -0.29447  -0.29371  -0.29273  -0.29159  -0.28827
 Alpha  occ. eigenvalues --   -0.28670  -0.28270  -0.28220  -0.27943  -0.27610
 Alpha  occ. eigenvalues --   -0.27452  -0.27172  -0.26916  -0.26597  -0.26431
 Alpha  occ. eigenvalues --   -0.26190  -0.26038  -0.25693  -0.25584  -0.25553
 Alpha  occ. eigenvalues --   -0.25044  -0.24615  -0.23894  -0.23600  -0.23333
 Alpha  occ. eigenvalues --   -0.23064  -0.22731  -0.22488  -0.21635  -0.20977
 Alpha  occ. eigenvalues --   -0.19925  -0.19842  -0.19133  -0.17941  -0.17153
 Alpha  occ. eigenvalues --   -0.15755
 Alpha virt. eigenvalues --   -0.11469  -0.06983  -0.06154  -0.04512  -0.03386
 Alpha virt. eigenvalues --   -0.03140  -0.02793  -0.01528  -0.01094   0.00115
 Alpha virt. eigenvalues --    0.01255   0.01354   0.01792   0.02138   0.02860

 Mulliken charges:
               1
     1  Mg   0.686635
     2  C    0.073049
     3  C   -0.056537
     4  C   -0.052115
     5  C   -0.033609
     6  N   -0.227911
     7  C   -0.104276
     8  C    0.034242
     9  C   -0.089101
    10  C    0.080902
    11  C    0.137318
    12  C    0.116295
    13  C    0.093438
    14  C    0.105486
    15  O   -0.174126
    16  O   -0.270929
    17  N   -0.290918
    18  C    0.110610
    19  C   -0.115429
    20  C    0.067587
    21  C    0.110897
    22  C    0.160353
    23  C   -0.105219
    24  O   -0.128013
    25  C    0.116020
    26  N   -0.249931
    27  C   -0.007680
    28  C    0.007320
    29  C    0.041431
    30  C    0.004366
    31  C    0.140126
    32  C    0.060269
    33  C    0.054959
    34  N   -0.239261
    35  C    0.092150
    36  C   -0.169632
    37  C    0.187736
    38  C    0.022416
    39  C    0.168232
    40  C   -0.124667
    41  O   -0.158222
    42  C    0.091330
    43  C    0.108369
    44  O   -0.121989
    45  O   -0.318116
    46  C    0.205686
    47  C    0.278228
    48  C   -0.112656
    49  C   -0.144867
    50  C    0.157598
    51  C    0.157267
    52  C    0.053453
    53  C    0.116382
    54  C   -0.097398
    55  C    0.077552
    56  C    0.141081
    57  C    0.116878
    58  C    0.050393
    59  C   -0.087506
    60  C    0.118810
    61  C    0.123696
    62  C    0.022094
    63  C    0.090500
    64  C   -0.100332
    65  C    0.096361
    66  C    0.099211
    67  H   -0.080241
    68  H   -0.037192
    69  H   -0.066960
    70  H   -0.020055
    71  H   -0.014153
    72  H   -0.003534
    73  H    0.005739
    74  H    0.006661
    75  H   -0.033246
    76  H   -0.001200
    77  H    0.003987
    78  H    0.016797
    79  H   -0.005585
    80  H   -0.005629
    81  H   -0.002252
    82  H    0.018672
    83  H   -0.001017
    84  H   -0.018987
    85  H   -0.026492
    86  H   -0.035340
    87  H    0.019280
    88  H    0.004742
    89  H   -0.013223
    90  H   -0.011053
    91  H   -0.009344
    92  H    0.016112
    93  H   -0.004655
    94  H   -0.007436
    95  H   -0.021602
    96  H    0.005020
    97  H    0.002236
    98  H   -0.002916
    99  H    0.005413
   100  H    0.017650
   101  H    0.020686
   102  H   -0.010721
   103  H   -0.001329
   104  H   -0.035947
   105  H   -0.006352
   106  H    0.014979
   107  H   -0.006546
   108  H   -0.007236
   109  H   -0.043184
   110  H   -0.025178
   111  H   -0.010982
   112  H   -0.032457
   113  H   -0.043716
   114  H   -0.031721
   115  H   -0.030920
   116  H   -0.030293
   117  H   -0.014139
   118  H   -0.040475
   119  H   -0.047755
   120  H   -0.036603
   121  H   -0.029286
   122  H   -0.040899
   123  H   -0.033740
   124  H   -0.044193
   125  H   -0.038757
   126  H   -0.009571
   127  H   -0.025912
   128  H   -0.015401
   129  H   -0.031698
   130  H   -0.014714
   131  H   -0.005396
   132  H   -0.034136
   133  H   -0.023836
   134  H   -0.035670
   135  H   -0.007762
   136  H   -0.015923
   137  H   -0.026131
   138  H   -0.016235
   139  H   -0.013718
   140  H   -0.013615
 Sum of Mulliken charges =  -0.00000

 Dipole moment (field-independent basis, Debye):
    X=              2.6249    Y=              5.9157    Z=             -0.7038  Tot=              6.5101
 Quadrupole moment (field-independent basis, Debye-Ang):
   XX=           -366.8725   YY=           -438.7264   ZZ=           -401.1628
   XY=             -3.6807   XZ=             17.5555   YZ=             -3.8460

 Normal termination of Gaussian 16 at Fri Apr 29 01:21:08 2022.
