 Gaussian 16, Revision A.03,
 Gaussian 16:  ES64L-G16RevA.03 25-Dec-2016

 -----------------------------------
 #p cam-b3lyp/Def2SVP td=(nstates=5)
 -----------------------------------

 --------------------------------------------------------
 step_1801_chromophore_19 TDDFT with cam-b3lyp functional
 --------------------------------------------------------
 Symbolic Z-matrix:
 Charge =  0 Multiplicity = 1

                         Standard orientation:
 ---------------------------------------------------------------------
 Center     Atomic      Atomic             Coordinates (Angstroms)
 Number     Number       Type             X           Y           Z
 ---------------------------------------------------------------------
      1         12           0       -5.905425    0.440891   -0.396050
      2          6           0       -3.594602   -2.271225   -0.267699
      3          6           0       -3.312954    2.471336    0.452601
      4          6           0       -8.103109    2.909138    0.202231
      5          6           0       -8.514335   -1.887037   -0.610705
      6          7           0       -3.773005    0.104861    0.008782
      7          6           0       -2.949646   -1.052136   -0.160822
      8          6           0       -1.460960   -0.829240    0.080373
      9          6           0       -1.468256    0.771216    0.371251
     10          6           0       -2.970358    1.119278    0.372821
     11          6           0       -0.715731    1.334377    1.630755
     12          6           0       -0.447220   -1.293477   -1.010013
     13          6           0        1.026561   -0.846584   -0.873229
     14          6           0        2.259716   -1.866923   -0.677023
     15          8           0        2.228285   -3.072935   -0.490586
     16          8           0        3.439905   -1.174570   -0.887800
     17          7           0       -5.672884    2.463516    0.193475
     18          6           0       -4.515303    3.116448    0.257550
     19          6           0       -4.872270    4.543849    0.343803
     20          6           0       -6.275909    4.734608    0.317060
     21          6           0       -6.780886    3.322845    0.261364
     22          6           0       -3.786739    5.559463    0.440003
     23          6           0       -7.111761    5.927584    0.493096
     24          8           0       -8.283651    5.902174    0.714958
     25          6           0       -6.454621    7.278170    0.374705
     26          7           0       -7.999088    0.485960   -0.242297
     27          6           0       -8.676292    1.608634    0.035344
     28          6           0      -10.102890    1.342247    0.414231
     29          6           0      -10.320510   -0.150892   -0.013343
     30          6           0       -8.887583   -0.619746   -0.236020
     31          6           0      -10.263260    1.607173    1.957155
     32          6           0      -11.319921   -0.331309   -1.213689
     33          6           0      -10.694034   -0.209835   -2.685182
     34          7           0       -6.081216   -1.674547   -0.451636
     35          6           0       -7.201735   -2.456452   -0.554664
     36          6           0       -6.799468   -3.845092   -0.536541
     37          6           0       -5.422045   -3.824458   -0.494154
     38          6           0       -5.003747   -2.507449   -0.411676
     39          6           0       -7.755640   -4.998731   -0.584819
     40          6           0       -4.268923   -4.634521   -0.430342
     41          8           0       -4.170000   -5.875077   -0.523203
     42          6           0       -3.084296   -3.671746   -0.164181
     43          6           0       -2.626110   -4.114640    1.146963
     44          8           0       -3.235511   -4.176185    2.155434
     45          8           0       -1.269863   -4.534613    1.019317
     46          6           0       -0.638103   -5.187847    2.222026
     47          6           0        4.591327   -2.046775   -0.971275
     48          6           0        5.881824   -1.207102   -0.887650
     49          6           0        6.330647   -0.501204    0.182810
     50          6           0        5.621184   -0.311497    1.483858
     51          6           0        7.755093   -0.017569    0.249586
     52          6           0        7.957668    1.177360   -0.724607
     53          6           0        8.676989    0.931161   -2.092545
     54          6           0        9.834471    1.925598   -2.392024
     55          6           0        9.190927    2.948246   -3.340489
     56          6           0       11.118291    1.428855   -3.054899
     57          6           0       12.380626    1.795371   -2.360576
     58          6           0       13.289246    0.485938   -2.227045
     59          6           0       13.578684    0.053481   -0.811090
     60          6           0       14.609426   -1.021485   -0.825603
     61          6           0       12.332447   -0.211033    0.148310
     62          6           0       12.100841    0.946404    1.133693
     63          6           0       12.844558    0.723221    2.553694
     64          6           0       11.840350    0.494144    3.742690
     65          6           0       11.103703   -0.888320    3.777695
     66          6           0       10.800913    1.643227    3.883861
     67          1           0       -2.500719    3.191648    0.573429
     68          1           0       -8.887416    3.667820    0.184512
     69          1           0       -9.383267   -2.545661   -0.676172
     70          1           0       -1.156771   -1.270235    1.029535
     71          1           0       -0.993140    1.201243   -0.511228
     72          1           0       -0.233582    2.230041    1.238377
     73          1           0       -0.001872    0.554873    1.899866
     74          1           0       -1.421145    1.629643    2.407346
     75          1           0       -0.894424   -1.052056   -1.974445
     76          1           0       -0.491840   -2.383095   -1.004011
     77          1           0        1.056292   -0.189398   -0.004460
     78          1           0        1.186915   -0.367488   -1.839348
     79          1           0       -4.054057    6.252874   -0.356989
     80          1           0       -2.771165    5.173225    0.349358
     81          1           0       -3.809377    6.264847    1.271084
     82          1           0       -6.050539    7.455814   -0.622011
     83          1           0       -5.725628    7.340113    1.183299
     84          1           0       -7.155650    8.086648    0.580046
     85          1           0      -10.705362    1.971712   -0.240132
     86          1           0      -10.779456   -0.687782    0.817042
     87          1           0       -9.911062    2.585311    2.283196
     88          1           0       -9.909687    0.739485    2.513497
     89          1           0      -11.352104    1.614266    2.021080
     90          1           0      -12.059036    0.448367   -1.026621
     91          1           0      -11.710149   -1.344126   -1.110237
     92          1           0       -9.672499    0.167191   -2.666307
     93          1           0      -11.356347    0.391974   -3.307604
     94          1           0      -10.676067   -1.204488   -3.132347
     95          1           0       -8.794148   -4.787831   -0.837430
     96          1           0       -7.731239   -5.450193    0.407104
     97          1           0       -7.442615   -5.781690   -1.275494
     98          1           0       -2.328722   -3.855192   -0.927804
     99          1           0       -1.150418   -4.756944    3.081692
    100          1           0        0.418686   -4.936666    2.311222
    101          1           0       -0.753540   -6.267638    2.306017
    102          1           0        4.652583   -2.612522   -1.901170
    103          1           0        4.567287   -2.752946   -0.142099
    104          1           0        6.426214   -1.445607   -1.801059
    105          1           0        5.860457    0.637494    1.962541
    106          1           0        5.946261   -1.162704    2.082643
    107          1           0        4.547479   -0.287697    1.298413
    108          1           0        8.481057   -0.810304    0.069904
    109          1           0        7.945290    0.387659    1.243373
    110          1           0        8.602280    1.869804   -0.183947
    111          1           0        6.994523    1.621688   -0.978011
    112          1           0        7.915411    1.007582   -2.869024
    113          1           0        9.131062   -0.044680   -2.266757
    114          1           0       10.065349    2.522449   -1.508974
    115          1           0        9.884882    3.743934   -3.610463
    116          1           0        8.355172    3.389585   -2.796483
    117          1           0        8.820806    2.581727   -4.297685
    118          1           0       11.153632    1.684676   -4.114378
    119          1           0       11.060480    0.340993   -3.094601
    120          1           0       12.162332    2.158699   -1.356529
    121          1           0       12.896394    2.601697   -2.880695
    122          1           0       14.217758    0.619108   -2.782207
    123          1           0       12.909249   -0.432249   -2.676269
    124          1           0       14.215424    0.878494   -0.492146
    125          1           0       14.089902   -1.861869   -0.364805
    126          1           0       15.464992   -0.707118   -0.226385
    127          1           0       14.892316   -1.425894   -1.797142
    128          1           0       12.450433   -1.122862    0.734631
    129          1           0       11.431282   -0.224004   -0.464873
    130          1           0       11.021066    1.021085    1.258795
    131          1           0       12.473564    1.833824    0.621523
    132          1           0       13.408471    1.629792    2.772471
    133          1           0       13.574284   -0.086416    2.578164
    134          1           0       12.471102    0.546111    4.630191
    135          1           0       11.256053   -1.415287    2.835798
    136          1           0       10.077110   -0.878090    4.142429
    137          1           0       11.562037   -1.505907    4.549250
    138          1           0        9.793484    1.241028    3.994945
    139          1           0       10.853222    2.212167    2.956228
    140          1           0       11.087934    2.290115    4.712983
 ---------------------------------------------------------------------

 SCF Done:  E(RCAM-B3LYP) =  -3007.15623995     A.U. after   17 cycles

 Excitation energies and oscillator strengths:

 Excited State   1:      Singlet-A      1.8344 eV  675.88 nm  f=0.3535  <S**2>=0.000
     245 -> 248        0.14852
     246 -> 247        0.69033
 This state for optimization and/or second-order correction.
 Total Energy, E(TD-HF/TD-DFT) =  -3007.08882695
 Copying the excited state density for this state as the 1-particle RhoCI density.

 Excited State   2:      Singlet-A      2.2859 eV  542.39 nm  f=0.0929  <S**2>=0.000
     245 -> 247        0.63462
     246 -> 248       -0.28918

 Excited State   3:      Singlet-A      3.4342 eV  361.03 nm  f=0.2466  <S**2>=0.000
     240 -> 247       -0.17737
     241 -> 247       -0.33693
     244 -> 247        0.39149
     245 -> 247       -0.16072
     246 -> 248       -0.38733

 Excited State   4:      Singlet-A      3.5242 eV  351.81 nm  f=0.2264  <S**2>=0.000
     244 -> 247        0.52173
     245 -> 247        0.16312
     246 -> 248        0.41806

 Excited State   5:      Singlet-A      3.6174 eV  342.74 nm  f=0.0205  <S**2>=0.000
     243 -> 247        0.51173
     243 -> 249       -0.25144
     243 -> 251       -0.29222
     244 -> 247        0.13288

 The electronic state is 1-A.
 Alpha  occ. eigenvalues --  -46.88756 -19.25135 -19.22460 -19.20640 -19.19857
 Alpha  occ. eigenvalues --  -19.19352 -19.16889 -14.42503 -14.42182 -14.39855
 Alpha  occ. eigenvalues --  -14.38112 -10.40236 -10.37982 -10.35691 -10.32965
 Alpha  occ. eigenvalues --  -10.31851 -10.31784 -10.31576 -10.31453 -10.31033
 Alpha  occ. eigenvalues --  -10.30805 -10.30564 -10.29959 -10.29816 -10.28893
 Alpha  occ. eigenvalues --  -10.28466 -10.28458 -10.28419 -10.27935 -10.27924
 Alpha  occ. eigenvalues --  -10.27881 -10.27622 -10.27424 -10.27204 -10.27104
 Alpha  occ. eigenvalues --  -10.27071 -10.27065 -10.27016 -10.26786 -10.26645
 Alpha  occ. eigenvalues --  -10.26617 -10.26587 -10.26531 -10.26405 -10.26087
 Alpha  occ. eigenvalues --  -10.25872 -10.25796 -10.25748 -10.25636 -10.25632
 Alpha  occ. eigenvalues --  -10.25592 -10.25498 -10.25466 -10.25359 -10.25170
 Alpha  occ. eigenvalues --  -10.24853 -10.24824 -10.24789 -10.24700 -10.24607
 Alpha  occ. eigenvalues --  -10.24525 -10.24355 -10.23951 -10.23944 -10.23793
 Alpha  occ. eigenvalues --  -10.22684  -3.17244  -1.92148  -1.91683  -1.91549
 Alpha  occ. eigenvalues --   -1.16605  -1.14936  -1.12866  -1.08087  -1.06697
 Alpha  occ. eigenvalues --   -1.06023  -1.04329  -1.03258  -1.02860  -1.01781
 Alpha  occ. eigenvalues --   -0.92554  -0.90738  -0.90117  -0.89237  -0.89187
 Alpha  occ. eigenvalues --   -0.88775  -0.88690  -0.88330  -0.87478  -0.87404
 Alpha  occ. eigenvalues --   -0.85594  -0.84988  -0.84246  -0.83404  -0.83002
 Alpha  occ. eigenvalues --   -0.82572  -0.82305  -0.81638  -0.80912  -0.80173
 Alpha  occ. eigenvalues --   -0.80000  -0.79114  -0.77926  -0.76748  -0.75546
 Alpha  occ. eigenvalues --   -0.75329  -0.75224  -0.74939  -0.74699  -0.74224
 Alpha  occ. eigenvalues --   -0.73345  -0.72337  -0.71719  -0.70599  -0.69857
 Alpha  occ. eigenvalues --   -0.69231  -0.68540  -0.67750  -0.67278  -0.65680
 Alpha  occ. eigenvalues --   -0.65244  -0.65063  -0.64571  -0.64201  -0.64168
 Alpha  occ. eigenvalues --   -0.63298  -0.62672  -0.61294  -0.60807  -0.60424
 Alpha  occ. eigenvalues --   -0.59733  -0.59351  -0.58955  -0.58480  -0.57692
 Alpha  occ. eigenvalues --   -0.57314  -0.56871  -0.56558  -0.56204  -0.55524
 Alpha  occ. eigenvalues --   -0.54813  -0.54760  -0.54694  -0.54380  -0.54046
 Alpha  occ. eigenvalues --   -0.53872  -0.53756  -0.53530  -0.53427  -0.52645
 Alpha  occ. eigenvalues --   -0.52536  -0.52332  -0.52061  -0.51998  -0.51788
 Alpha  occ. eigenvalues --   -0.51305  -0.51254  -0.51047  -0.50813  -0.50557
 Alpha  occ. eigenvalues --   -0.50508  -0.50327  -0.50077  -0.49861  -0.49719
 Alpha  occ. eigenvalues --   -0.49632  -0.49510  -0.49358  -0.49264  -0.48957
 Alpha  occ. eigenvalues --   -0.48635  -0.48364  -0.48217  -0.47988  -0.47788
 Alpha  occ. eigenvalues --   -0.47620  -0.47434  -0.47121  -0.47019  -0.46710
 Alpha  occ. eigenvalues --   -0.46099  -0.45979  -0.45891  -0.45821  -0.45543
 Alpha  occ. eigenvalues --   -0.45410  -0.45115  -0.45032  -0.44997  -0.44814
 Alpha  occ. eigenvalues --   -0.44671  -0.44568  -0.44183  -0.43899  -0.43716
 Alpha  occ. eigenvalues --   -0.43615  -0.43542  -0.43501  -0.43436  -0.43162
 Alpha  occ. eigenvalues --   -0.42796  -0.42656  -0.42634  -0.42313  -0.42228
 Alpha  occ. eigenvalues --   -0.41752  -0.41469  -0.41358  -0.41078  -0.40757
 Alpha  occ. eigenvalues --   -0.40680  -0.40562  -0.40455  -0.40353  -0.39893
 Alpha  occ. eigenvalues --   -0.39656  -0.39548  -0.39178  -0.39100  -0.38514
 Alpha  occ. eigenvalues --   -0.38273  -0.38232  -0.37730  -0.37402  -0.37340
 Alpha  occ. eigenvalues --   -0.36969  -0.36940  -0.36859  -0.36737  -0.36314
 Alpha  occ. eigenvalues --   -0.35553  -0.35096  -0.35093  -0.34523  -0.34299
 Alpha  occ. eigenvalues --   -0.34066  -0.33494  -0.33050  -0.32114  -0.31592
 Alpha  occ. eigenvalues --   -0.30592  -0.29496  -0.29365  -0.28460  -0.24304
 Alpha  occ. eigenvalues --   -0.21243
 Alpha virt. eigenvalues --   -0.08336  -0.01710   0.00105   0.02024   0.02594
 Alpha virt. eigenvalues --    0.04195   0.05276   0.05463   0.06571   0.07173
 Alpha virt. eigenvalues --    0.07381   0.07871   0.08514   0.08813   0.08875

 Mulliken charges:
               1
     1  Mg   0.816921
     2  C    0.052269
     3  C   -0.082290
     4  C   -0.081021
     5  C   -0.034037
     6  N   -0.296790
     7  C   -0.074207
     8  C   -0.006946
     9  C   -0.142672
    10  C    0.112253
    11  C    0.075630
    12  C    0.069764
    13  C    0.027587
    14  C    0.182998
    15  O   -0.215430
    16  O   -0.334395
    17  N   -0.382629
    18  C    0.135404
    19  C   -0.116359
    20  C    0.001598
    21  C    0.147383
    22  C    0.097678
    23  C   -0.023188
    24  O   -0.164597
    25  C    0.031898
    26  N   -0.317768
    27  C    0.030567
    28  C   -0.060630
    29  C   -0.009373
    30  C    0.014140
    31  C    0.080800
    32  C    0.009618
    33  C   -0.003572
    34  N   -0.324535
    35  C    0.087266
    36  C   -0.173855
    37  C    0.105202
    38  C    0.052717
    39  C    0.119421
    40  C   -0.026591
    41  O   -0.203694
    42  C    0.004496
    43  C    0.200365
    44  O   -0.159547
    45  O   -0.384833
    46  C    0.171855
    47  C    0.246037
    48  C   -0.134748
    49  C   -0.161179
    50  C    0.092582
    51  C    0.096907
    52  C    0.005273
    53  C    0.061262
    54  C   -0.155277
    55  C    0.025062
    56  C    0.084349
    57  C    0.059003
    58  C    0.002929
    59  C   -0.142066
    60  C    0.057886
    61  C    0.075527
    62  C   -0.030849
    63  C    0.041924
    64  C   -0.157423
    65  C    0.038110
    66  C    0.040167
    67  H   -0.046982
    68  H    0.003445
    69  H   -0.033890
    70  H    0.012907
    71  H    0.020795
    72  H    0.019668
    73  H    0.029419
    74  H    0.034178
    75  H   -0.000976
    76  H    0.030578
    77  H    0.029543
    78  H    0.048198
    79  H    0.023607
    80  H    0.026647
    81  H    0.029785
    82  H    0.047300
    83  H    0.026362
    84  H    0.020533
    85  H    0.008563
    86  H    0.001920
    87  H    0.043738
    88  H    0.031018
    89  H    0.013532
    90  H    0.013708
    91  H    0.017533
    92  H    0.035216
    93  H    0.018023
    94  H    0.016580
    95  H   -0.000671
    96  H    0.027739
    97  H    0.025463
    98  H    0.042026
    99  H    0.029850
   100  H    0.038273
   101  H    0.041094
   102  H    0.016912
   103  H    0.028859
   104  H   -0.004222
   105  H    0.017805
   106  H    0.038993
   107  H    0.018333
   108  H    0.020469
   109  H   -0.013089
   110  H    0.000308
   111  H    0.017103
   112  H   -0.002810
   113  H   -0.016762
   114  H   -0.001734
   115  H   -0.005935
   116  H   -0.005998
   117  H    0.009498
   118  H   -0.009253
   119  H   -0.018157
   120  H   -0.012042
   121  H    0.000824
   122  H   -0.009890
   123  H   -0.007120
   124  H   -0.012409
   125  H   -0.013764
   126  H    0.014599
   127  H    0.000911
   128  H    0.008857
   129  H   -0.007736
   130  H    0.007352
   131  H    0.020306
   132  H   -0.004482
   133  H    0.003121
   134  H   -0.002813
   135  H    0.011590
   136  H    0.008319
   137  H   -0.000951
   138  H    0.006510
   139  H    0.008049
   140  H    0.011385
 Sum of Mulliken charges =  -0.00000

 Dipole moment (field-independent basis, Debye):
    X=              2.6599    Y=              8.4346    Z=             -0.5498  Tot=              8.8611
 Quadrupole moment (field-independent basis, Debye-Ang):
   XX=           -366.2684   YY=           -433.5534   ZZ=           -400.7912
   XY=            -17.6787   XZ=             16.3908   YZ=             -3.8554

 Normal termination of Gaussian 16 at Fri Apr 29 00:16:02 2022.
