 Gaussian 16, Revision A.03,
 Gaussian 16:  ES64L-G16RevA.03 25-Dec-2016

 ---------------------------------
 #p PBE1PBE/Def2SVP td=(nstates=5)
 ---------------------------------

 ------------------------------------------------------
 step_1801_chromophore_19 TDDFT with PBE1PBE functional
 ------------------------------------------------------
 Symbolic Z-matrix:
 Charge =  0 Multiplicity = 1

                         Standard orientation:
 ---------------------------------------------------------------------
 Center     Atomic      Atomic             Coordinates (Angstroms)
 Number     Number       Type             X           Y           Z
 ---------------------------------------------------------------------
      1         12           0       -5.905425    0.440891   -0.396050
      2          6           0       -3.594602   -2.271225   -0.267699
      3          6           0       -3.312954    2.471336    0.452601
      4          6           0       -8.103109    2.909138    0.202231
      5          6           0       -8.514335   -1.887037   -0.610705
      6          7           0       -3.773005    0.104861    0.008782
      7          6           0       -2.949646   -1.052136   -0.160822
      8          6           0       -1.460960   -0.829240    0.080373
      9          6           0       -1.468256    0.771216    0.371251
     10          6           0       -2.970358    1.119278    0.372821
     11          6           0       -0.715731    1.334377    1.630755
     12          6           0       -0.447220   -1.293477   -1.010013
     13          6           0        1.026561   -0.846584   -0.873229
     14          6           0        2.259716   -1.866923   -0.677023
     15          8           0        2.228285   -3.072935   -0.490586
     16          8           0        3.439905   -1.174570   -0.887800
     17          7           0       -5.672884    2.463516    0.193475
     18          6           0       -4.515303    3.116448    0.257550
     19          6           0       -4.872270    4.543849    0.343803
     20          6           0       -6.275909    4.734608    0.317060
     21          6           0       -6.780886    3.322845    0.261364
     22          6           0       -3.786739    5.559463    0.440003
     23          6           0       -7.111761    5.927584    0.493096
     24          8           0       -8.283651    5.902174    0.714958
     25          6           0       -6.454621    7.278170    0.374705
     26          7           0       -7.999088    0.485960   -0.242297
     27          6           0       -8.676292    1.608634    0.035344
     28          6           0      -10.102890    1.342247    0.414231
     29          6           0      -10.320510   -0.150892   -0.013343
     30          6           0       -8.887583   -0.619746   -0.236020
     31          6           0      -10.263260    1.607173    1.957155
     32          6           0      -11.319921   -0.331309   -1.213689
     33          6           0      -10.694034   -0.209835   -2.685182
     34          7           0       -6.081216   -1.674547   -0.451636
     35          6           0       -7.201735   -2.456452   -0.554664
     36          6           0       -6.799468   -3.845092   -0.536541
     37          6           0       -5.422045   -3.824458   -0.494154
     38          6           0       -5.003747   -2.507449   -0.411676
     39          6           0       -7.755640   -4.998731   -0.584819
     40          6           0       -4.268923   -4.634521   -0.430342
     41          8           0       -4.170000   -5.875077   -0.523203
     42          6           0       -3.084296   -3.671746   -0.164181
     43          6           0       -2.626110   -4.114640    1.146963
     44          8           0       -3.235511   -4.176185    2.155434
     45          8           0       -1.269863   -4.534613    1.019317
     46          6           0       -0.638103   -5.187847    2.222026
     47          6           0        4.591327   -2.046775   -0.971275
     48          6           0        5.881824   -1.207102   -0.887650
     49          6           0        6.330647   -0.501204    0.182810
     50          6           0        5.621184   -0.311497    1.483858
     51          6           0        7.755093   -0.017569    0.249586
     52          6           0        7.957668    1.177360   -0.724607
     53          6           0        8.676989    0.931161   -2.092545
     54          6           0        9.834471    1.925598   -2.392024
     55          6           0        9.190927    2.948246   -3.340489
     56          6           0       11.118291    1.428855   -3.054899
     57          6           0       12.380626    1.795371   -2.360576
     58          6           0       13.289246    0.485938   -2.227045
     59          6           0       13.578684    0.053481   -0.811090
     60          6           0       14.609426   -1.021485   -0.825603
     61          6           0       12.332447   -0.211033    0.148310
     62          6           0       12.100841    0.946404    1.133693
     63          6           0       12.844558    0.723221    2.553694
     64          6           0       11.840350    0.494144    3.742690
     65          6           0       11.103703   -0.888320    3.777695
     66          6           0       10.800913    1.643227    3.883861
     67          1           0       -2.500719    3.191648    0.573429
     68          1           0       -8.887416    3.667820    0.184512
     69          1           0       -9.383267   -2.545661   -0.676172
     70          1           0       -1.156771   -1.270235    1.029535
     71          1           0       -0.993140    1.201243   -0.511228
     72          1           0       -0.233582    2.230041    1.238377
     73          1           0       -0.001872    0.554873    1.899866
     74          1           0       -1.421145    1.629643    2.407346
     75          1           0       -0.894424   -1.052056   -1.974445
     76          1           0       -0.491840   -2.383095   -1.004011
     77          1           0        1.056292   -0.189398   -0.004460
     78          1           0        1.186915   -0.367488   -1.839348
     79          1           0       -4.054057    6.252874   -0.356989
     80          1           0       -2.771165    5.173225    0.349358
     81          1           0       -3.809377    6.264847    1.271084
     82          1           0       -6.050539    7.455814   -0.622011
     83          1           0       -5.725628    7.340113    1.183299
     84          1           0       -7.155650    8.086648    0.580046
     85          1           0      -10.705362    1.971712   -0.240132
     86          1           0      -10.779456   -0.687782    0.817042
     87          1           0       -9.911062    2.585311    2.283196
     88          1           0       -9.909687    0.739485    2.513497
     89          1           0      -11.352104    1.614266    2.021080
     90          1           0      -12.059036    0.448367   -1.026621
     91          1           0      -11.710149   -1.344126   -1.110237
     92          1           0       -9.672499    0.167191   -2.666307
     93          1           0      -11.356347    0.391974   -3.307604
     94          1           0      -10.676067   -1.204488   -3.132347
     95          1           0       -8.794148   -4.787831   -0.837430
     96          1           0       -7.731239   -5.450193    0.407104
     97          1           0       -7.442615   -5.781690   -1.275494
     98          1           0       -2.328722   -3.855192   -0.927804
     99          1           0       -1.150418   -4.756944    3.081692
    100          1           0        0.418686   -4.936666    2.311222
    101          1           0       -0.753540   -6.267638    2.306017
    102          1           0        4.652583   -2.612522   -1.901170
    103          1           0        4.567287   -2.752946   -0.142099
    104          1           0        6.426214   -1.445607   -1.801059
    105          1           0        5.860457    0.637494    1.962541
    106          1           0        5.946261   -1.162704    2.082643
    107          1           0        4.547479   -0.287697    1.298413
    108          1           0        8.481057   -0.810304    0.069904
    109          1           0        7.945290    0.387659    1.243373
    110          1           0        8.602280    1.869804   -0.183947
    111          1           0        6.994523    1.621688   -0.978011
    112          1           0        7.915411    1.007582   -2.869024
    113          1           0        9.131062   -0.044680   -2.266757
    114          1           0       10.065349    2.522449   -1.508974
    115          1           0        9.884882    3.743934   -3.610463
    116          1           0        8.355172    3.389585   -2.796483
    117          1           0        8.820806    2.581727   -4.297685
    118          1           0       11.153632    1.684676   -4.114378
    119          1           0       11.060480    0.340993   -3.094601
    120          1           0       12.162332    2.158699   -1.356529
    121          1           0       12.896394    2.601697   -2.880695
    122          1           0       14.217758    0.619108   -2.782207
    123          1           0       12.909249   -0.432249   -2.676269
    124          1           0       14.215424    0.878494   -0.492146
    125          1           0       14.089902   -1.861869   -0.364805
    126          1           0       15.464992   -0.707118   -0.226385
    127          1           0       14.892316   -1.425894   -1.797142
    128          1           0       12.450433   -1.122862    0.734631
    129          1           0       11.431282   -0.224004   -0.464873
    130          1           0       11.021066    1.021085    1.258795
    131          1           0       12.473564    1.833824    0.621523
    132          1           0       13.408471    1.629792    2.772471
    133          1           0       13.574284   -0.086416    2.578164
    134          1           0       12.471102    0.546111    4.630191
    135          1           0       11.256053   -1.415287    2.835798
    136          1           0       10.077110   -0.878090    4.142429
    137          1           0       11.562037   -1.505907    4.549250
    138          1           0        9.793484    1.241028    3.994945
    139          1           0       10.853222    2.212167    2.956228
    140          1           0       11.087934    2.290115    4.712983
 ---------------------------------------------------------------------

 SCF Done:  E(RPBE1PBE) =  -3005.34236360     A.U. after   17 cycles

 Excitation energies and oscillator strengths:

 Excited State   1:      Singlet-A      1.8451 eV  671.97 nm  f=0.3443  <S**2>=0.000
     245 -> 248        0.15556
     246 -> 247        0.69511
 This state for optimization and/or second-order correction.
 Total Energy, E(TD-HF/TD-DFT) =  -3005.27455760
 Copying the excited state density for this state as the 1-particle RhoCI density.

 Excited State   2:      Singlet-A      2.2433 eV  552.68 nm  f=0.0905  <S**2>=0.000
     245 -> 247        0.64881
     246 -> 248       -0.26791

 Excited State   3:      Singlet-A      2.9417 eV  421.47 nm  f=0.0024  <S**2>=0.000
     243 -> 247       -0.35908
     243 -> 249        0.10636
     244 -> 247        0.57255

 Excited State   4:      Singlet-A      2.9944 eV  414.06 nm  f=0.0043  <S**2>=0.000
     243 -> 247        0.58310
     244 -> 247        0.37773

 Excited State   5:      Singlet-A      3.1949 eV  388.07 nm  f=0.0098  <S**2>=0.000
     240 -> 247        0.48635
     240 -> 249        0.13753
     241 -> 247        0.43051
     246 -> 248        0.15920

 The electronic state is 1-A.
 Alpha  occ. eigenvalues --  -46.92135 -19.25882 -19.23308 -19.20991 -19.19706
 Alpha  occ. eigenvalues --  -19.19603 -19.17647 -14.42049 -14.41619 -14.39302
 Alpha  occ. eigenvalues --  -14.38080 -10.37362 -10.35146 -10.32347 -10.30554
 Alpha  occ. eigenvalues --  -10.29139 -10.28912 -10.28899 -10.28812 -10.28690
 Alpha  occ. eigenvalues --  -10.28032 -10.27940 -10.27752 -10.27305 -10.26439
 Alpha  occ. eigenvalues --  -10.26345 -10.26344 -10.26137 -10.25577 -10.25567
 Alpha  occ. eigenvalues --  -10.25533 -10.25383 -10.25326 -10.24940 -10.24881
 Alpha  occ. eigenvalues --  -10.24808 -10.24800 -10.24492 -10.24394 -10.24310
 Alpha  occ. eigenvalues --  -10.24195 -10.24185 -10.24069 -10.23910 -10.23778
 Alpha  occ. eigenvalues --  -10.23524 -10.23331 -10.23283 -10.23203 -10.23184
 Alpha  occ. eigenvalues --  -10.23122 -10.23111 -10.23046 -10.22927 -10.22889
 Alpha  occ. eigenvalues --  -10.22487 -10.22424 -10.22404 -10.22389 -10.22201
 Alpha  occ. eigenvalues --  -10.22101 -10.21762 -10.21496 -10.21350 -10.21195
 Alpha  occ. eigenvalues --  -10.20959  -3.14204  -1.87048  -1.86561  -1.86432
 Alpha  occ. eigenvalues --   -1.11481  -1.09833  -1.07186  -1.03027  -1.01869
 Alpha  occ. eigenvalues --   -1.01029  -0.98639  -0.97814  -0.97574  -0.96659
 Alpha  occ. eigenvalues --   -0.87231  -0.84863  -0.84249  -0.83447  -0.83269
 Alpha  occ. eigenvalues --   -0.82830  -0.82653  -0.82535  -0.81784  -0.81501
 Alpha  occ. eigenvalues --   -0.80090  -0.79433  -0.78483  -0.77658  -0.77398
 Alpha  occ. eigenvalues --   -0.76527  -0.76402  -0.75819  -0.75199  -0.74463
 Alpha  occ. eigenvalues --   -0.74360  -0.73085  -0.72328  -0.71076  -0.69717
 Alpha  occ. eigenvalues --   -0.69631  -0.69474  -0.69227  -0.68833  -0.68389
 Alpha  occ. eigenvalues --   -0.67720  -0.66902  -0.66079  -0.64817  -0.64294
 Alpha  occ. eigenvalues --   -0.63435  -0.62751  -0.62376  -0.61465  -0.60016
 Alpha  occ. eigenvalues --   -0.59742  -0.59551  -0.59026  -0.58800  -0.58320
 Alpha  occ. eigenvalues --   -0.57850  -0.56861  -0.55549  -0.55247  -0.54889
 Alpha  occ. eigenvalues --   -0.54205  -0.53840  -0.53653  -0.53092  -0.52233
 Alpha  occ. eigenvalues --   -0.51982  -0.51285  -0.51036  -0.50708  -0.50144
 Alpha  occ. eigenvalues --   -0.49303  -0.49190  -0.49136  -0.48737  -0.48537
 Alpha  occ. eigenvalues --   -0.48257  -0.48109  -0.48098  -0.47793  -0.47303
 Alpha  occ. eigenvalues --   -0.47086  -0.46974  -0.46652  -0.46576  -0.46320
 Alpha  occ. eigenvalues --   -0.45963  -0.45780  -0.45488  -0.45338  -0.45040
 Alpha  occ. eigenvalues --   -0.44864  -0.44717  -0.44625  -0.44441  -0.44350
 Alpha  occ. eigenvalues --   -0.44062  -0.43984  -0.43940  -0.43782  -0.43607
 Alpha  occ. eigenvalues --   -0.43299  -0.43164  -0.42846  -0.42722  -0.42444
 Alpha  occ. eigenvalues --   -0.42350  -0.42048  -0.41746  -0.41536  -0.41303
 Alpha  occ. eigenvalues --   -0.40873  -0.40686  -0.40566  -0.40541  -0.40368
 Alpha  occ. eigenvalues --   -0.40208  -0.39869  -0.39736  -0.39616  -0.39583
 Alpha  occ. eigenvalues --   -0.39343  -0.39212  -0.38852  -0.38696  -0.38605
 Alpha  occ. eigenvalues --   -0.38464  -0.38333  -0.38186  -0.38135  -0.37868
 Alpha  occ. eigenvalues --   -0.37580  -0.37545  -0.37363  -0.37341  -0.37028
 Alpha  occ. eigenvalues --   -0.36689  -0.36494  -0.36074  -0.36000  -0.35768
 Alpha  occ. eigenvalues --   -0.35642  -0.35454  -0.35230  -0.35139  -0.34886
 Alpha  occ. eigenvalues --   -0.34569  -0.34434  -0.34055  -0.34031  -0.33385
 Alpha  occ. eigenvalues --   -0.33237  -0.33020  -0.32552  -0.32434  -0.32183
 Alpha  occ. eigenvalues --   -0.31974  -0.31937  -0.31767  -0.31729  -0.31173
 Alpha  occ. eigenvalues --   -0.30488  -0.30131  -0.29992  -0.29568  -0.29427
 Alpha  occ. eigenvalues --   -0.29181  -0.28602  -0.28392  -0.26935  -0.26500
 Alpha  occ. eigenvalues --   -0.26034  -0.24811  -0.24698  -0.24506  -0.21006
 Alpha  occ. eigenvalues --   -0.18721
 Alpha virt. eigenvalues --   -0.10989  -0.05304  -0.03948  -0.01928  -0.00860
 Alpha virt. eigenvalues --   -0.00302   0.00521   0.01148   0.02222   0.03030
 Alpha virt. eigenvalues --    0.04121   0.04369   0.04561   0.04985   0.05563

 Mulliken charges:
               1
     1  Mg   0.961130
     2  C    0.035803
     3  C   -0.078396
     4  C   -0.072584
     5  C   -0.033360
     6  N   -0.400730
     7  C   -0.005269
     8  C   -0.072534
     9  C   -0.209451
    10  C    0.146456
    11  C    0.011781
    12  C    0.021817
    13  C   -0.053014
    14  C    0.241659
    15  O   -0.247562
    16  O   -0.361396
    17  N   -0.491256
    18  C    0.167917
    19  C   -0.156700
    20  C   -0.047144
    21  C    0.173850
    22  C    0.042980
    23  C    0.028122
    24  O   -0.206537
    25  C   -0.043589
    26  N   -0.419704
    27  C    0.070947
    28  C   -0.145161
    29  C   -0.077740
    30  C    0.053285
    31  C    0.022870
    32  C   -0.052911
    33  C   -0.077028
    34  N   -0.450407
    35  C    0.118725
    36  C   -0.193935
    37  C    0.048341
    38  C    0.116275
    39  C    0.070634
    40  C    0.069068
    41  O   -0.246335
    42  C   -0.111645
    43  C    0.297352
    44  O   -0.196351
    45  O   -0.415079
    46  C    0.117498
    47  C    0.203584
    48  C   -0.139123
    49  C   -0.207618
    50  C    0.022974
    51  C    0.033653
    52  C   -0.057024
    53  C    0.010051
    54  C   -0.243016
    55  C   -0.037958
    56  C    0.034158
    57  C   -0.009355
    58  C   -0.051916
    59  C   -0.225633
    60  C    0.000121
    61  C    0.013555
    62  C   -0.102941
    63  C   -0.011719
    64  C   -0.246436
    65  C   -0.024372
    66  C   -0.022529
    67  H   -0.012142
    68  H    0.033777
    69  H   -0.000903
    70  H    0.053226
    71  H    0.058488
    72  H    0.046707
    73  H    0.054467
    74  H    0.062558
    75  H    0.031893
    76  H    0.065645
    77  H    0.066189
    78  H    0.079003
    79  H    0.050670
    80  H    0.050420
    81  H    0.054424
    82  H    0.072159
    83  H    0.053545
    84  H    0.047170
    85  H    0.044536
    86  H    0.039719
    87  H    0.071639
    88  H    0.056908
    89  H    0.041969
    90  H    0.047238
    91  H    0.048887
    92  H    0.065666
    93  H    0.046790
    94  H    0.043619
    95  H    0.028224
    96  H    0.058543
    97  H    0.054976
    98  H    0.079880
    99  H    0.051365
   100  H    0.060177
   101  H    0.062999
   102  H    0.043349
   103  H    0.056129
   104  H    0.026388
   105  H    0.045335
   106  H    0.067441
   107  H    0.047985
   108  H    0.052077
   109  H    0.020214
   110  H    0.033020
   111  H    0.049265
   112  H    0.029727
   113  H    0.013914
   114  H    0.034614
   115  H    0.023750
   116  H    0.024707
   117  H    0.037530
   118  H    0.023233
   119  H    0.013814
   120  H    0.025233
   121  H    0.033403
   122  H    0.023402
   123  H    0.025510
   124  H    0.027831
   125  H    0.014835
   126  H    0.041552
   127  H    0.027569
   128  H    0.039822
   129  H    0.032050
   130  H    0.043563
   131  H    0.051952
   132  H    0.028981
   133  H    0.035071
   134  H    0.035786
   135  H    0.040994
   136  H    0.034285
   137  H    0.027106
   138  H    0.033547
   139  H    0.036023
   140  H    0.039417
 Sum of Mulliken charges =  -0.00000

 Dipole moment (field-independent basis, Debye):
    X=              2.6712    Y=              7.1782    Z=             -0.6793  Tot=              7.6892
 Quadrupole moment (field-independent basis, Debye-Ang):
   XX=           -359.0764   YY=           -431.7917   ZZ=           -398.2365
   XY=             -9.6928   XZ=             17.2978   YZ=             -3.8213

 Normal termination of Gaussian 16 at Fri Apr 29 00:35:55 2022.
