 Gaussian 16, Revision A.03,
 Gaussian 16:  ES64L-G16RevA.03 25-Dec-2016

 --------------------------------
 #p wB97XD/Def2SVP td=(nstates=5)
 --------------------------------

 -----------------------------------------------------
 step_1801_chromophore_19 TDDFT with wB97XD functional
 -----------------------------------------------------
 Symbolic Z-matrix:
 Charge =  0 Multiplicity = 1

                         Standard orientation:
 ---------------------------------------------------------------------
 Center     Atomic      Atomic             Coordinates (Angstroms)
 Number     Number       Type             X           Y           Z
 ---------------------------------------------------------------------
      1         12           0       -5.905425    0.440891   -0.396050
      2          6           0       -3.594602   -2.271225   -0.267699
      3          6           0       -3.312954    2.471336    0.452601
      4          6           0       -8.103109    2.909138    0.202231
      5          6           0       -8.514335   -1.887037   -0.610705
      6          7           0       -3.773005    0.104861    0.008782
      7          6           0       -2.949646   -1.052136   -0.160822
      8          6           0       -1.460960   -0.829240    0.080373
      9          6           0       -1.468256    0.771216    0.371251
     10          6           0       -2.970358    1.119278    0.372821
     11          6           0       -0.715731    1.334377    1.630755
     12          6           0       -0.447220   -1.293477   -1.010013
     13          6           0        1.026561   -0.846584   -0.873229
     14          6           0        2.259716   -1.866923   -0.677023
     15          8           0        2.228285   -3.072935   -0.490586
     16          8           0        3.439905   -1.174570   -0.887800
     17          7           0       -5.672884    2.463516    0.193475
     18          6           0       -4.515303    3.116448    0.257550
     19          6           0       -4.872270    4.543849    0.343803
     20          6           0       -6.275909    4.734608    0.317060
     21          6           0       -6.780886    3.322845    0.261364
     22          6           0       -3.786739    5.559463    0.440003
     23          6           0       -7.111761    5.927584    0.493096
     24          8           0       -8.283651    5.902174    0.714958
     25          6           0       -6.454621    7.278170    0.374705
     26          7           0       -7.999088    0.485960   -0.242297
     27          6           0       -8.676292    1.608634    0.035344
     28          6           0      -10.102890    1.342247    0.414231
     29          6           0      -10.320510   -0.150892   -0.013343
     30          6           0       -8.887583   -0.619746   -0.236020
     31          6           0      -10.263260    1.607173    1.957155
     32          6           0      -11.319921   -0.331309   -1.213689
     33          6           0      -10.694034   -0.209835   -2.685182
     34          7           0       -6.081216   -1.674547   -0.451636
     35          6           0       -7.201735   -2.456452   -0.554664
     36          6           0       -6.799468   -3.845092   -0.536541
     37          6           0       -5.422045   -3.824458   -0.494154
     38          6           0       -5.003747   -2.507449   -0.411676
     39          6           0       -7.755640   -4.998731   -0.584819
     40          6           0       -4.268923   -4.634521   -0.430342
     41          8           0       -4.170000   -5.875077   -0.523203
     42          6           0       -3.084296   -3.671746   -0.164181
     43          6           0       -2.626110   -4.114640    1.146963
     44          8           0       -3.235511   -4.176185    2.155434
     45          8           0       -1.269863   -4.534613    1.019317
     46          6           0       -0.638103   -5.187847    2.222026
     47          6           0        4.591327   -2.046775   -0.971275
     48          6           0        5.881824   -1.207102   -0.887650
     49          6           0        6.330647   -0.501204    0.182810
     50          6           0        5.621184   -0.311497    1.483858
     51          6           0        7.755093   -0.017569    0.249586
     52          6           0        7.957668    1.177360   -0.724607
     53          6           0        8.676989    0.931161   -2.092545
     54          6           0        9.834471    1.925598   -2.392024
     55          6           0        9.190927    2.948246   -3.340489
     56          6           0       11.118291    1.428855   -3.054899
     57          6           0       12.380626    1.795371   -2.360576
     58          6           0       13.289246    0.485938   -2.227045
     59          6           0       13.578684    0.053481   -0.811090
     60          6           0       14.609426   -1.021485   -0.825603
     61          6           0       12.332447   -0.211033    0.148310
     62          6           0       12.100841    0.946404    1.133693
     63          6           0       12.844558    0.723221    2.553694
     64          6           0       11.840350    0.494144    3.742690
     65          6           0       11.103703   -0.888320    3.777695
     66          6           0       10.800913    1.643227    3.883861
     67          1           0       -2.500719    3.191648    0.573429
     68          1           0       -8.887416    3.667820    0.184512
     69          1           0       -9.383267   -2.545661   -0.676172
     70          1           0       -1.156771   -1.270235    1.029535
     71          1           0       -0.993140    1.201243   -0.511228
     72          1           0       -0.233582    2.230041    1.238377
     73          1           0       -0.001872    0.554873    1.899866
     74          1           0       -1.421145    1.629643    2.407346
     75          1           0       -0.894424   -1.052056   -1.974445
     76          1           0       -0.491840   -2.383095   -1.004011
     77          1           0        1.056292   -0.189398   -0.004460
     78          1           0        1.186915   -0.367488   -1.839348
     79          1           0       -4.054057    6.252874   -0.356989
     80          1           0       -2.771165    5.173225    0.349358
     81          1           0       -3.809377    6.264847    1.271084
     82          1           0       -6.050539    7.455814   -0.622011
     83          1           0       -5.725628    7.340113    1.183299
     84          1           0       -7.155650    8.086648    0.580046
     85          1           0      -10.705362    1.971712   -0.240132
     86          1           0      -10.779456   -0.687782    0.817042
     87          1           0       -9.911062    2.585311    2.283196
     88          1           0       -9.909687    0.739485    2.513497
     89          1           0      -11.352104    1.614266    2.021080
     90          1           0      -12.059036    0.448367   -1.026621
     91          1           0      -11.710149   -1.344126   -1.110237
     92          1           0       -9.672499    0.167191   -2.666307
     93          1           0      -11.356347    0.391974   -3.307604
     94          1           0      -10.676067   -1.204488   -3.132347
     95          1           0       -8.794148   -4.787831   -0.837430
     96          1           0       -7.731239   -5.450193    0.407104
     97          1           0       -7.442615   -5.781690   -1.275494
     98          1           0       -2.328722   -3.855192   -0.927804
     99          1           0       -1.150418   -4.756944    3.081692
    100          1           0        0.418686   -4.936666    2.311222
    101          1           0       -0.753540   -6.267638    2.306017
    102          1           0        4.652583   -2.612522   -1.901170
    103          1           0        4.567287   -2.752946   -0.142099
    104          1           0        6.426214   -1.445607   -1.801059
    105          1           0        5.860457    0.637494    1.962541
    106          1           0        5.946261   -1.162704    2.082643
    107          1           0        4.547479   -0.287697    1.298413
    108          1           0        8.481057   -0.810304    0.069904
    109          1           0        7.945290    0.387659    1.243373
    110          1           0        8.602280    1.869804   -0.183947
    111          1           0        6.994523    1.621688   -0.978011
    112          1           0        7.915411    1.007582   -2.869024
    113          1           0        9.131062   -0.044680   -2.266757
    114          1           0       10.065349    2.522449   -1.508974
    115          1           0        9.884882    3.743934   -3.610463
    116          1           0        8.355172    3.389585   -2.796483
    117          1           0        8.820806    2.581727   -4.297685
    118          1           0       11.153632    1.684676   -4.114378
    119          1           0       11.060480    0.340993   -3.094601
    120          1           0       12.162332    2.158699   -1.356529
    121          1           0       12.896394    2.601697   -2.880695
    122          1           0       14.217758    0.619108   -2.782207
    123          1           0       12.909249   -0.432249   -2.676269
    124          1           0       14.215424    0.878494   -0.492146
    125          1           0       14.089902   -1.861869   -0.364805
    126          1           0       15.464992   -0.707118   -0.226385
    127          1           0       14.892316   -1.425894   -1.797142
    128          1           0       12.450433   -1.122862    0.734631
    129          1           0       11.431282   -0.224004   -0.464873
    130          1           0       11.021066    1.021085    1.258795
    131          1           0       12.473564    1.833824    0.621523
    132          1           0       13.408471    1.629792    2.772471
    133          1           0       13.574284   -0.086416    2.578164
    134          1           0       12.471102    0.546111    4.630191
    135          1           0       11.256053   -1.415287    2.835798
    136          1           0       10.077110   -0.878090    4.142429
    137          1           0       11.562037   -1.505907    4.549250
    138          1           0        9.793484    1.241028    3.994945
    139          1           0       10.853222    2.212167    2.956228
    140          1           0       11.087934    2.290115    4.712983
 ---------------------------------------------------------------------

 SCF Done:  E(RwB97XD) =  -3007.85832330     A.U. after   17 cycles

 Excitation energies and oscillator strengths:

 Excited State   1:      Singlet-A      1.8469 eV  671.30 nm  f=0.3558  <S**2>=0.000
     245 -> 248        0.14737
     246 -> 247        0.68797
 This state for optimization and/or second-order correction.
 Total Energy, E(TD-HF/TD-DFT) =  -3007.79045026
 Copying the excited state density for this state as the 1-particle RhoCI density.

 Excited State   2:      Singlet-A      2.2480 eV  551.53 nm  f=0.0919  <S**2>=0.000
     245 -> 247        0.63195
     246 -> 248       -0.28783

 Excited State   3:      Singlet-A      3.4494 eV  359.43 nm  f=0.3086  <S**2>=0.000
     240 -> 247        0.22753
     241 -> 247        0.36764
     244 -> 247       -0.21785
     245 -> 247        0.17062
     246 -> 248        0.45035

 Excited State   4:      Singlet-A      3.6010 eV  344.30 nm  f=0.1801  <S**2>=0.000
     241 -> 247       -0.12020
     243 -> 247       -0.11808
     244 -> 247        0.55125
     244 -> 249       -0.10104
     245 -> 247        0.14927
     246 -> 248        0.34865

 Excited State   5:      Singlet-A      3.6762 eV  337.26 nm  f=0.0385  <S**2>=0.000
     239 -> 247        0.50161
     239 -> 248       -0.13598
     239 -> 249        0.29541
     239 -> 250       -0.12188
     243 -> 247        0.15940
     243 -> 250       -0.11926
     244 -> 247        0.15479

 The electronic state is 1-A.
 Alpha  occ. eigenvalues --  -46.95106 -19.30387 -19.27642 -19.25573 -19.24943
 Alpha  occ. eigenvalues --  -19.24186 -19.21847 -14.47113 -14.46789 -14.44500
 Alpha  occ. eigenvalues --  -14.42630 -10.44069 -10.41743 -10.39702 -10.36881
 Alpha  occ. eigenvalues --  -10.35992 -10.35960 -10.35682 -10.35343 -10.35193
 Alpha  occ. eigenvalues --  -10.35098 -10.34546 -10.33770 -10.33653 -10.32831
 Alpha  occ. eigenvalues --  -10.32679 -10.32511 -10.32496 -10.31972 -10.31942
 Alpha  occ. eigenvalues --  -10.31793 -10.31655 -10.31474 -10.31199 -10.31067
 Alpha  occ. eigenvalues --  -10.31008 -10.30941 -10.30927 -10.30856 -10.30762
 Alpha  occ. eigenvalues --  -10.30575 -10.30524 -10.30437 -10.30370 -10.30042
 Alpha  occ. eigenvalues --  -10.29736 -10.29709 -10.29685 -10.29555 -10.29533
 Alpha  occ. eigenvalues --  -10.29458 -10.29453 -10.29410 -10.29293 -10.29164
 Alpha  occ. eigenvalues --  -10.28777 -10.28769 -10.28750 -10.28549 -10.28520
 Alpha  occ. eigenvalues --  -10.28284 -10.28180 -10.27867 -10.27800 -10.27604
 Alpha  occ. eigenvalues --  -10.26563  -3.21036  -1.94628  -1.94141  -1.94012
 Alpha  occ. eigenvalues --   -1.18791  -1.16992  -1.15155  -1.10297  -1.08814
 Alpha  occ. eigenvalues --   -1.08170  -1.06430  -1.05271  -1.04861  -1.03753
 Alpha  occ. eigenvalues --   -0.94468  -0.92518  -0.91902  -0.91190  -0.91098
 Alpha  occ. eigenvalues --   -0.90788  -0.90477  -0.90215  -0.89406  -0.89167
 Alpha  occ. eigenvalues --   -0.87506  -0.86845  -0.86094  -0.85306  -0.84893
 Alpha  occ. eigenvalues --   -0.84521  -0.84165  -0.83493  -0.82821  -0.82026
 Alpha  occ. eigenvalues --   -0.81919  -0.81129  -0.79807  -0.78628  -0.77332
 Alpha  occ. eigenvalues --   -0.77214  -0.77101  -0.76880  -0.76516  -0.76053
 Alpha  occ. eigenvalues --   -0.75272  -0.74258  -0.73703  -0.72564  -0.71774
 Alpha  occ. eigenvalues --   -0.71265  -0.70408  -0.69729  -0.69126  -0.67600
 Alpha  occ. eigenvalues --   -0.67189  -0.67024  -0.66516  -0.66156  -0.66000
 Alpha  occ. eigenvalues --   -0.65278  -0.64499  -0.63155  -0.62879  -0.62395
 Alpha  occ. eigenvalues --   -0.61664  -0.61294  -0.60921  -0.60459  -0.59606
 Alpha  occ. eigenvalues --   -0.59275  -0.58779  -0.58492  -0.58180  -0.57471
 Alpha  occ. eigenvalues --   -0.56736  -0.56661  -0.56625  -0.56339  -0.55987
 Alpha  occ. eigenvalues --   -0.55822  -0.55610  -0.55450  -0.55362  -0.54516
 Alpha  occ. eigenvalues --   -0.54422  -0.54230  -0.53945  -0.53906  -0.53689
 Alpha  occ. eigenvalues --   -0.53239  -0.53139  -0.52941  -0.52710  -0.52596
 Alpha  occ. eigenvalues --   -0.52404  -0.52220  -0.51992  -0.51787  -0.51643
 Alpha  occ. eigenvalues --   -0.51483  -0.51376  -0.51237  -0.51176  -0.50861
 Alpha  occ. eigenvalues --   -0.50547  -0.50219  -0.50088  -0.49899  -0.49707
 Alpha  occ. eigenvalues --   -0.49606  -0.49372  -0.49052  -0.48965  -0.48564
 Alpha  occ. eigenvalues --   -0.48021  -0.47912  -0.47763  -0.47715  -0.47419
 Alpha  occ. eigenvalues --   -0.47292  -0.47033  -0.46966  -0.46863  -0.46702
 Alpha  occ. eigenvalues --   -0.46548  -0.46486  -0.46172  -0.45827  -0.45636
 Alpha  occ. eigenvalues --   -0.45479  -0.45459  -0.45395  -0.45303  -0.45082
 Alpha  occ. eigenvalues --   -0.44686  -0.44597  -0.44496  -0.44193  -0.44081
 Alpha  occ. eigenvalues --   -0.43643  -0.43350  -0.43217  -0.43021  -0.42681
 Alpha  occ. eigenvalues --   -0.42571  -0.42522  -0.42321  -0.42209  -0.41792
 Alpha  occ. eigenvalues --   -0.41503  -0.41445  -0.41034  -0.40990  -0.40382
 Alpha  occ. eigenvalues --   -0.40200  -0.40075  -0.39577  -0.39398  -0.39181
 Alpha  occ. eigenvalues --   -0.38983  -0.38889  -0.38821  -0.38710  -0.38155
 Alpha  occ. eigenvalues --   -0.37408  -0.37037  -0.36935  -0.36445  -0.36266
 Alpha  occ. eigenvalues --   -0.35998  -0.35336  -0.35218  -0.34131  -0.33838
 Alpha  occ. eigenvalues --   -0.32783  -0.31526  -0.31245  -0.30519  -0.26290
 Alpha  occ. eigenvalues --   -0.23102
 Alpha virt. eigenvalues --   -0.06603   0.00253   0.02178   0.04716   0.05089
 Alpha virt. eigenvalues --    0.06446   0.07491   0.07772   0.09224   0.09535
 Alpha virt. eigenvalues --    0.10795   0.10813   0.11412   0.11629   0.12178

 Mulliken charges:
               1
     1  Mg   0.950724
     2  C    0.039743
     3  C   -0.097267
     4  C   -0.095712
     5  C   -0.041557
     6  N   -0.368169
     7  C   -0.040983
     8  C   -0.047583
     9  C   -0.189243
    10  C    0.141310
    11  C    0.023573
    12  C    0.032866
    13  C   -0.031546
    14  C    0.234294
    15  O   -0.245574
    16  O   -0.361773
    17  N   -0.462929
    18  C    0.162821
    19  C   -0.137350
    20  C   -0.040886
    21  C    0.173882
    22  C    0.050845
    23  C    0.027458
    24  O   -0.197915
    25  C   -0.032079
    26  N   -0.388107
    27  C    0.062388
    28  C   -0.119406
    29  C   -0.054782
    30  C    0.035026
    31  C    0.031827
    32  C   -0.038705
    33  C   -0.057129
    34  N   -0.410855
    35  C    0.101441
    36  C   -0.192815
    37  C    0.055396
    38  C    0.089098
    39  C    0.079928
    40  C    0.051672
    41  O   -0.240804
    42  C   -0.070820
    43  C    0.271205
    44  O   -0.191785
    45  O   -0.415007
    46  C    0.134475
    47  C    0.217994
    48  C   -0.153972
    49  C   -0.188944
    50  C    0.040095
    51  C    0.048417
    52  C   -0.037361
    53  C    0.023870
    54  C   -0.211028
    55  C   -0.021782
    56  C    0.048011
    57  C    0.012751
    58  C   -0.035035
    59  C   -0.194712
    60  C    0.010013
    61  C    0.039539
    62  C   -0.079588
    63  C    0.002034
    64  C   -0.219036
    65  C   -0.010703
    66  C   -0.008470
    67  H   -0.024133
    68  H    0.030331
    69  H   -0.009018
    70  H    0.040810
    71  H    0.047009
    72  H    0.041235
    73  H    0.050339
    74  H    0.057195
    75  H    0.024951
    76  H    0.055100
    77  H    0.052929
    78  H    0.073818
    79  H    0.045335
    80  H    0.051286
    81  H    0.053144
    82  H    0.069076
    83  H    0.046851
    84  H    0.047967
    85  H    0.035078
    86  H    0.030241
    87  H    0.065964
    88  H    0.053178
    89  H    0.036768
    90  H    0.037481
    91  H    0.042285
    92  H    0.053924
    93  H    0.041000
    94  H    0.038542
    95  H    0.019994
    96  H    0.050382
    97  H    0.048126
    98  H    0.072781
    99  H    0.045879
   100  H    0.056407
   101  H    0.058767
   102  H    0.039527
   103  H    0.050157
   104  H    0.022847
   105  H    0.039598
   106  H    0.061594
   107  H    0.040552
   108  H    0.044948
   109  H    0.012128
   110  H    0.022732
   111  H    0.040126
   112  H    0.020376
   113  H    0.003886
   114  H    0.019488
   115  H    0.016797
   116  H    0.016542
   117  H    0.030553
   118  H    0.016311
   119  H    0.000477
   120  H    0.005919
   121  H    0.027909
   122  H    0.015765
   123  H    0.013620
   124  H    0.012659
   125  H    0.007255
   126  H    0.037131
   127  H    0.022512
   128  H    0.027064
   129  H    0.014181
   130  H    0.029027
   131  H    0.041793
   132  H    0.021186
   133  H    0.026531
   134  H    0.025837
   135  H    0.031951
   136  H    0.028513
   137  H    0.021416
   138  H    0.026821
   139  H    0.027231
   140  H    0.034737
 Sum of Mulliken charges =  -0.00000

 Dipole moment (field-independent basis, Debye):
    X=              2.7129    Y=              8.8265    Z=             -0.5439  Tot=              9.2500
 Quadrupole moment (field-independent basis, Debye-Ang):
   XX=           -360.9580   YY=           -429.2893   ZZ=           -397.7106
   XY=            -19.4745   XZ=             16.3782   YZ=             -3.8438

 Normal termination of Gaussian 16 at Fri Apr 29 01:07:47 2022.
