 Gaussian 16, Revision A.03,
 Gaussian 16:  ES64L-G16RevA.03 25-Dec-2016

 --------------------
 #p ZINDO=(nstates=5)
 --------------------

 ------------------------------
 step_1801_chromophore_19 ZINDO
 ------------------------------
 Symbolic Z-matrix:
 Charge =  0 Multiplicity = 1

                         Standard orientation:
 ---------------------------------------------------------------------
 Center     Atomic      Atomic             Coordinates (Angstroms)
 Number     Number       Type             X           Y           Z
 ---------------------------------------------------------------------
      1         12           0       -5.905425    0.440891   -0.396050
      2          6           0       -3.594602   -2.271225   -0.267699
      3          6           0       -3.312954    2.471336    0.452601
      4          6           0       -8.103109    2.909138    0.202231
      5          6           0       -8.514335   -1.887037   -0.610705
      6          7           0       -3.773005    0.104861    0.008782
      7          6           0       -2.949646   -1.052136   -0.160822
      8          6           0       -1.460960   -0.829240    0.080373
      9          6           0       -1.468256    0.771216    0.371251
     10          6           0       -2.970358    1.119278    0.372821
     11          6           0       -0.715731    1.334377    1.630755
     12          6           0       -0.447220   -1.293477   -1.010013
     13          6           0        1.026561   -0.846584   -0.873229
     14          6           0        2.259716   -1.866923   -0.677023
     15          8           0        2.228285   -3.072935   -0.490586
     16          8           0        3.439905   -1.174570   -0.887800
     17          7           0       -5.672884    2.463516    0.193475
     18          6           0       -4.515303    3.116448    0.257550
     19          6           0       -4.872270    4.543849    0.343803
     20          6           0       -6.275909    4.734608    0.317060
     21          6           0       -6.780886    3.322845    0.261364
     22          6           0       -3.786739    5.559463    0.440003
     23          6           0       -7.111761    5.927584    0.493096
     24          8           0       -8.283651    5.902174    0.714958
     25          6           0       -6.454621    7.278170    0.374705
     26          7           0       -7.999088    0.485960   -0.242297
     27          6           0       -8.676292    1.608634    0.035344
     28          6           0      -10.102890    1.342247    0.414231
     29          6           0      -10.320510   -0.150892   -0.013343
     30          6           0       -8.887583   -0.619746   -0.236020
     31          6           0      -10.263260    1.607173    1.957155
     32          6           0      -11.319921   -0.331309   -1.213689
     33          6           0      -10.694034   -0.209835   -2.685182
     34          7           0       -6.081216   -1.674547   -0.451636
     35          6           0       -7.201735   -2.456452   -0.554664
     36          6           0       -6.799468   -3.845092   -0.536541
     37          6           0       -5.422045   -3.824458   -0.494154
     38          6           0       -5.003747   -2.507449   -0.411676
     39          6           0       -7.755640   -4.998731   -0.584819
     40          6           0       -4.268923   -4.634521   -0.430342
     41          8           0       -4.170000   -5.875077   -0.523203
     42          6           0       -3.084296   -3.671746   -0.164181
     43          6           0       -2.626110   -4.114640    1.146963
     44          8           0       -3.235511   -4.176185    2.155434
     45          8           0       -1.269863   -4.534613    1.019317
     46          6           0       -0.638103   -5.187847    2.222026
     47          6           0        4.591327   -2.046775   -0.971275
     48          6           0        5.881824   -1.207102   -0.887650
     49          6           0        6.330647   -0.501204    0.182810
     50          6           0        5.621184   -0.311497    1.483858
     51          6           0        7.755093   -0.017569    0.249586
     52          6           0        7.957668    1.177360   -0.724607
     53          6           0        8.676989    0.931161   -2.092545
     54          6           0        9.834471    1.925598   -2.392024
     55          6           0        9.190927    2.948246   -3.340489
     56          6           0       11.118291    1.428855   -3.054899
     57          6           0       12.380626    1.795371   -2.360576
     58          6           0       13.289246    0.485938   -2.227045
     59          6           0       13.578684    0.053481   -0.811090
     60          6           0       14.609426   -1.021485   -0.825603
     61          6           0       12.332447   -0.211033    0.148310
     62          6           0       12.100841    0.946404    1.133693
     63          6           0       12.844558    0.723221    2.553694
     64          6           0       11.840350    0.494144    3.742690
     65          6           0       11.103703   -0.888320    3.777695
     66          6           0       10.800913    1.643227    3.883861
     67          1           0       -2.500719    3.191648    0.573429
     68          1           0       -8.887416    3.667820    0.184512
     69          1           0       -9.383267   -2.545661   -0.676172
     70          1           0       -1.156771   -1.270235    1.029535
     71          1           0       -0.993140    1.201243   -0.511228
     72          1           0       -0.233582    2.230041    1.238377
     73          1           0       -0.001872    0.554873    1.899866
     74          1           0       -1.421145    1.629643    2.407346
     75          1           0       -0.894424   -1.052056   -1.974445
     76          1           0       -0.491840   -2.383095   -1.004011
     77          1           0        1.056292   -0.189398   -0.004460
     78          1           0        1.186915   -0.367488   -1.839348
     79          1           0       -4.054057    6.252874   -0.356989
     80          1           0       -2.771165    5.173225    0.349358
     81          1           0       -3.809377    6.264847    1.271084
     82          1           0       -6.050539    7.455814   -0.622011
     83          1           0       -5.725628    7.340113    1.183299
     84          1           0       -7.155650    8.086648    0.580046
     85          1           0      -10.705362    1.971712   -0.240132
     86          1           0      -10.779456   -0.687782    0.817042
     87          1           0       -9.911062    2.585311    2.283196
     88          1           0       -9.909687    0.739485    2.513497
     89          1           0      -11.352104    1.614266    2.021080
     90          1           0      -12.059036    0.448367   -1.026621
     91          1           0      -11.710149   -1.344126   -1.110237
     92          1           0       -9.672499    0.167191   -2.666307
     93          1           0      -11.356347    0.391974   -3.307604
     94          1           0      -10.676067   -1.204488   -3.132347
     95          1           0       -8.794148   -4.787831   -0.837430
     96          1           0       -7.731239   -5.450193    0.407104
     97          1           0       -7.442615   -5.781690   -1.275494
     98          1           0       -2.328722   -3.855192   -0.927804
     99          1           0       -1.150418   -4.756944    3.081692
    100          1           0        0.418686   -4.936666    2.311222
    101          1           0       -0.753540   -6.267638    2.306017
    102          1           0        4.652583   -2.612522   -1.901170
    103          1           0        4.567287   -2.752946   -0.142099
    104          1           0        6.426214   -1.445607   -1.801059
    105          1           0        5.860457    0.637494    1.962541
    106          1           0        5.946261   -1.162704    2.082643
    107          1           0        4.547479   -0.287697    1.298413
    108          1           0        8.481057   -0.810304    0.069904
    109          1           0        7.945290    0.387659    1.243373
    110          1           0        8.602280    1.869804   -0.183947
    111          1           0        6.994523    1.621688   -0.978011
    112          1           0        7.915411    1.007582   -2.869024
    113          1           0        9.131062   -0.044680   -2.266757
    114          1           0       10.065349    2.522449   -1.508974
    115          1           0        9.884882    3.743934   -3.610463
    116          1           0        8.355172    3.389585   -2.796483
    117          1           0        8.820806    2.581727   -4.297685
    118          1           0       11.153632    1.684676   -4.114378
    119          1           0       11.060480    0.340993   -3.094601
    120          1           0       12.162332    2.158699   -1.356529
    121          1           0       12.896394    2.601697   -2.880695
    122          1           0       14.217758    0.619108   -2.782207
    123          1           0       12.909249   -0.432249   -2.676269
    124          1           0       14.215424    0.878494   -0.492146
    125          1           0       14.089902   -1.861869   -0.364805
    126          1           0       15.464992   -0.707118   -0.226385
    127          1           0       14.892316   -1.425894   -1.797142
    128          1           0       12.450433   -1.122862    0.734631
    129          1           0       11.431282   -0.224004   -0.464873
    130          1           0       11.021066    1.021085    1.258795
    131          1           0       12.473564    1.833824    0.621523
    132          1           0       13.408471    1.629792    2.772471
    133          1           0       13.574284   -0.086416    2.578164
    134          1           0       12.471102    0.546111    4.630191
    135          1           0       11.256053   -1.415287    2.835798
    136          1           0       10.077110   -0.878090    4.142429
    137          1           0       11.562037   -1.505907    4.549250
    138          1           0        9.793484    1.241028    3.994945
    139          1           0       10.853222    2.212167    2.956228
    140          1           0       11.087934    2.290115    4.712983
 ---------------------------------------------------------------------

 SCF Done:  E(RZINDO/S) =  -474.324019347     A.U. after   18 cycles

 Excitation energies and oscillator strengths:

 Excited State   1:      Singlet-A      1.4565 eV  851.22 nm  f=0.4431  <S**2>=0.000
     175 ->178         0.11647
     176 ->177         0.68173
 This state for optimization and/or second-order correction.
 Total Energy, E(CIS/TDA) =  -474.270492241
 Copying the excited state density for this state as the 1-particle RhoCI density.

 Excited State   2:      Singlet-A      2.0113 eV  616.43 nm  f=0.0277  <S**2>=0.000
     175 ->177         0.52124
     176 ->178        -0.43035

 Excited State   3:      Singlet-A      2.9473 eV  420.67 nm  f=0.2183  <S**2>=0.000
     167 ->177         0.22627
     167 ->179        -0.28500
     167 ->185        -0.15315
     168 ->177         0.21889
     168 ->179        -0.24747
     168 ->185        -0.12994
     175 ->177         0.19494
     176 ->178         0.24198

 Excited State   4:      Singlet-A      2.9695 eV  417.52 nm  f=0.6302  <S**2>=0.000
     167 ->177        -0.14461
     167 ->179         0.17285
     168 ->177        -0.12812
     168 ->179         0.14768
     175 ->177         0.32481
     176 ->178         0.38678
     176 ->179        -0.18708
     176 ->180        -0.18028

 Excited State   5:      Singlet-A      3.0352 eV  408.49 nm  f=0.1190  <S**2>=0.000
     171 ->177         0.19278
     171 ->178        -0.13232
     171 ->179         0.21860
     171 ->180         0.35532
     171 ->181         0.10088
     171 ->185         0.10150
     171 ->186         0.11358
     171 ->188         0.19160
     171 ->208        -0.11615
     172 ->180         0.10694
     175 ->177        -0.10242
     176 ->178        -0.16384
     176 ->179        -0.19953
     176 ->180        -0.12506

 The electronic state is 1-A.
 Alpha  occ. eigenvalues --   -1.83621  -1.81927  -1.79719  -1.73188  -1.71099
 Alpha  occ. eigenvalues --   -1.69923  -1.67372  -1.63246  -1.60306  -1.56327
 Alpha  occ. eigenvalues --   -1.55332  -1.52306  -1.48599  -1.45837  -1.45250
 Alpha  occ. eigenvalues --   -1.44256  -1.43680  -1.40604  -1.39638  -1.37934
 Alpha  occ. eigenvalues --   -1.37243  -1.32834  -1.32482  -1.31327  -1.29026
 Alpha  occ. eigenvalues --   -1.27887  -1.24953  -1.23398  -1.22339  -1.18838
 Alpha  occ. eigenvalues --   -1.16788  -1.16026  -1.14926  -1.12842  -1.12665
 Alpha  occ. eigenvalues --   -1.12028  -1.11814  -1.10579  -1.04656  -1.03323
 Alpha  occ. eigenvalues --   -1.02938  -1.00461  -0.99570  -0.97847  -0.97273
 Alpha  occ. eigenvalues --   -0.96291  -0.95928  -0.94568  -0.94061  -0.93307
 Alpha  occ. eigenvalues --   -0.90392  -0.89849  -0.88411  -0.87970  -0.85521
 Alpha  occ. eigenvalues --   -0.83751  -0.83700  -0.83086  -0.81575  -0.80205
 Alpha  occ. eigenvalues --   -0.79003  -0.78275  -0.77865  -0.76802  -0.76527
 Alpha  occ. eigenvalues --   -0.76015  -0.75938  -0.74682  -0.74517  -0.73975
 Alpha  occ. eigenvalues --   -0.73111  -0.72564  -0.72258  -0.71539  -0.71069
 Alpha  occ. eigenvalues --   -0.70394  -0.69835  -0.69133  -0.68704  -0.67850
 Alpha  occ. eigenvalues --   -0.67617  -0.67179  -0.66673  -0.66066  -0.65639
 Alpha  occ. eigenvalues --   -0.65196  -0.64720  -0.64261  -0.63623  -0.63250
 Alpha  occ. eigenvalues --   -0.62666  -0.62333  -0.62073  -0.61898  -0.61535
 Alpha  occ. eigenvalues --   -0.61308  -0.61175  -0.60672  -0.60393  -0.60115
 Alpha  occ. eigenvalues --   -0.59864  -0.59600  -0.59147  -0.58713  -0.58603
 Alpha  occ. eigenvalues --   -0.58312  -0.57681  -0.56782  -0.56719  -0.56630
 Alpha  occ. eigenvalues --   -0.56264  -0.55628  -0.55480  -0.55319  -0.55211
 Alpha  occ. eigenvalues --   -0.54872  -0.54655  -0.53656  -0.53184  -0.52561
 Alpha  occ. eigenvalues --   -0.52449  -0.52136  -0.51668  -0.51538  -0.51200
 Alpha  occ. eigenvalues --   -0.51108  -0.50806  -0.50610  -0.50225  -0.50151
 Alpha  occ. eigenvalues --   -0.50065  -0.49622  -0.49218  -0.48970  -0.48768
 Alpha  occ. eigenvalues --   -0.48639  -0.48488  -0.48283  -0.48035  -0.47824
 Alpha  occ. eigenvalues --   -0.47407  -0.47283  -0.46691  -0.46645  -0.46466
 Alpha  occ. eigenvalues --   -0.46315  -0.46005  -0.45855  -0.45528  -0.45105
 Alpha  occ. eigenvalues --   -0.44868  -0.44595  -0.44559  -0.43975  -0.43746
 Alpha  occ. eigenvalues --   -0.43179  -0.42987  -0.42677  -0.42629  -0.42384
 Alpha  occ. eigenvalues --   -0.41643  -0.40588  -0.40205  -0.39418  -0.39158
 Alpha  occ. eigenvalues --   -0.37435  -0.36947  -0.36323  -0.35079  -0.34099
 Alpha  occ. eigenvalues --   -0.32997  -0.32289  -0.31946  -0.30892  -0.27238
 Alpha  occ. eigenvalues --   -0.22050
 Alpha virt. eigenvalues --   -0.07878  -0.01977  -0.00961   0.01369   0.01607
 Alpha virt. eigenvalues --    0.01612   0.02948   0.04175   0.04366   0.05132
 Alpha virt. eigenvalues --    0.05843   0.06682   0.07160   0.07474   0.08095

 Mulliken charges:
               1
     1  Mg   0.426727
     2  C   -0.008452
     3  C   -0.101205
     4  C   -0.076517
     5  C   -0.045543
     6  N   -0.283953
     7  C    0.056406
     8  C    0.000430
     9  C   -0.017100
    10  C    0.194384
    11  C   -0.052756
    12  C   -0.023269
    13  C    0.002825
    14  C    0.454782
    15  O   -0.493750
    16  O   -0.267632
    17  N   -0.343928
    18  C    0.161423
    19  C    0.055849
    20  C   -0.038284
    21  C    0.146136
    22  C   -0.049634
    23  C    0.344637
    24  O   -0.502691
    25  C   -0.033246
    26  N   -0.270695
    27  C    0.204890
    28  C    0.004931
    29  C   -0.000967
    30  C    0.063435
    31  C   -0.045852
    32  C   -0.035237
    33  C   -0.059917
    34  N   -0.316975
    35  C    0.049396
    36  C    0.004465
    37  C   -0.044063
    38  C    0.073833
    39  C   -0.040769
    40  C    0.332603
    41  O   -0.553916
    42  C    0.066770
    43  C    0.504997
    44  O   -0.496713
    45  O   -0.297972
    46  C    0.067767
    47  C    0.100332
    48  C   -0.111675
    49  C    0.015439
    50  C   -0.037377
    51  C   -0.020898
    52  C   -0.032121
    53  C   -0.034596
    54  C   -0.015783
    55  C   -0.056444
    56  C   -0.025124
    57  C   -0.035158
    58  C   -0.036109
    59  C   -0.014529
    60  C   -0.059787
    61  C   -0.033544
    62  C   -0.042714
    63  C   -0.034117
    64  C   -0.015203
    65  C   -0.060901
    66  C   -0.061770
    67  H    0.015164
    68  H    0.042130
    69  H    0.021714
    70  H    0.034807
    71  H    0.027670
    72  H    0.018636
    73  H    0.031665
    74  H    0.033986
    75  H    0.023885
    76  H    0.029782
    77  H    0.044416
    78  H    0.042411
    79  H    0.028462
    80  H    0.033227
    81  H    0.035692
    82  H    0.039834
    83  H    0.035146
    84  H    0.032605
    85  H    0.035227
    86  H    0.024163
    87  H    0.037650
    88  H    0.037556
    89  H    0.013382
    90  H    0.022617
    91  H    0.024797
    92  H    0.031128
    93  H    0.018267
    94  H    0.020748
    95  H    0.017573
    96  H    0.030184
    97  H    0.027310
    98  H    0.047935
    99  H    0.037878
   100  H    0.035799
   101  H    0.048774
   102  H    0.042416
   103  H    0.049269
   104  H    0.029746
   105  H    0.024000
   106  H    0.039835
   107  H    0.022469
   108  H    0.030071
   109  H    0.013963
   110  H    0.016272
   111  H    0.026587
   112  H    0.017906
   113  H    0.018228
   114  H    0.023337
   115  H    0.004104
   116  H    0.006377
   117  H    0.020575
   118  H    0.018453
   119  H    0.011445
   120  H    0.023390
   121  H    0.020980
   122  H    0.011898
   123  H    0.017534
   124  H    0.011041
   125  H    0.008988
   126  H    0.021258
   127  H    0.021192
   128  H    0.028507
   129  H    0.018477
   130  H    0.022003
   131  H    0.024652
   132  H    0.013527
   133  H    0.023466
   134  H    0.012173
   135  H    0.024073
   136  H    0.025815
   137  H    0.008725
   138  H    0.022465
   139  H    0.018926
   140  H    0.020063
 Sum of Mulliken charges =  -0.00000

 Dipole moment (field-independent basis, Debye):
    X=              4.1251    Y=             14.6021    Z=             -0.8821  Tot=             15.1992
 N-N= 4.294093929367D+03 E-N= 0.000000000000D+00  KE=-9.262692333185D+03
 Leave Link  601 at Fri Apr 29 01:21:17 2022, MaxMem=  6710886400 cpu:               0.8 elap:               0.1
 (Enter /sw/apps/gaussian-16.0/g16/l9999.exe)
 1\1\GINC-BP1-COMPUTE154\SP\RZINDO CIS\STO-3G\C55H74Mg1N4O6\OF15641\29-
 Apr-2022\0\\#p ZINDO=(nstates=5)\\step_1801_chromophore_19 ZINDO\\0,1\
 Mg,0,24.858,49.895,27.189\C,0,22.951,51.221,29.894\C,0,27.367,49.385,2
 9.427\C,0,26.951,49.307,24.629\C,0,22.424,51.101,24.977\N,0,25.076,50.
 253,29.345\C,0,24.124,50.639,30.34\C,0,24.641,50.619,31.774\C,0,26.142
 ,50.048,31.515\C,0,26.231,49.984,29.977\C,0,27.373,50.78,32.162\C,0,23
 .823,49.848,32.855\C,0,24.473,49.625,34.24\C,0,23.882,50.223,35.616\O,

 Normal termination of Gaussian 16 at Fri Apr 29 01:21:17 2022.
