 Gaussian 16, Revision A.03,
 Gaussian 16:  ES64L-G16RevA.03 25-Dec-2016

 ------------------------------
 #p blyp/Def2SVP td=(nstates=5)
 ------------------------------

 ---------------------------------------------------
 step_1051_chromophore_13 TDDFT with blyp functional
 ---------------------------------------------------
 Symbolic Z-matrix:
 Charge =  0 Multiplicity = 1

                         Standard orientation:
 ---------------------------------------------------------------------
 Center     Atomic      Atomic             Coordinates (Angstroms)
 Number     Number       Type             X           Y           Z
 ---------------------------------------------------------------------
      1         12           0       -5.859236    0.474980   -0.204719
      2          6           0       -3.470011   -2.205207   -0.055690
      3          6           0       -3.254375    2.643135    0.498607
      4          6           0       -8.072639    2.863184    0.309023
      5          6           0       -8.343834   -2.081763   -0.392808
      6          7           0       -3.613835    0.195428   -0.007434
      7          6           0       -2.860970   -0.946304    0.179414
      8          6           0       -1.430667   -0.681185    0.435755
      9          6           0       -1.464478    0.805198    0.841611
     10          6           0       -2.856955    1.280661    0.388238
     11          6           0       -1.192338    1.007598    2.355012
     12          6           0       -0.672731   -0.949803   -0.939087
     13          6           0        0.426175   -2.083745   -0.911309
     14          6           0        1.859221   -1.805601   -1.405213
     15          8           0        2.132934   -1.028724   -2.326959
     16          8           0        2.802862   -2.561713   -0.722783
     17          7           0       -5.740898    2.570208    0.257642
     18          6           0       -4.548860    3.207440    0.491663
     19          6           0       -4.959729    4.651410    0.641204
     20          6           0       -6.374197    4.767470    0.500616
     21          6           0       -6.799991    3.426356    0.363548
     22          6           0       -3.842714    5.672098    0.783265
     23          6           0       -7.289477    5.972791    0.580576
     24          8           0       -8.501031    5.890104    0.500442
     25          6           0       -6.624541    7.339023    0.639682
     26          7           0       -7.859140    0.426103   -0.022515
     27          6           0       -8.566752    1.576606    0.105140
     28          6           0      -10.070010    1.205715   -0.000610
     29          6           0      -10.145812   -0.348087   -0.427675
     30          6           0       -8.659692   -0.738047   -0.312931
     31          6           0      -10.941874    1.535413    1.250751
     32          6           0      -10.712455   -0.465701   -1.845304
     33          6           0       -9.738134   -0.366485   -2.996008
     34          7           0       -5.987352   -1.738394   -0.258807
     35          6           0       -7.034972   -2.600148   -0.277266
     36          6           0       -6.666911   -3.958695   -0.259836
     37          6           0       -5.277546   -3.845119   -0.271782
     38          6           0       -4.912516   -2.466054   -0.232414
     39          6           0       -7.567233   -5.168154   -0.186784
     40          6           0       -4.044257   -4.650409   -0.294748
     41          8           0       -3.907391   -5.838717   -0.340324
     42          6           0       -2.890693   -3.666345   -0.100832
     43          6           0       -2.172831   -4.061951    1.132108
     44          8           0       -2.674078   -3.957218    2.204544
     45          8           0       -0.954484   -4.667627    0.872220
     46          6           0       -0.208075   -5.006242    2.077752
     47          6           0        4.181113   -2.333554   -1.141666
     48          6           0        4.884354   -1.334991   -0.248013
     49          6           0        6.166225   -1.216369    0.007556
     50          6           0        7.267516   -2.039373   -0.646282
     51          6           0        6.493780   -0.414554    1.215816
     52          6           0        6.776964    1.012636    0.952756
     53          6           0        8.255747    1.201000    0.603340
     54          6           0        8.689157    2.305449   -0.393850
     55          6           0        7.666027    3.506231   -0.603498
     56          6           0        9.009792    1.718209   -1.806564
     57          6           0       10.468440    2.270544   -2.320311
     58          6           0       11.467788    1.202790   -2.693662
     59          6           0       12.796413    1.449840   -1.935863
     60          6           0       13.886580    2.080636   -2.845502
     61          6           0       13.278549    0.144425   -1.225614
     62          6           0       12.556610   -0.074953    0.152241
     63          6           0       13.224370    0.581964    1.353711
     64          6           0       13.694493   -0.461715    2.396080
     65          6           0       12.964453   -0.252947    3.754193
     66          6           0       15.238812   -0.604479    2.595043
     67          1           0       -2.426599    3.325086    0.703111
     68          1           0       -8.885157    3.582345    0.429814
     69          1           0       -9.142291   -2.809347   -0.551585
     70          1           0       -1.051658   -1.327738    1.227697
     71          1           0       -0.773518    1.476619    0.332013
     72          1           0       -2.182041    1.243758    2.745307
     73          1           0       -0.524609    1.842196    2.568332
     74          1           0       -0.776829    0.091408    2.773229
     75          1           0       -0.151375   -0.139273   -1.448017
     76          1           0       -1.448139   -1.324378   -1.606697
     77          1           0        0.098647   -2.888319   -1.569044
     78          1           0        0.519449   -2.557528    0.065998
     79          1           0       -3.843188    6.432518    0.001407
     80          1           0       -2.889196    5.188543    0.571164
     81          1           0       -3.747731    6.100319    1.781092
     82          1           0       -6.080667    7.514642    1.567947
     83          1           0       -7.368504    8.106254    0.425220
     84          1           0       -5.989428    7.467288   -0.236599
     85          1           0      -10.532253    1.735803   -0.833651
     86          1           0      -10.817527   -0.950458    0.183081
     87          1           0      -11.225003    0.726628    1.924967
     88          1           0      -11.836055    2.127449    1.055346
     89          1           0      -10.223495    2.141598    1.804035
     90          1           0      -11.526065    0.238947   -2.015611
     91          1           0      -11.158678   -1.457939   -1.908362
     92          1           0      -10.173340    0.221631   -3.803148
     93          1           0       -9.722073   -1.356145   -3.451821
     94          1           0       -8.784307    0.116124   -2.781295
     95          1           0       -8.629484   -4.967301   -0.049381
     96          1           0       -7.229836   -5.814404    0.623632
     97          1           0       -7.379846   -5.793319   -1.059323
     98          1           0       -2.294049   -3.819665   -1.000093
     99          1           0       -0.376328   -4.292768    2.883851
    100          1           0        0.850505   -4.969521    1.818582
    101          1           0       -0.378815   -6.043595    2.367663
    102          1           0        4.518879   -2.004569   -2.124092
    103          1           0        4.736281   -3.267104   -1.052282
    104          1           0        4.209464   -0.793051    0.413975
    105          1           0        7.997575   -1.367192   -1.097703
    106          1           0        6.886444   -2.741145   -1.387599
    107          1           0        7.856544   -2.633786    0.052539
    108          1           0        7.315739   -1.009153    1.612706
    109          1           0        5.678397   -0.485231    1.936003
    110          1           0        6.355764    1.723565    1.663702
    111          1           0        6.278294    1.274245    0.019064
    112          1           0        8.790517    0.269764    0.417785
    113          1           0        8.675928    1.381164    1.592901
    114          1           0        9.616680    2.728438   -0.008989
    115          1           0        8.013483    4.373626   -0.043068
    116          1           0        6.625760    3.254131   -0.396383
    117          1           0        7.672694    3.769306   -1.660503
    118          1           0        8.287670    1.902376   -2.601252
    119          1           0        9.059103    0.629199   -1.787425
    120          1           0       10.871346    3.080890   -1.713192
    121          1           0       10.245006    2.791369   -3.251852
    122          1           0       11.618562    1.374624   -3.758991
    123          1           0       11.113753    0.190417   -2.498685
    124          1           0       12.544193    2.114922   -1.109328
    125          1           0       14.623778    2.498973   -2.160260
    126          1           0       13.517688    3.028197   -3.237721
    127          1           0       14.241254    1.474980   -3.680084
    128          1           0       14.341851    0.105194   -0.986409
    129          1           0       13.148101   -0.719596   -1.877397
    130          1           0       12.278189   -1.106168    0.370230
    131          1           0       11.602242    0.424946   -0.009965
    132          1           0       12.499055    1.251822    1.814941
    133          1           0       14.003074    1.240267    0.970403
    134          1           0       13.503677   -1.498304    2.118973
    135          1           0       13.518100   -0.711188    4.573473
    136          1           0       11.986839   -0.729753    3.686836
    137          1           0       12.936786    0.832779    3.844104
    138          1           0       15.824494    0.181420    2.116272
    139          1           0       15.623853   -1.554161    2.224372
    140          1           0       15.505472   -0.604759    3.651844
 ---------------------------------------------------------------------

 SCF Done:  E(RB-LYP) =  -3007.34676780     A.U. after   21 cycles

 Excitation energies and oscillator strengths:

 Excited State   1:      Singlet-A      1.7967 eV  690.05 nm  f=0.3224  <S**2>=0.000
     245 -> 248       -0.17794
     246 -> 247        0.69407
     246 <- 247       -0.15701
 This state for optimization and/or second-order correction.
 Total Energy, E(TD-HF/TD-DFT) =  -3007.28073892
 Copying the excited state density for this state as the 1-particle RhoCI density.

 Excited State   2:      Singlet-A      1.8595 eV  666.75 nm  f=0.0069  <S**2>=0.000
     244 -> 247        0.67024
     245 -> 247        0.21472

 Excited State   3:      Singlet-A      2.0052 eV  618.33 nm  f=0.0783  <S**2>=0.000
     244 -> 247       -0.21807
     245 -> 247        0.61924
     246 -> 248        0.22872

 Excited State   4:      Singlet-A      2.1133 eV  586.67 nm  f=0.0007  <S**2>=0.000
     243 -> 247        0.70365

 Excited State   5:      Singlet-A      2.1442 eV  578.23 nm  f=0.0000  <S**2>=0.000
     242 -> 247        0.70706

 The electronic state is 1-A.
 Alpha  occ. eigenvalues --  -46.27938 -18.83305 -18.82120 -18.77121 -18.76818
 Alpha  occ. eigenvalues --  -18.76444 -18.75520 -14.04048 -14.03264 -14.01129
 Alpha  occ. eigenvalues --  -14.00266 -10.04668 -10.03605 -10.00599  -9.99036
 Alpha  occ. eigenvalues --   -9.97901  -9.97426  -9.97246  -9.97027  -9.96776
 Alpha  occ. eigenvalues --   -9.96394  -9.96392  -9.95650  -9.94946  -9.94759
 Alpha  occ. eigenvalues --   -9.94525  -9.94407  -9.94381  -9.94213  -9.93844
 Alpha  occ. eigenvalues --   -9.93751  -9.93749  -9.93715  -9.93428  -9.93209
 Alpha  occ. eigenvalues --   -9.93080  -9.93029  -9.92926  -9.92660  -9.92594
 Alpha  occ. eigenvalues --   -9.92591  -9.92588  -9.92324  -9.92122  -9.91995
 Alpha  occ. eigenvalues --   -9.91946  -9.91932  -9.91900  -9.91722  -9.91557
 Alpha  occ. eigenvalues --   -9.91396  -9.91168  -9.91159  -9.91141  -9.91128
 Alpha  occ. eigenvalues --   -9.91030  -9.91000  -9.90996  -9.90955  -9.90939
 Alpha  occ. eigenvalues --   -9.90933  -9.90925  -9.90918  -9.90740  -9.90590
 Alpha  occ. eigenvalues --   -9.90443  -2.92424  -1.72858  -1.72258  -1.72174
 Alpha  occ. eigenvalues --   -0.98354  -0.97758  -0.92559  -0.92539  -0.90994
 Alpha  occ. eigenvalues --   -0.89757  -0.87453  -0.86162  -0.85558  -0.83897
 Alpha  occ. eigenvalues --   -0.74611  -0.74576  -0.72960  -0.72711  -0.72358
 Alpha  occ. eigenvalues --   -0.71597  -0.71470  -0.70804  -0.70527  -0.70413
 Alpha  occ. eigenvalues --   -0.70065  -0.69282  -0.68233  -0.67441  -0.67078
 Alpha  occ. eigenvalues --   -0.66459  -0.65770  -0.65284  -0.64993  -0.64556
 Alpha  occ. eigenvalues --   -0.63931  -0.62938  -0.62591  -0.61782  -0.61233
 Alpha  occ. eigenvalues --   -0.60796  -0.60022  -0.59564  -0.59488  -0.58975
 Alpha  occ. eigenvalues --   -0.58374  -0.57973  -0.56652  -0.55969  -0.54591
 Alpha  occ. eigenvalues --   -0.53997  -0.53743  -0.52872  -0.52732  -0.51671
 Alpha  occ. eigenvalues --   -0.51173  -0.50911  -0.50678  -0.49938  -0.49838
 Alpha  occ. eigenvalues --   -0.49822  -0.49102  -0.48453  -0.48233  -0.47015
 Alpha  occ. eigenvalues --   -0.46636  -0.46274  -0.45992  -0.45480  -0.45030
 Alpha  occ. eigenvalues --   -0.43882  -0.43655  -0.43114  -0.42671  -0.42236
 Alpha  occ. eigenvalues --   -0.42065  -0.41858  -0.41781  -0.41348  -0.41096
 Alpha  occ. eigenvalues --   -0.41001  -0.40734  -0.40353  -0.40149  -0.40113
 Alpha  occ. eigenvalues --   -0.39920  -0.39760  -0.39598  -0.39511  -0.39129
 Alpha  occ. eigenvalues --   -0.39002  -0.38696  -0.38448  -0.38356  -0.38204
 Alpha  occ. eigenvalues --   -0.37974  -0.37941  -0.37755  -0.37351  -0.37341
 Alpha  occ. eigenvalues --   -0.37081  -0.37006  -0.36714  -0.36661  -0.36356
 Alpha  occ. eigenvalues --   -0.36201  -0.36116  -0.35937  -0.35865  -0.35718
 Alpha  occ. eigenvalues --   -0.35628  -0.35440  -0.35311  -0.34947  -0.34790
 Alpha  occ. eigenvalues --   -0.34689  -0.34576  -0.34319  -0.34059  -0.33922
 Alpha  occ. eigenvalues --   -0.33452  -0.33382  -0.33313  -0.33081  -0.33000
 Alpha  occ. eigenvalues --   -0.32866  -0.32680  -0.32524  -0.32437  -0.32353
 Alpha  occ. eigenvalues --   -0.32270  -0.31988  -0.31702  -0.31538  -0.31430
 Alpha  occ. eigenvalues --   -0.31251  -0.31208  -0.30994  -0.30864  -0.30795
 Alpha  occ. eigenvalues --   -0.30729  -0.30634  -0.30261  -0.30201  -0.30059
 Alpha  occ. eigenvalues --   -0.29893  -0.29734  -0.29140  -0.29101  -0.28950
 Alpha  occ. eigenvalues --   -0.28638  -0.28524  -0.28433  -0.27960  -0.27898
 Alpha  occ. eigenvalues --   -0.27662  -0.27217  -0.26596  -0.26514  -0.26322
 Alpha  occ. eigenvalues --   -0.25877  -0.25809  -0.25658  -0.25332  -0.25274
 Alpha  occ. eigenvalues --   -0.25258  -0.24435  -0.24188  -0.24069  -0.23869
 Alpha  occ. eigenvalues --   -0.23197  -0.22511  -0.22060  -0.21987  -0.21007
 Alpha  occ. eigenvalues --   -0.20481  -0.19721  -0.19517  -0.18619  -0.17427
 Alpha  occ. eigenvalues --   -0.16008
 Alpha virt. eigenvalues --   -0.11841  -0.06749  -0.06294  -0.04525  -0.03251
 Alpha virt. eigenvalues --   -0.02753  -0.02020  -0.01635  -0.01146   0.00026
 Alpha virt. eigenvalues --    0.01160   0.01570   0.01722   0.02314   0.02386

 Mulliken charges:
               1
     1  Mg   0.680216
     2  C    0.042917
     3  C   -0.051098
     4  C   -0.036214
     5  C   -0.084685
     6  N   -0.212124
     7  C   -0.103444
     8  C    0.042675
     9  C   -0.010481
    10  C    0.018602
    11  C    0.134049
    12  C    0.150329
    13  C    0.078806
    14  C    0.077821
    15  O   -0.200845
    16  O   -0.258945
    17  N   -0.283605
    18  C    0.138139
    19  C   -0.137738
    20  C    0.068571
    21  C    0.082955
    22  C    0.152096
    23  C   -0.076582
    24  O   -0.141087
    25  C    0.122208
    26  N   -0.308591
    27  C    0.062227
    28  C    0.024888
    29  C    0.019565
    30  C    0.099341
    31  C    0.116020
    32  C    0.044473
    33  C    0.092625
    34  N   -0.159930
    35  C    0.076211
    36  C   -0.165101
    37  C    0.055619
    38  C    0.017096
    39  C    0.190264
    40  C   -0.082172
    41  O   -0.101012
    42  C    0.095977
    43  C    0.087717
    44  O   -0.148849
    45  O   -0.274352
    46  C    0.210392
    47  C    0.335791
    48  C   -0.118590
    49  C   -0.160506
    50  C    0.146668
    51  C    0.167137
    52  C    0.123431
    53  C    0.050886
    54  C   -0.024211
    55  C    0.099352
    56  C    0.080774
    57  C    0.026042
    58  C    0.148549
    59  C   -0.092546
    60  C    0.133066
    61  C    0.096240
    62  C    0.040580
    63  C    0.142198
    64  C   -0.093075
    65  C    0.097781
    66  C    0.084195
    67  H   -0.059960
    68  H   -0.046619
    69  H   -0.060718
    70  H   -0.008577
    71  H   -0.023951
    72  H   -0.000261
    73  H   -0.007323
    74  H   -0.003396
    75  H   -0.000825
    76  H   -0.014316
    77  H    0.018532
    78  H   -0.009272
    79  H   -0.000159
    80  H   -0.029214
    81  H    0.010388
    82  H    0.019019
    83  H   -0.013791
    84  H    0.001537
    85  H   -0.023199
    86  H   -0.030603
    87  H   -0.008431
    88  H   -0.004890
    89  H   -0.014808
    90  H   -0.020323
    91  H   -0.034317
    92  H   -0.030067
    93  H   -0.012999
    94  H    0.011516
    95  H   -0.010893
    96  H    0.004734
    97  H    0.002448
    98  H   -0.016455
    99  H    0.017416
   100  H    0.007492
   101  H    0.021374
   102  H    0.008451
   103  H   -0.009551
   104  H   -0.047155
   105  H   -0.004687
   106  H   -0.024416
   107  H   -0.007910
   108  H   -0.044942
   109  H   -0.045476
   110  H   -0.028351
   111  H   -0.028499
   112  H   -0.038343
   113  H   -0.049592
   114  H   -0.034718
   115  H   -0.014603
   116  H   -0.006006
   117  H   -0.020752
   118  H   -0.026106
   119  H   -0.039365
   120  H   -0.021429
   121  H   -0.045910
   122  H   -0.038425
   123  H   -0.027237
   124  H   -0.038693
   125  H   -0.025115
   126  H   -0.038218
   127  H    0.003327
   128  H   -0.044491
   129  H   -0.042651
   130  H   -0.035862
   131  H   -0.036731
   132  H   -0.039042
   133  H   -0.030841
   134  H   -0.031211
   135  H   -0.017936
   136  H   -0.011070
   137  H   -0.006586
   138  H   -0.020192
   139  H   -0.018094
   140  H   -0.029367
 Sum of Mulliken charges =  -0.00000

 Dipole moment (field-independent basis, Debye):
    X=              2.6179    Y=              2.3063    Z=              0.1923  Tot=              3.4942
 Quadrupole moment (field-independent basis, Debye-Ang):
   XX=           -389.7041   YY=           -418.4799   ZZ=           -410.3568
   XY=              3.2865   XZ=             14.0485   YZ=              0.7897

 Normal termination of Gaussian 16 at Wed Apr 27 02:58:53 2022.
