 Gaussian 16, Revision A.03,
 Gaussian 16:  ES64L-G16RevA.03 25-Dec-2016

 -----------------------------------
 #p cam-b3lyp/Def2SVP td=(nstates=5)
 -----------------------------------

 --------------------------------------------------------
 step_1051_chromophore_13 TDDFT with cam-b3lyp functional
 --------------------------------------------------------
 Symbolic Z-matrix:
 Charge =  0 Multiplicity = 1

                         Standard orientation:
 ---------------------------------------------------------------------
 Center     Atomic      Atomic             Coordinates (Angstroms)
 Number     Number       Type             X           Y           Z
 ---------------------------------------------------------------------
      1         12           0       -5.859236    0.474980   -0.204719
      2          6           0       -3.470011   -2.205207   -0.055690
      3          6           0       -3.254375    2.643135    0.498607
      4          6           0       -8.072639    2.863184    0.309023
      5          6           0       -8.343834   -2.081763   -0.392808
      6          7           0       -3.613835    0.195428   -0.007434
      7          6           0       -2.860970   -0.946304    0.179414
      8          6           0       -1.430667   -0.681185    0.435755
      9          6           0       -1.464478    0.805198    0.841611
     10          6           0       -2.856955    1.280661    0.388238
     11          6           0       -1.192338    1.007598    2.355012
     12          6           0       -0.672731   -0.949803   -0.939087
     13          6           0        0.426175   -2.083745   -0.911309
     14          6           0        1.859221   -1.805601   -1.405213
     15          8           0        2.132934   -1.028724   -2.326959
     16          8           0        2.802862   -2.561713   -0.722783
     17          7           0       -5.740898    2.570208    0.257642
     18          6           0       -4.548860    3.207440    0.491663
     19          6           0       -4.959729    4.651410    0.641204
     20          6           0       -6.374197    4.767470    0.500616
     21          6           0       -6.799991    3.426356    0.363548
     22          6           0       -3.842714    5.672098    0.783265
     23          6           0       -7.289477    5.972791    0.580576
     24          8           0       -8.501031    5.890104    0.500442
     25          6           0       -6.624541    7.339023    0.639682
     26          7           0       -7.859140    0.426103   -0.022515
     27          6           0       -8.566752    1.576606    0.105140
     28          6           0      -10.070010    1.205715   -0.000610
     29          6           0      -10.145812   -0.348087   -0.427675
     30          6           0       -8.659692   -0.738047   -0.312931
     31          6           0      -10.941874    1.535413    1.250751
     32          6           0      -10.712455   -0.465701   -1.845304
     33          6           0       -9.738134   -0.366485   -2.996008
     34          7           0       -5.987352   -1.738394   -0.258807
     35          6           0       -7.034972   -2.600148   -0.277266
     36          6           0       -6.666911   -3.958695   -0.259836
     37          6           0       -5.277546   -3.845119   -0.271782
     38          6           0       -4.912516   -2.466054   -0.232414
     39          6           0       -7.567233   -5.168154   -0.186784
     40          6           0       -4.044257   -4.650409   -0.294748
     41          8           0       -3.907391   -5.838717   -0.340324
     42          6           0       -2.890693   -3.666345   -0.100832
     43          6           0       -2.172831   -4.061951    1.132108
     44          8           0       -2.674078   -3.957218    2.204544
     45          8           0       -0.954484   -4.667627    0.872220
     46          6           0       -0.208075   -5.006242    2.077752
     47          6           0        4.181113   -2.333554   -1.141666
     48          6           0        4.884354   -1.334991   -0.248013
     49          6           0        6.166225   -1.216369    0.007556
     50          6           0        7.267516   -2.039373   -0.646282
     51          6           0        6.493780   -0.414554    1.215816
     52          6           0        6.776964    1.012636    0.952756
     53          6           0        8.255747    1.201000    0.603340
     54          6           0        8.689157    2.305449   -0.393850
     55          6           0        7.666027    3.506231   -0.603498
     56          6           0        9.009792    1.718209   -1.806564
     57          6           0       10.468440    2.270544   -2.320311
     58          6           0       11.467788    1.202790   -2.693662
     59          6           0       12.796413    1.449840   -1.935863
     60          6           0       13.886580    2.080636   -2.845502
     61          6           0       13.278549    0.144425   -1.225614
     62          6           0       12.556610   -0.074953    0.152241
     63          6           0       13.224370    0.581964    1.353711
     64          6           0       13.694493   -0.461715    2.396080
     65          6           0       12.964453   -0.252947    3.754193
     66          6           0       15.238812   -0.604479    2.595043
     67          1           0       -2.426599    3.325086    0.703111
     68          1           0       -8.885157    3.582345    0.429814
     69          1           0       -9.142291   -2.809347   -0.551585
     70          1           0       -1.051658   -1.327738    1.227697
     71          1           0       -0.773518    1.476619    0.332013
     72          1           0       -2.182041    1.243758    2.745307
     73          1           0       -0.524609    1.842196    2.568332
     74          1           0       -0.776829    0.091408    2.773229
     75          1           0       -0.151375   -0.139273   -1.448017
     76          1           0       -1.448139   -1.324378   -1.606697
     77          1           0        0.098647   -2.888319   -1.569044
     78          1           0        0.519449   -2.557528    0.065998
     79          1           0       -3.843188    6.432518    0.001407
     80          1           0       -2.889196    5.188543    0.571164
     81          1           0       -3.747731    6.100319    1.781092
     82          1           0       -6.080667    7.514642    1.567947
     83          1           0       -7.368504    8.106254    0.425220
     84          1           0       -5.989428    7.467288   -0.236599
     85          1           0      -10.532253    1.735803   -0.833651
     86          1           0      -10.817527   -0.950458    0.183081
     87          1           0      -11.225003    0.726628    1.924967
     88          1           0      -11.836055    2.127449    1.055346
     89          1           0      -10.223495    2.141598    1.804035
     90          1           0      -11.526065    0.238947   -2.015611
     91          1           0      -11.158678   -1.457939   -1.908362
     92          1           0      -10.173340    0.221631   -3.803148
     93          1           0       -9.722073   -1.356145   -3.451821
     94          1           0       -8.784307    0.116124   -2.781295
     95          1           0       -8.629484   -4.967301   -0.049381
     96          1           0       -7.229836   -5.814404    0.623632
     97          1           0       -7.379846   -5.793319   -1.059323
     98          1           0       -2.294049   -3.819665   -1.000093
     99          1           0       -0.376328   -4.292768    2.883851
    100          1           0        0.850505   -4.969521    1.818582
    101          1           0       -0.378815   -6.043595    2.367663
    102          1           0        4.518879   -2.004569   -2.124092
    103          1           0        4.736281   -3.267104   -1.052282
    104          1           0        4.209464   -0.793051    0.413975
    105          1           0        7.997575   -1.367192   -1.097703
    106          1           0        6.886444   -2.741145   -1.387599
    107          1           0        7.856544   -2.633786    0.052539
    108          1           0        7.315739   -1.009153    1.612706
    109          1           0        5.678397   -0.485231    1.936003
    110          1           0        6.355764    1.723565    1.663702
    111          1           0        6.278294    1.274245    0.019064
    112          1           0        8.790517    0.269764    0.417785
    113          1           0        8.675928    1.381164    1.592901
    114          1           0        9.616680    2.728438   -0.008989
    115          1           0        8.013483    4.373626   -0.043068
    116          1           0        6.625760    3.254131   -0.396383
    117          1           0        7.672694    3.769306   -1.660503
    118          1           0        8.287670    1.902376   -2.601252
    119          1           0        9.059103    0.629199   -1.787425
    120          1           0       10.871346    3.080890   -1.713192
    121          1           0       10.245006    2.791369   -3.251852
    122          1           0       11.618562    1.374624   -3.758991
    123          1           0       11.113753    0.190417   -2.498685
    124          1           0       12.544193    2.114922   -1.109328
    125          1           0       14.623778    2.498973   -2.160260
    126          1           0       13.517688    3.028197   -3.237721
    127          1           0       14.241254    1.474980   -3.680084
    128          1           0       14.341851    0.105194   -0.986409
    129          1           0       13.148101   -0.719596   -1.877397
    130          1           0       12.278189   -1.106168    0.370230
    131          1           0       11.602242    0.424946   -0.009965
    132          1           0       12.499055    1.251822    1.814941
    133          1           0       14.003074    1.240267    0.970403
    134          1           0       13.503677   -1.498304    2.118973
    135          1           0       13.518100   -0.711188    4.573473
    136          1           0       11.986839   -0.729753    3.686836
    137          1           0       12.936786    0.832779    3.844104
    138          1           0       15.824494    0.181420    2.116272
    139          1           0       15.623853   -1.554161    2.224372
    140          1           0       15.505472   -0.604759    3.651844
 ---------------------------------------------------------------------

 SCF Done:  E(RCAM-B3LYP) =  -3007.14412173     A.U. after   19 cycles

 Excitation energies and oscillator strengths:

 Excited State   1:      Singlet-A      1.7003 eV  729.20 nm  f=0.3966  <S**2>=0.000
     245 -> 248        0.16785
     246 -> 247        0.68948
     245 <- 248        0.10502
 This state for optimization and/or second-order correction.
 Total Energy, E(TD-HF/TD-DFT) =  -3007.08163811
 Copying the excited state density for this state as the 1-particle RhoCI density.

 Excited State   2:      Singlet-A      2.1951 eV  564.82 nm  f=0.1254  <S**2>=0.000
     245 -> 247        0.64874
     246 -> 248       -0.26819

 Excited State   3:      Singlet-A      3.3318 eV  372.13 nm  f=0.0074  <S**2>=0.000
     241 -> 247       -0.28219
     244 -> 247        0.62094

 Excited State   4:      Singlet-A      3.4621 eV  358.11 nm  f=0.0832  <S**2>=0.000
     240 -> 247        0.18224
     241 -> 247        0.47113
     244 -> 247        0.26436
     246 -> 248        0.38022

 Excited State   5:      Singlet-A      3.6014 eV  344.27 nm  f=0.0037  <S**2>=0.000
     241 -> 247        0.14410
     242 -> 247        0.59486
     242 -> 249        0.17520
     242 -> 251       -0.21019

 The electronic state is 1-A.
 Alpha  occ. eigenvalues --  -46.89544 -19.26190 -19.24959 -19.20090 -19.20073
 Alpha  occ. eigenvalues --  -19.19843 -19.18335 -14.42997 -14.42147 -14.39765
 Alpha  occ. eigenvalues --  -14.38385 -10.40019 -10.38880 -10.36173 -10.33937
 Alpha  occ. eigenvalues --  -10.32137 -10.31872 -10.31536 -10.31332 -10.31309
 Alpha  occ. eigenvalues --  -10.31256 -10.30452 -10.30409 -10.30253 -10.28775
 Alpha  occ. eigenvalues --  -10.28731 -10.28281 -10.28244 -10.28066 -10.27906
 Alpha  occ. eigenvalues --  -10.27898 -10.27846 -10.27812 -10.27636 -10.27520
 Alpha  occ. eigenvalues --  -10.27415 -10.26865 -10.26727 -10.26555 -10.26503
 Alpha  occ. eigenvalues --  -10.26388 -10.26269 -10.26170 -10.26105 -10.25939
 Alpha  occ. eigenvalues --  -10.25739 -10.25693 -10.25652 -10.25422 -10.25248
 Alpha  occ. eigenvalues --  -10.25144 -10.24890 -10.24816 -10.24782 -10.24725
 Alpha  occ. eigenvalues --  -10.24717 -10.24638 -10.24629 -10.24616 -10.24610
 Alpha  occ. eigenvalues --  -10.24597 -10.24590 -10.24515 -10.24355 -10.24205
 Alpha  occ. eigenvalues --  -10.24017  -3.17928  -1.92840  -1.92350  -1.92247
 Alpha  occ. eigenvalues --   -1.16877  -1.16153  -1.11370  -1.10661  -1.08850
 Alpha  occ. eigenvalues --   -1.07607  -1.04784  -1.03929  -1.03403  -1.01415
 Alpha  occ. eigenvalues --   -0.91557  -0.91486  -0.89768  -0.89411  -0.89064
 Alpha  occ. eigenvalues --   -0.88259  -0.88166  -0.87401  -0.87361  -0.86873
 Alpha  occ. eigenvalues --   -0.86554  -0.85630  -0.84492  -0.83600  -0.83168
 Alpha  occ. eigenvalues --   -0.82531  -0.82098  -0.81292  -0.80702  -0.80456
 Alpha  occ. eigenvalues --   -0.79705  -0.78879  -0.78060  -0.77178  -0.76633
 Alpha  occ. eigenvalues --   -0.76070  -0.75381  -0.74783  -0.74770  -0.74189
 Alpha  occ. eigenvalues --   -0.73433  -0.72956  -0.71553  -0.70752  -0.69136
 Alpha  occ. eigenvalues --   -0.68644  -0.68295  -0.67492  -0.67178  -0.65935
 Alpha  occ. eigenvalues --   -0.65427  -0.64957  -0.64509  -0.63941  -0.63688
 Alpha  occ. eigenvalues --   -0.63521  -0.63022  -0.62292  -0.61840  -0.60937
 Alpha  occ. eigenvalues --   -0.60174  -0.59840  -0.59511  -0.58857  -0.58486
 Alpha  occ. eigenvalues --   -0.57332  -0.57088  -0.56170  -0.55801  -0.55591
 Alpha  occ. eigenvalues --   -0.55304  -0.54692  -0.54629  -0.54494  -0.54212
 Alpha  occ. eigenvalues --   -0.53805  -0.53425  -0.53362  -0.53240  -0.53037
 Alpha  occ. eigenvalues --   -0.52846  -0.52485  -0.52254  -0.51916  -0.51688
 Alpha  occ. eigenvalues --   -0.51407  -0.51075  -0.51053  -0.50902  -0.50720
 Alpha  occ. eigenvalues --   -0.50349  -0.50244  -0.50189  -0.49976  -0.49537
 Alpha  occ. eigenvalues --   -0.49488  -0.49224  -0.49064  -0.48983  -0.48699
 Alpha  occ. eigenvalues --   -0.48557  -0.48346  -0.48279  -0.48079  -0.47817
 Alpha  occ. eigenvalues --   -0.47581  -0.47514  -0.47335  -0.46996  -0.46747
 Alpha  occ. eigenvalues --   -0.46564  -0.46530  -0.46070  -0.45679  -0.45651
 Alpha  occ. eigenvalues --   -0.45322  -0.45192  -0.45071  -0.44911  -0.44571
 Alpha  occ. eigenvalues --   -0.44488  -0.44342  -0.44191  -0.44115  -0.43992
 Alpha  occ. eigenvalues --   -0.43871  -0.43793  -0.43514  -0.43284  -0.43177
 Alpha  occ. eigenvalues --   -0.42867  -0.42809  -0.42417  -0.42312  -0.42220
 Alpha  occ. eigenvalues --   -0.42147  -0.41929  -0.41754  -0.41452  -0.41398
 Alpha  occ. eigenvalues --   -0.41099  -0.40929  -0.40411  -0.40194  -0.40056
 Alpha  occ. eigenvalues --   -0.39567  -0.39516  -0.39416  -0.38975  -0.38794
 Alpha  occ. eigenvalues --   -0.38530  -0.38014  -0.37711  -0.37216  -0.37202
 Alpha  occ. eigenvalues --   -0.37021  -0.36847  -0.36728  -0.36537  -0.35966
 Alpha  occ. eigenvalues --   -0.35929  -0.35024  -0.34742  -0.34631  -0.34245
 Alpha  occ. eigenvalues --   -0.34235  -0.34130  -0.33349  -0.32119  -0.31414
 Alpha  occ. eigenvalues --   -0.30553  -0.30297  -0.29428  -0.29302  -0.24257
 Alpha  occ. eigenvalues --   -0.21311
 Alpha virt. eigenvalues --   -0.09031  -0.01506   0.00185   0.02406   0.02663
 Alpha virt. eigenvalues --    0.04602   0.05433   0.05928   0.06124   0.06276
 Alpha virt. eigenvalues --    0.07796   0.08188   0.08498   0.08564   0.08707

 Mulliken charges:
               1
     1  Mg   0.811027
     2  C    0.022654
     3  C   -0.075724
     4  C   -0.059285
     5  C   -0.077295
     6  N   -0.278532
     7  C   -0.067287
     8  C   -0.010037
     9  C   -0.067054
    10  C    0.043946
    11  C    0.078592
    12  C    0.098742
    13  C    0.011912
    14  C    0.162301
    15  O   -0.242580
    16  O   -0.324022
    17  N   -0.372471
    18  C    0.154301
    19  C   -0.141426
    20  C    0.001909
    21  C    0.111018
    22  C    0.095257
    23  C    0.006696
    24  O   -0.179620
    25  C    0.040568
    26  N   -0.382432
    27  C    0.085230
    28  C   -0.030879
    29  C   -0.029267
    30  C    0.099853
    31  C    0.057273
    32  C   -0.005539
    33  C    0.027958
    34  N   -0.248026
    35  C    0.069474
    36  C   -0.162652
    37  C   -0.025465
    38  C    0.051123
    39  C    0.140320
    40  C    0.020037
    41  O   -0.142829
    42  C    0.020233
    43  C    0.170192
    44  O   -0.183849
    45  O   -0.337468
    46  C    0.170099
    47  C    0.294388
    48  C   -0.129776
    49  C   -0.182200
    50  C    0.089634
    51  C    0.095412
    52  C    0.063344
    53  C    0.007415
    54  C   -0.084082
    55  C    0.044924
    56  C    0.032162
    57  C   -0.026799
    58  C    0.090263
    59  C   -0.148187
    60  C    0.074438
    61  C    0.043975
    62  C   -0.006968
    63  C    0.084211
    64  C   -0.156596
    65  C    0.042475
    66  C    0.028957
    67  H   -0.025155
    68  H   -0.006297
    69  H   -0.025806
    70  H    0.023313
    71  H    0.011485
    72  H    0.025488
    73  H    0.017073
    74  H    0.021460
    75  H    0.031510
    76  H    0.018842
    77  H    0.048386
    78  H    0.021098
    79  H    0.027912
    80  H    0.001006
    81  H    0.038706
    82  H    0.046598
    83  H    0.022899
    84  H    0.029526
    85  H    0.011759
    86  H    0.004524
    87  H    0.017576
    88  H    0.019935
    89  H    0.008698
    90  H    0.006711
    91  H   -0.005898
    92  H   -0.004445
    93  H    0.011986
    94  H    0.030992
    95  H    0.011815
    96  H    0.030190
    97  H    0.027419
    98  H    0.025645
    99  H    0.041092
   100  H    0.029438
   101  H    0.044034
   102  H    0.040825
   103  H    0.019085
   104  H   -0.014408
   105  H    0.014985
   106  H    0.000677
   107  H    0.017707
   108  H   -0.014553
   109  H   -0.010646
   110  H    0.002060
   111  H   -0.001567
   112  H   -0.012595
   113  H   -0.019164
   114  H   -0.003099
   115  H    0.009527
   116  H    0.016060
   117  H    0.003312
   118  H    0.002669
   119  H   -0.017149
   120  H    0.004732
   121  H   -0.015499
   122  H   -0.007068
   123  H    0.000877
   124  H   -0.009040
   125  H   -0.000313
   126  H   -0.012796
   127  H    0.026555
   128  H   -0.015433
   129  H   -0.012471
   130  H   -0.006491
   131  H   -0.015448
   132  H   -0.009161
   133  H   -0.003314
   134  H    0.000404
   135  H    0.006121
   136  H    0.012006
   137  H    0.014915
   138  H    0.003008
   139  H    0.005800
   140  H   -0.004589
 Sum of Mulliken charges =  -0.00000

 Dipole moment (field-independent basis, Debye):
    X=              2.7808    Y=              3.8025    Z=              0.4132  Tot=              4.7289
 Quadrupole moment (field-independent basis, Debye-Ang):
   XX=           -388.6668   YY=           -413.1167   ZZ=           -410.5704
   XY=             -4.8695   XZ=             14.1850   YZ=              1.5145

 Normal termination of Gaussian 16 at Wed Apr 27 02:00:05 2022.
