 Gaussian 16, Revision A.03,
 Gaussian 16:  ES64L-G16RevA.03 25-Dec-2016

 ---------------------------------
 #p PBE1PBE/Def2SVP td=(nstates=5)
 ---------------------------------

 ------------------------------------------------------
 step_1051_chromophore_13 TDDFT with PBE1PBE functional
 ------------------------------------------------------
 Symbolic Z-matrix:
 Charge =  0 Multiplicity = 1

                         Standard orientation:
 ---------------------------------------------------------------------
 Center     Atomic      Atomic             Coordinates (Angstroms)
 Number     Number       Type             X           Y           Z
 ---------------------------------------------------------------------
      1         12           0       -5.859236    0.474980   -0.204719
      2          6           0       -3.470011   -2.205207   -0.055690
      3          6           0       -3.254375    2.643135    0.498607
      4          6           0       -8.072639    2.863184    0.309023
      5          6           0       -8.343834   -2.081763   -0.392808
      6          7           0       -3.613835    0.195428   -0.007434
      7          6           0       -2.860970   -0.946304    0.179414
      8          6           0       -1.430667   -0.681185    0.435755
      9          6           0       -1.464478    0.805198    0.841611
     10          6           0       -2.856955    1.280661    0.388238
     11          6           0       -1.192338    1.007598    2.355012
     12          6           0       -0.672731   -0.949803   -0.939087
     13          6           0        0.426175   -2.083745   -0.911309
     14          6           0        1.859221   -1.805601   -1.405213
     15          8           0        2.132934   -1.028724   -2.326959
     16          8           0        2.802862   -2.561713   -0.722783
     17          7           0       -5.740898    2.570208    0.257642
     18          6           0       -4.548860    3.207440    0.491663
     19          6           0       -4.959729    4.651410    0.641204
     20          6           0       -6.374197    4.767470    0.500616
     21          6           0       -6.799991    3.426356    0.363548
     22          6           0       -3.842714    5.672098    0.783265
     23          6           0       -7.289477    5.972791    0.580576
     24          8           0       -8.501031    5.890104    0.500442
     25          6           0       -6.624541    7.339023    0.639682
     26          7           0       -7.859140    0.426103   -0.022515
     27          6           0       -8.566752    1.576606    0.105140
     28          6           0      -10.070010    1.205715   -0.000610
     29          6           0      -10.145812   -0.348087   -0.427675
     30          6           0       -8.659692   -0.738047   -0.312931
     31          6           0      -10.941874    1.535413    1.250751
     32          6           0      -10.712455   -0.465701   -1.845304
     33          6           0       -9.738134   -0.366485   -2.996008
     34          7           0       -5.987352   -1.738394   -0.258807
     35          6           0       -7.034972   -2.600148   -0.277266
     36          6           0       -6.666911   -3.958695   -0.259836
     37          6           0       -5.277546   -3.845119   -0.271782
     38          6           0       -4.912516   -2.466054   -0.232414
     39          6           0       -7.567233   -5.168154   -0.186784
     40          6           0       -4.044257   -4.650409   -0.294748
     41          8           0       -3.907391   -5.838717   -0.340324
     42          6           0       -2.890693   -3.666345   -0.100832
     43          6           0       -2.172831   -4.061951    1.132108
     44          8           0       -2.674078   -3.957218    2.204544
     45          8           0       -0.954484   -4.667627    0.872220
     46          6           0       -0.208075   -5.006242    2.077752
     47          6           0        4.181113   -2.333554   -1.141666
     48          6           0        4.884354   -1.334991   -0.248013
     49          6           0        6.166225   -1.216369    0.007556
     50          6           0        7.267516   -2.039373   -0.646282
     51          6           0        6.493780   -0.414554    1.215816
     52          6           0        6.776964    1.012636    0.952756
     53          6           0        8.255747    1.201000    0.603340
     54          6           0        8.689157    2.305449   -0.393850
     55          6           0        7.666027    3.506231   -0.603498
     56          6           0        9.009792    1.718209   -1.806564
     57          6           0       10.468440    2.270544   -2.320311
     58          6           0       11.467788    1.202790   -2.693662
     59          6           0       12.796413    1.449840   -1.935863
     60          6           0       13.886580    2.080636   -2.845502
     61          6           0       13.278549    0.144425   -1.225614
     62          6           0       12.556610   -0.074953    0.152241
     63          6           0       13.224370    0.581964    1.353711
     64          6           0       13.694493   -0.461715    2.396080
     65          6           0       12.964453   -0.252947    3.754193
     66          6           0       15.238812   -0.604479    2.595043
     67          1           0       -2.426599    3.325086    0.703111
     68          1           0       -8.885157    3.582345    0.429814
     69          1           0       -9.142291   -2.809347   -0.551585
     70          1           0       -1.051658   -1.327738    1.227697
     71          1           0       -0.773518    1.476619    0.332013
     72          1           0       -2.182041    1.243758    2.745307
     73          1           0       -0.524609    1.842196    2.568332
     74          1           0       -0.776829    0.091408    2.773229
     75          1           0       -0.151375   -0.139273   -1.448017
     76          1           0       -1.448139   -1.324378   -1.606697
     77          1           0        0.098647   -2.888319   -1.569044
     78          1           0        0.519449   -2.557528    0.065998
     79          1           0       -3.843188    6.432518    0.001407
     80          1           0       -2.889196    5.188543    0.571164
     81          1           0       -3.747731    6.100319    1.781092
     82          1           0       -6.080667    7.514642    1.567947
     83          1           0       -7.368504    8.106254    0.425220
     84          1           0       -5.989428    7.467288   -0.236599
     85          1           0      -10.532253    1.735803   -0.833651
     86          1           0      -10.817527   -0.950458    0.183081
     87          1           0      -11.225003    0.726628    1.924967
     88          1           0      -11.836055    2.127449    1.055346
     89          1           0      -10.223495    2.141598    1.804035
     90          1           0      -11.526065    0.238947   -2.015611
     91          1           0      -11.158678   -1.457939   -1.908362
     92          1           0      -10.173340    0.221631   -3.803148
     93          1           0       -9.722073   -1.356145   -3.451821
     94          1           0       -8.784307    0.116124   -2.781295
     95          1           0       -8.629484   -4.967301   -0.049381
     96          1           0       -7.229836   -5.814404    0.623632
     97          1           0       -7.379846   -5.793319   -1.059323
     98          1           0       -2.294049   -3.819665   -1.000093
     99          1           0       -0.376328   -4.292768    2.883851
    100          1           0        0.850505   -4.969521    1.818582
    101          1           0       -0.378815   -6.043595    2.367663
    102          1           0        4.518879   -2.004569   -2.124092
    103          1           0        4.736281   -3.267104   -1.052282
    104          1           0        4.209464   -0.793051    0.413975
    105          1           0        7.997575   -1.367192   -1.097703
    106          1           0        6.886444   -2.741145   -1.387599
    107          1           0        7.856544   -2.633786    0.052539
    108          1           0        7.315739   -1.009153    1.612706
    109          1           0        5.678397   -0.485231    1.936003
    110          1           0        6.355764    1.723565    1.663702
    111          1           0        6.278294    1.274245    0.019064
    112          1           0        8.790517    0.269764    0.417785
    113          1           0        8.675928    1.381164    1.592901
    114          1           0        9.616680    2.728438   -0.008989
    115          1           0        8.013483    4.373626   -0.043068
    116          1           0        6.625760    3.254131   -0.396383
    117          1           0        7.672694    3.769306   -1.660503
    118          1           0        8.287670    1.902376   -2.601252
    119          1           0        9.059103    0.629199   -1.787425
    120          1           0       10.871346    3.080890   -1.713192
    121          1           0       10.245006    2.791369   -3.251852
    122          1           0       11.618562    1.374624   -3.758991
    123          1           0       11.113753    0.190417   -2.498685
    124          1           0       12.544193    2.114922   -1.109328
    125          1           0       14.623778    2.498973   -2.160260
    126          1           0       13.517688    3.028197   -3.237721
    127          1           0       14.241254    1.474980   -3.680084
    128          1           0       14.341851    0.105194   -0.986409
    129          1           0       13.148101   -0.719596   -1.877397
    130          1           0       12.278189   -1.106168    0.370230
    131          1           0       11.602242    0.424946   -0.009965
    132          1           0       12.499055    1.251822    1.814941
    133          1           0       14.003074    1.240267    0.970403
    134          1           0       13.503677   -1.498304    2.118973
    135          1           0       13.518100   -0.711188    4.573473
    136          1           0       11.986839   -0.729753    3.686836
    137          1           0       12.936786    0.832779    3.844104
    138          1           0       15.824494    0.181420    2.116272
    139          1           0       15.623853   -1.554161    2.224372
    140          1           0       15.505472   -0.604759    3.651844
 ---------------------------------------------------------------------

 SCF Done:  E(RPBE1PBE) =  -3005.33264486     A.U. after   16 cycles

 Excitation energies and oscillator strengths:

 Excited State   1:      Singlet-A      1.8383 eV  674.44 nm  f=0.3844  <S**2>=0.000
     245 -> 248       -0.16516
     246 -> 247        0.69650
     246 <- 247       -0.11345
 This state for optimization and/or second-order correction.
 Total Energy, E(TD-HF/TD-DFT) =  -3005.26508764
 Copying the excited state density for this state as the 1-particle RhoCI density.

 Excited State   2:      Singlet-A      2.2019 eV  563.08 nm  f=0.1185  <S**2>=0.000
     245 -> 247        0.65827
     246 -> 248        0.24819

 Excited State   3:      Singlet-A      2.8901 eV  429.00 nm  f=0.0015  <S**2>=0.000
     242 -> 247       -0.14429
     243 -> 247        0.67655

 Excited State   4:      Singlet-A      3.0531 eV  406.10 nm  f=0.0024  <S**2>=0.000
     241 -> 247       -0.15383
     242 -> 247        0.66307
     243 -> 247        0.14867

 Excited State   5:      Singlet-A      3.1851 eV  389.27 nm  f=0.0006  <S**2>=0.000
     240 -> 247        0.16141
     241 -> 247        0.63157
     242 -> 247        0.13690
     246 -> 248       -0.18335

 The electronic state is 1-A.
 Alpha  occ. eigenvalues --  -46.92919 -19.26923 -19.25686 -19.20409 -19.20123
 Alpha  occ. eigenvalues --  -19.20021 -19.18812 -14.42491 -14.41699 -14.39297
 Alpha  occ. eigenvalues --  -14.38172 -10.37103 -10.35964 -10.33050 -10.31318
 Alpha  occ. eigenvalues --  -10.29643 -10.29319 -10.29189 -10.29041 -10.28672
 Alpha  occ. eigenvalues --  -10.28601 -10.28499 -10.27780 -10.27553 -10.26746
 Alpha  occ. eigenvalues --  -10.26591 -10.26258 -10.26020 -10.26011 -10.25620
 Alpha  occ. eigenvalues --  -10.25616 -10.25382 -10.25365 -10.25237 -10.25223
 Alpha  occ. eigenvalues --  -10.24793 -10.24778 -10.24698 -10.24297 -10.23821
 Alpha  occ. eigenvalues --  -10.23792 -10.23726 -10.23675 -10.23612 -10.23570
 Alpha  occ. eigenvalues --  -10.23401 -10.23396 -10.23338 -10.23124 -10.22762
 Alpha  occ. eigenvalues --  -10.22688 -10.22424 -10.22360 -10.22331 -10.22304
 Alpha  occ. eigenvalues --  -10.22192 -10.22177 -10.22137 -10.22124 -10.22122
 Alpha  occ. eigenvalues --  -10.22113 -10.22060 -10.22048 -10.21909 -10.21909
 Alpha  occ. eigenvalues --  -10.21597  -3.14890  -1.87742  -1.87231  -1.87130
 Alpha  occ. eigenvalues --   -1.11714  -1.11002  -1.05857  -1.05668  -1.03774
 Alpha  occ. eigenvalues --   -1.02499  -0.99745  -0.98486  -0.97894  -0.95982
 Alpha  occ. eigenvalues --   -0.85948  -0.85710  -0.83840  -0.83704  -0.83363
 Alpha  occ. eigenvalues --   -0.82439  -0.82363  -0.81504  -0.81443  -0.81211
 Alpha  occ. eigenvalues --   -0.81027  -0.79897  -0.78717  -0.77899  -0.77452
 Alpha  occ. eigenvalues --   -0.76695  -0.76129  -0.75486  -0.75058  -0.74694
 Alpha  occ. eigenvalues --   -0.73860  -0.73040  -0.72441  -0.71565  -0.70825
 Alpha  occ. eigenvalues --   -0.70471  -0.69471  -0.69124  -0.68897  -0.68358
 Alpha  occ. eigenvalues --   -0.67774  -0.67413  -0.65954  -0.65089  -0.63515
 Alpha  occ. eigenvalues --   -0.63015  -0.62605  -0.61867  -0.61382  -0.60350
 Alpha  occ. eigenvalues --   -0.59596  -0.59562  -0.59147  -0.58191  -0.58148
 Alpha  occ. eigenvalues --   -0.58024  -0.57206  -0.56522  -0.56494  -0.55291
 Alpha  occ. eigenvalues --   -0.54537  -0.54359  -0.54161  -0.53517  -0.53072
 Alpha  occ. eigenvalues --   -0.51803  -0.51657  -0.50804  -0.50282  -0.50103
 Alpha  occ. eigenvalues --   -0.49813  -0.49268  -0.49190  -0.49054  -0.48855
 Alpha  occ. eigenvalues --   -0.48217  -0.47820  -0.47745  -0.47646  -0.47490
 Alpha  occ. eigenvalues --   -0.47271  -0.47139  -0.46773  -0.46511  -0.46243
 Alpha  occ. eigenvalues --   -0.45916  -0.45659  -0.45541  -0.45390  -0.45176
 Alpha  occ. eigenvalues --   -0.45097  -0.44796  -0.44696  -0.44538  -0.44167
 Alpha  occ. eigenvalues --   -0.44052  -0.43962  -0.43753  -0.43634  -0.43297
 Alpha  occ. eigenvalues --   -0.43126  -0.42926  -0.42855  -0.42693  -0.42414
 Alpha  occ. eigenvalues --   -0.42175  -0.42089  -0.41900  -0.41672  -0.41446
 Alpha  occ. eigenvalues --   -0.41320  -0.41150  -0.40889  -0.40515  -0.40192
 Alpha  occ. eigenvalues --   -0.40142  -0.39976  -0.39824  -0.39657  -0.39387
 Alpha  occ. eigenvalues --   -0.39218  -0.39091  -0.38946  -0.38933  -0.38685
 Alpha  occ. eigenvalues --   -0.38583  -0.38537  -0.38261  -0.38046  -0.37843
 Alpha  occ. eigenvalues --   -0.37666  -0.37491  -0.37250  -0.37100  -0.37013
 Alpha  occ. eigenvalues --   -0.36972  -0.36820  -0.36681  -0.36358  -0.36146
 Alpha  occ. eigenvalues --   -0.35944  -0.35763  -0.35267  -0.34963  -0.34852
 Alpha  occ. eigenvalues --   -0.34432  -0.34400  -0.34308  -0.33926  -0.33618
 Alpha  occ. eigenvalues --   -0.33323  -0.32834  -0.32697  -0.32193  -0.32040
 Alpha  occ. eigenvalues --   -0.32035  -0.31802  -0.31754  -0.31366  -0.31022
 Alpha  occ. eigenvalues --   -0.30813  -0.29904  -0.29599  -0.29552  -0.29404
 Alpha  occ. eigenvalues --   -0.29209  -0.29035  -0.28890  -0.27028  -0.26630
 Alpha  occ. eigenvalues --   -0.26034  -0.25612  -0.25030  -0.24660  -0.21141
 Alpha  occ. eigenvalues --   -0.18942
 Alpha virt. eigenvalues --   -0.11474  -0.05058  -0.03993  -0.01880  -0.00450
 Alpha virt. eigenvalues --   -0.00015   0.01071   0.01162   0.01904   0.02822
 Alpha virt. eigenvalues --    0.04095   0.04456   0.04505   0.05195   0.05290

 Mulliken charges:
               1
     1  Mg   0.953906
     2  C    0.017201
     3  C   -0.074232
     4  C   -0.055745
     5  C   -0.055437
     6  N   -0.376763
     7  C   -0.006000
     8  C   -0.086965
     9  C   -0.140455
    10  C    0.079273
    11  C    0.023136
    12  C    0.055198
    13  C   -0.066332
    14  C    0.230348
    15  O   -0.273525
    16  O   -0.356003
    17  N   -0.482974
    18  C    0.183964
    19  C   -0.178305
    20  C   -0.044963
    21  C    0.140184
    22  C    0.039739
    23  C    0.060727
    24  O   -0.220034
    25  C   -0.030276
    26  N   -0.490901
    27  C    0.115518
    28  C   -0.102804
    29  C   -0.101585
    30  C    0.124543
    31  C   -0.001311
    32  C   -0.062788
    33  C   -0.048301
    34  N   -0.378169
    35  C    0.083341
    36  C   -0.167753
    37  C   -0.087841
    38  C    0.118651
    39  C    0.087890
    40  C    0.122055
    41  O   -0.189230
    42  C   -0.085439
    43  C    0.260282
    44  O   -0.218297
    45  O   -0.370740
    46  C    0.114201
    47  C    0.247191
    48  C   -0.128835
    49  C   -0.226247
    50  C    0.018948
    51  C    0.024385
    52  C   -0.009535
    53  C   -0.035618
    54  C   -0.172857
    55  C   -0.012598
    56  C   -0.028284
    57  C   -0.086141
    58  C    0.038032
    59  C   -0.238846
    60  C    0.010586
    61  C   -0.007756
    62  C   -0.079208
    63  C    0.031480
    64  C   -0.246633
    65  C   -0.023335
    66  C   -0.027085
    67  H    0.006088
    68  H    0.025844
    69  H    0.005072
    70  H    0.060929
    71  H    0.047380
    72  H    0.054481
    73  H    0.043986
    74  H    0.047754
    75  H    0.062269
    76  H    0.053561
    77  H    0.080720
    78  H    0.056255
    79  H    0.053629
    80  H    0.027448
    81  H    0.064376
    82  H    0.071997
    83  H    0.049351
    84  H    0.055812
    85  H    0.049305
    86  H    0.040369
    87  H    0.043935
    88  H    0.046750
    89  H    0.038215
    90  H    0.039965
    91  H    0.027106
    92  H    0.025529
    93  H    0.039758
    94  H    0.062145
    95  H    0.038834
    96  H    0.059181
    97  H    0.056478
    98  H    0.064497
    99  H    0.062368
   100  H    0.051032
   101  H    0.066383
   102  H    0.068723
   103  H    0.047000
   104  H    0.015594
   105  H    0.048900
   106  H    0.027746
   107  H    0.044574
   108  H    0.019319
   109  H    0.022476
   110  H    0.033371
   111  H    0.035376
   112  H    0.018680
   113  H    0.015302
   114  H    0.034244
   115  H    0.037179
   116  H    0.041511
   117  H    0.031305
   118  H    0.033753
   119  H    0.021557
   120  H    0.033902
   121  H    0.018423
   122  H    0.026703
   123  H    0.030712
   124  H    0.030337
   125  H    0.028528
   126  H    0.016951
   127  H    0.052951
   128  H    0.018030
   129  H    0.020407
   130  H    0.024964
   131  H    0.028150
   132  H    0.022591
   133  H    0.027939
   134  H    0.037547
   135  H    0.033637
   136  H    0.040543
   137  H    0.042691
   138  H    0.029940
   139  H    0.032743
   140  H    0.022269
 Sum of Mulliken charges =  -0.00000

 Dipole moment (field-independent basis, Debye):
    X=              2.7124    Y=              3.0417    Z=              0.2978  Tot=              4.0863
 Quadrupole moment (field-independent basis, Debye-Ang):
   XX=           -382.1586   YY=           -410.9352   ZZ=           -408.1132
   XY=              0.1684   XZ=             15.1836   YZ=              1.2382

 Normal termination of Gaussian 16 at Wed Apr 27 02:21:33 2022.
