 Gaussian 16, Revision A.03,
 Gaussian 16:  ES64L-G16RevA.03 25-Dec-2016

 --------------------------------
 #p wB97XD/Def2SVP td=(nstates=5)
 --------------------------------

 -----------------------------------------------------
 step_1051_chromophore_13 TDDFT with wB97XD functional
 -----------------------------------------------------
 Symbolic Z-matrix:
 Charge =  0 Multiplicity = 1

                         Standard orientation:
 ---------------------------------------------------------------------
 Center     Atomic      Atomic             Coordinates (Angstroms)
 Number     Number       Type             X           Y           Z
 ---------------------------------------------------------------------
      1         12           0       -5.859236    0.474980   -0.204719
      2          6           0       -3.470011   -2.205207   -0.055690
      3          6           0       -3.254375    2.643135    0.498607
      4          6           0       -8.072639    2.863184    0.309023
      5          6           0       -8.343834   -2.081763   -0.392808
      6          7           0       -3.613835    0.195428   -0.007434
      7          6           0       -2.860970   -0.946304    0.179414
      8          6           0       -1.430667   -0.681185    0.435755
      9          6           0       -1.464478    0.805198    0.841611
     10          6           0       -2.856955    1.280661    0.388238
     11          6           0       -1.192338    1.007598    2.355012
     12          6           0       -0.672731   -0.949803   -0.939087
     13          6           0        0.426175   -2.083745   -0.911309
     14          6           0        1.859221   -1.805601   -1.405213
     15          8           0        2.132934   -1.028724   -2.326959
     16          8           0        2.802862   -2.561713   -0.722783
     17          7           0       -5.740898    2.570208    0.257642
     18          6           0       -4.548860    3.207440    0.491663
     19          6           0       -4.959729    4.651410    0.641204
     20          6           0       -6.374197    4.767470    0.500616
     21          6           0       -6.799991    3.426356    0.363548
     22          6           0       -3.842714    5.672098    0.783265
     23          6           0       -7.289477    5.972791    0.580576
     24          8           0       -8.501031    5.890104    0.500442
     25          6           0       -6.624541    7.339023    0.639682
     26          7           0       -7.859140    0.426103   -0.022515
     27          6           0       -8.566752    1.576606    0.105140
     28          6           0      -10.070010    1.205715   -0.000610
     29          6           0      -10.145812   -0.348087   -0.427675
     30          6           0       -8.659692   -0.738047   -0.312931
     31          6           0      -10.941874    1.535413    1.250751
     32          6           0      -10.712455   -0.465701   -1.845304
     33          6           0       -9.738134   -0.366485   -2.996008
     34          7           0       -5.987352   -1.738394   -0.258807
     35          6           0       -7.034972   -2.600148   -0.277266
     36          6           0       -6.666911   -3.958695   -0.259836
     37          6           0       -5.277546   -3.845119   -0.271782
     38          6           0       -4.912516   -2.466054   -0.232414
     39          6           0       -7.567233   -5.168154   -0.186784
     40          6           0       -4.044257   -4.650409   -0.294748
     41          8           0       -3.907391   -5.838717   -0.340324
     42          6           0       -2.890693   -3.666345   -0.100832
     43          6           0       -2.172831   -4.061951    1.132108
     44          8           0       -2.674078   -3.957218    2.204544
     45          8           0       -0.954484   -4.667627    0.872220
     46          6           0       -0.208075   -5.006242    2.077752
     47          6           0        4.181113   -2.333554   -1.141666
     48          6           0        4.884354   -1.334991   -0.248013
     49          6           0        6.166225   -1.216369    0.007556
     50          6           0        7.267516   -2.039373   -0.646282
     51          6           0        6.493780   -0.414554    1.215816
     52          6           0        6.776964    1.012636    0.952756
     53          6           0        8.255747    1.201000    0.603340
     54          6           0        8.689157    2.305449   -0.393850
     55          6           0        7.666027    3.506231   -0.603498
     56          6           0        9.009792    1.718209   -1.806564
     57          6           0       10.468440    2.270544   -2.320311
     58          6           0       11.467788    1.202790   -2.693662
     59          6           0       12.796413    1.449840   -1.935863
     60          6           0       13.886580    2.080636   -2.845502
     61          6           0       13.278549    0.144425   -1.225614
     62          6           0       12.556610   -0.074953    0.152241
     63          6           0       13.224370    0.581964    1.353711
     64          6           0       13.694493   -0.461715    2.396080
     65          6           0       12.964453   -0.252947    3.754193
     66          6           0       15.238812   -0.604479    2.595043
     67          1           0       -2.426599    3.325086    0.703111
     68          1           0       -8.885157    3.582345    0.429814
     69          1           0       -9.142291   -2.809347   -0.551585
     70          1           0       -1.051658   -1.327738    1.227697
     71          1           0       -0.773518    1.476619    0.332013
     72          1           0       -2.182041    1.243758    2.745307
     73          1           0       -0.524609    1.842196    2.568332
     74          1           0       -0.776829    0.091408    2.773229
     75          1           0       -0.151375   -0.139273   -1.448017
     76          1           0       -1.448139   -1.324378   -1.606697
     77          1           0        0.098647   -2.888319   -1.569044
     78          1           0        0.519449   -2.557528    0.065998
     79          1           0       -3.843188    6.432518    0.001407
     80          1           0       -2.889196    5.188543    0.571164
     81          1           0       -3.747731    6.100319    1.781092
     82          1           0       -6.080667    7.514642    1.567947
     83          1           0       -7.368504    8.106254    0.425220
     84          1           0       -5.989428    7.467288   -0.236599
     85          1           0      -10.532253    1.735803   -0.833651
     86          1           0      -10.817527   -0.950458    0.183081
     87          1           0      -11.225003    0.726628    1.924967
     88          1           0      -11.836055    2.127449    1.055346
     89          1           0      -10.223495    2.141598    1.804035
     90          1           0      -11.526065    0.238947   -2.015611
     91          1           0      -11.158678   -1.457939   -1.908362
     92          1           0      -10.173340    0.221631   -3.803148
     93          1           0       -9.722073   -1.356145   -3.451821
     94          1           0       -8.784307    0.116124   -2.781295
     95          1           0       -8.629484   -4.967301   -0.049381
     96          1           0       -7.229836   -5.814404    0.623632
     97          1           0       -7.379846   -5.793319   -1.059323
     98          1           0       -2.294049   -3.819665   -1.000093
     99          1           0       -0.376328   -4.292768    2.883851
    100          1           0        0.850505   -4.969521    1.818582
    101          1           0       -0.378815   -6.043595    2.367663
    102          1           0        4.518879   -2.004569   -2.124092
    103          1           0        4.736281   -3.267104   -1.052282
    104          1           0        4.209464   -0.793051    0.413975
    105          1           0        7.997575   -1.367192   -1.097703
    106          1           0        6.886444   -2.741145   -1.387599
    107          1           0        7.856544   -2.633786    0.052539
    108          1           0        7.315739   -1.009153    1.612706
    109          1           0        5.678397   -0.485231    1.936003
    110          1           0        6.355764    1.723565    1.663702
    111          1           0        6.278294    1.274245    0.019064
    112          1           0        8.790517    0.269764    0.417785
    113          1           0        8.675928    1.381164    1.592901
    114          1           0        9.616680    2.728438   -0.008989
    115          1           0        8.013483    4.373626   -0.043068
    116          1           0        6.625760    3.254131   -0.396383
    117          1           0        7.672694    3.769306   -1.660503
    118          1           0        8.287670    1.902376   -2.601252
    119          1           0        9.059103    0.629199   -1.787425
    120          1           0       10.871346    3.080890   -1.713192
    121          1           0       10.245006    2.791369   -3.251852
    122          1           0       11.618562    1.374624   -3.758991
    123          1           0       11.113753    0.190417   -2.498685
    124          1           0       12.544193    2.114922   -1.109328
    125          1           0       14.623778    2.498973   -2.160260
    126          1           0       13.517688    3.028197   -3.237721
    127          1           0       14.241254    1.474980   -3.680084
    128          1           0       14.341851    0.105194   -0.986409
    129          1           0       13.148101   -0.719596   -1.877397
    130          1           0       12.278189   -1.106168    0.370230
    131          1           0       11.602242    0.424946   -0.009965
    132          1           0       12.499055    1.251822    1.814941
    133          1           0       14.003074    1.240267    0.970403
    134          1           0       13.503677   -1.498304    2.118973
    135          1           0       13.518100   -0.711188    4.573473
    136          1           0       11.986839   -0.729753    3.686836
    137          1           0       12.936786    0.832779    3.844104
    138          1           0       15.824494    0.181420    2.116272
    139          1           0       15.623853   -1.554161    2.224372
    140          1           0       15.505472   -0.604759    3.651844
 ---------------------------------------------------------------------

 SCF Done:  E(RwB97XD) =  -3007.84442520     A.U. after   19 cycles

 Excitation energies and oscillator strengths:

 Excited State   1:      Singlet-A      1.6564 eV  748.52 nm  f=0.3955  <S**2>=0.000
     245 -> 248        0.17172
     246 -> 247        0.68715
     245 <- 248        0.11270
 This state for optimization and/or second-order correction.
 Total Energy, E(TD-HF/TD-DFT) =  -3007.78355410
 Copying the excited state density for this state as the 1-particle RhoCI density.

 Excited State   2:      Singlet-A      2.1419 eV  578.86 nm  f=0.1219  <S**2>=0.000
     245 -> 247        0.64610
     246 -> 248       -0.27095

 Excited State   3:      Singlet-A      3.3700 eV  367.91 nm  f=0.0178  <S**2>=0.000
     240 -> 247       -0.11069
     241 -> 247       -0.40822
     244 -> 247        0.52640
     246 -> 248       -0.12152

 Excited State   4:      Singlet-A      3.4839 eV  355.88 nm  f=0.1046  <S**2>=0.000
     240 -> 247        0.17336
     241 -> 247        0.35124
     244 -> 247        0.38635
     246 -> 248        0.39821

 Excited State   5:      Singlet-A      3.6640 eV  338.39 nm  f=0.0509  <S**2>=0.000
     241 -> 247        0.12403
     242 -> 247        0.56314
     242 -> 249        0.19614
     242 -> 250       -0.23925
     246 -> 248       -0.16700

 The electronic state is 1-A.
 Alpha  occ. eigenvalues --  -46.95865 -19.31451 -19.30163 -19.25150 -19.25054
 Alpha  occ. eigenvalues --  -19.24724 -19.23307 -14.47596 -14.46785 -14.44409
 Alpha  occ. eigenvalues --  -14.42909 -10.43854 -10.42685 -10.40197 -10.37874
 Alpha  occ. eigenvalues --  -10.36231 -10.35772 -10.35625 -10.35488 -10.35232
 Alpha  occ. eigenvalues --  -10.35031 -10.34568 -10.34537 -10.34394 -10.32916
 Alpha  occ. eigenvalues --  -10.32792 -10.32333 -10.32166 -10.32161 -10.32082
 Alpha  occ. eigenvalues --  -10.31854 -10.31779 -10.31749 -10.31629 -10.31527
 Alpha  occ. eigenvalues --  -10.31479 -10.30900 -10.30738 -10.30535 -10.30413
 Alpha  occ. eigenvalues --  -10.30270 -10.30253 -10.30122 -10.30103 -10.29752
 Alpha  occ. eigenvalues --  -10.29708 -10.29674 -10.29603 -10.29323 -10.29117
 Alpha  occ. eigenvalues --  -10.29099 -10.28796 -10.28721 -10.28703 -10.28646
 Alpha  occ. eigenvalues --  -10.28555 -10.28552 -10.28550 -10.28529 -10.28482
 Alpha  occ. eigenvalues --  -10.28478 -10.28399 -10.28331 -10.28265 -10.28011
 Alpha  occ. eigenvalues --  -10.27985  -3.21721  -1.95318  -1.94804  -1.94702
 Alpha  occ. eigenvalues --   -1.19001  -1.18355  -1.13641  -1.12833  -1.11024
 Alpha  occ. eigenvalues --   -1.09820  -1.06756  -1.05980  -1.05460  -1.03429
 Alpha  occ. eigenvalues --   -0.93411  -0.93350  -0.91506  -0.91284  -0.90983
 Alpha  occ. eigenvalues --   -0.90099  -0.90024  -0.89402  -0.89148  -0.88787
 Alpha  occ. eigenvalues --   -0.88443  -0.87507  -0.86357  -0.85504  -0.85042
 Alpha  occ. eigenvalues --   -0.84351  -0.84048  -0.83196  -0.82626  -0.82368
 Alpha  occ. eigenvalues --   -0.81535  -0.80866  -0.79946  -0.79083  -0.78469
 Alpha  occ. eigenvalues --   -0.77982  -0.77165  -0.76702  -0.76579  -0.76025
 Alpha  occ. eigenvalues --   -0.75352  -0.74924  -0.73525  -0.72672  -0.71039
 Alpha  occ. eigenvalues --   -0.70625  -0.70200  -0.69520  -0.69025  -0.67909
 Alpha  occ. eigenvalues --   -0.67252  -0.66971  -0.66508  -0.65748  -0.65621
 Alpha  occ. eigenvalues --   -0.65503  -0.64842  -0.64137  -0.63797  -0.62991
 Alpha  occ. eigenvalues --   -0.62048  -0.61774  -0.61477  -0.60829  -0.60431
 Alpha  occ. eigenvalues --   -0.59239  -0.59097  -0.58151  -0.57720  -0.57561
 Alpha  occ. eigenvalues --   -0.57201  -0.56653  -0.56541  -0.56422  -0.56136
 Alpha  occ. eigenvalues --   -0.55657  -0.55406  -0.55226  -0.55206  -0.54926
 Alpha  occ. eigenvalues --   -0.54800  -0.54397  -0.54142  -0.53799  -0.53597
 Alpha  occ. eigenvalues --   -0.53268  -0.53029  -0.52911  -0.52843  -0.52625
 Alpha  occ. eigenvalues --   -0.52254  -0.52213  -0.52092  -0.51858  -0.51428
 Alpha  occ. eigenvalues --   -0.51371  -0.51140  -0.50967  -0.50880  -0.50579
 Alpha  occ. eigenvalues --   -0.50549  -0.50258  -0.50196  -0.49975  -0.49729
 Alpha  occ. eigenvalues --   -0.49522  -0.49401  -0.49196  -0.48898  -0.48655
 Alpha  occ. eigenvalues --   -0.48481  -0.48388  -0.47968  -0.47580  -0.47473
 Alpha  occ. eigenvalues --   -0.47224  -0.47122  -0.47010  -0.46798  -0.46429
 Alpha  occ. eigenvalues --   -0.46365  -0.46250  -0.46127  -0.46035  -0.45879
 Alpha  occ. eigenvalues --   -0.45795  -0.45676  -0.45498  -0.45224  -0.45182
 Alpha  occ. eigenvalues --   -0.44822  -0.44657  -0.44347  -0.44193  -0.44128
 Alpha  occ. eigenvalues --   -0.44038  -0.43874  -0.43669  -0.43372  -0.43247
 Alpha  occ. eigenvalues --   -0.42960  -0.42803  -0.42286  -0.42037  -0.41920
 Alpha  occ. eigenvalues --   -0.41451  -0.41394  -0.41312  -0.40907  -0.40631
 Alpha  occ. eigenvalues --   -0.40361  -0.39858  -0.39654  -0.39156  -0.39076
 Alpha  occ. eigenvalues --   -0.39033  -0.38816  -0.38769  -0.38371  -0.37868
 Alpha  occ. eigenvalues --   -0.37799  -0.36875  -0.36584  -0.36543  -0.36211
 Alpha  occ. eigenvalues --   -0.36092  -0.36085  -0.35532  -0.34119  -0.33656
 Alpha  occ. eigenvalues --   -0.32776  -0.32245  -0.31429  -0.31389  -0.26194
 Alpha  occ. eigenvalues --   -0.23120
 Alpha virt. eigenvalues --   -0.07373   0.00401   0.02199   0.04771   0.05532
 Alpha virt. eigenvalues --    0.06867   0.07779   0.08069   0.08636   0.09044
 Alpha virt. eigenvalues --    0.10656   0.11099   0.11331   0.11831   0.12033

 Mulliken charges:
               1
     1  Mg   0.944587
     2  C    0.011334
     3  C   -0.091841
     4  C   -0.074584
     5  C   -0.075730
     6  N   -0.346668
     7  C   -0.030624
     8  C   -0.058594
     9  C   -0.117974
    10  C    0.069235
    11  C    0.032655
    12  C    0.066185
    13  C   -0.047547
    14  C    0.220201
    15  O   -0.271471
    16  O   -0.354985
    17  N   -0.452529
    18  C    0.176791
    19  C   -0.163901
    20  C   -0.038836
    21  C    0.135784
    22  C    0.050017
    23  C    0.056585
    24  O   -0.212036
    25  C   -0.020692
    26  N   -0.458740
    27  C    0.109754
    28  C   -0.081292
    29  C   -0.076991
    30  C    0.113997
    31  C    0.011047
    32  C   -0.050241
    33  C   -0.028969
    34  N   -0.335599
    35  C    0.075416
    36  C   -0.169815
    37  C   -0.080119
    38  C    0.093161
    39  C    0.098936
    40  C    0.100577
    41  O   -0.181776
    42  C   -0.045546
    43  C    0.235244
    44  O   -0.213530
    45  O   -0.367994
    46  C    0.129333
    47  C    0.263666
    48  C   -0.142562
    49  C   -0.213376
    50  C    0.039066
    51  C    0.047700
    52  C    0.013862
    53  C   -0.022664
    54  C   -0.142751
    55  C    0.000244
    56  C   -0.004800
    57  C   -0.070191
    58  C    0.048591
    59  C   -0.201307
    60  C    0.024105
    61  C    0.003887
    62  C   -0.047811
    63  C    0.042894
    64  C   -0.219347
    65  C   -0.006569
    66  C   -0.016001
    67  H   -0.000328
    68  H    0.020730
    69  H   -0.000721
    70  H    0.046358
    71  H    0.038514
    72  H    0.046730
    73  H    0.039474
    74  H    0.043676
    75  H    0.055499
    76  H    0.042941
    77  H    0.074636
    78  H    0.044505
    79  H    0.050154
    80  H    0.024146
    81  H    0.062437
    82  H    0.068841
    83  H    0.049104
    84  H    0.050233
    85  H    0.038079
    86  H    0.031733
    87  H    0.039908
    88  H    0.042498
    89  H    0.028276
    90  H    0.030710
    91  H    0.019535
    92  H    0.019421
    93  H    0.034459
    94  H    0.050733
    95  H    0.032699
    96  H    0.053003
    97  H    0.050222
    98  H    0.055757
    99  H    0.057817
   100  H    0.047200
   101  H    0.062731
   102  H    0.063857
   103  H    0.041030
   104  H    0.010983
   105  H    0.037285
   106  H    0.022692
   107  H    0.039821
   108  H    0.008842
   109  H    0.016026
   110  H    0.028318
   111  H    0.017553
   112  H    0.004076
   113  H    0.006679
   114  H    0.021752
   115  H    0.032365
   116  H    0.035319
   117  H    0.023933
   118  H    0.026567
   119  H    0.000870
   120  H    0.023920
   121  H    0.010725
   122  H    0.019069
   123  H    0.021865
   124  H    0.011982
   125  H    0.021853
   126  H    0.009626
   127  H    0.048372
   128  H    0.007823
   129  H    0.012656
   130  H    0.017107
   131  H    0.004788
   132  H    0.014239
   133  H    0.018028
   134  H    0.025774
   135  H    0.027574
   136  H    0.034424
   137  H    0.034836
   138  H    0.023717
   139  H    0.027372
   140  H    0.015725
 Sum of Mulliken charges =  -0.00000

 Dipole moment (field-independent basis, Debye):
    X=              2.7980    Y=              4.0551    Z=              0.4332  Tot=              4.9457
 Quadrupole moment (field-independent basis, Debye-Ang):
   XX=           -383.5953   YY=           -408.4153   ZZ=           -407.6910
   XY=             -5.9660   XZ=             14.6167   YZ=              1.6370

 Normal termination of Gaussian 16 at Wed Apr 27 02:47:19 2022.
