 Gaussian 16, Revision A.03,
 Gaussian 16:  ES64L-G16RevA.03 25-Dec-2016

 --------------------
 #p ZINDO=(nstates=5)
 --------------------

 ------------------------------
 step_1051_chromophore_13 ZINDO
 ------------------------------
 Symbolic Z-matrix:
 Charge =  0 Multiplicity = 1

                         Standard orientation:
 ---------------------------------------------------------------------
 Center     Atomic      Atomic             Coordinates (Angstroms)
 Number     Number       Type             X           Y           Z
 ---------------------------------------------------------------------
      1         12           0       -5.859236    0.474980   -0.204719
      2          6           0       -3.470011   -2.205207   -0.055690
      3          6           0       -3.254375    2.643135    0.498607
      4          6           0       -8.072639    2.863184    0.309023
      5          6           0       -8.343834   -2.081763   -0.392808
      6          7           0       -3.613835    0.195428   -0.007434
      7          6           0       -2.860970   -0.946304    0.179414
      8          6           0       -1.430667   -0.681185    0.435755
      9          6           0       -1.464478    0.805198    0.841611
     10          6           0       -2.856955    1.280661    0.388238
     11          6           0       -1.192338    1.007598    2.355012
     12          6           0       -0.672731   -0.949803   -0.939087
     13          6           0        0.426175   -2.083745   -0.911309
     14          6           0        1.859221   -1.805601   -1.405213
     15          8           0        2.132934   -1.028724   -2.326959
     16          8           0        2.802862   -2.561713   -0.722783
     17          7           0       -5.740898    2.570208    0.257642
     18          6           0       -4.548860    3.207440    0.491663
     19          6           0       -4.959729    4.651410    0.641204
     20          6           0       -6.374197    4.767470    0.500616
     21          6           0       -6.799991    3.426356    0.363548
     22          6           0       -3.842714    5.672098    0.783265
     23          6           0       -7.289477    5.972791    0.580576
     24          8           0       -8.501031    5.890104    0.500442
     25          6           0       -6.624541    7.339023    0.639682
     26          7           0       -7.859140    0.426103   -0.022515
     27          6           0       -8.566752    1.576606    0.105140
     28          6           0      -10.070010    1.205715   -0.000610
     29          6           0      -10.145812   -0.348087   -0.427675
     30          6           0       -8.659692   -0.738047   -0.312931
     31          6           0      -10.941874    1.535413    1.250751
     32          6           0      -10.712455   -0.465701   -1.845304
     33          6           0       -9.738134   -0.366485   -2.996008
     34          7           0       -5.987352   -1.738394   -0.258807
     35          6           0       -7.034972   -2.600148   -0.277266
     36          6           0       -6.666911   -3.958695   -0.259836
     37          6           0       -5.277546   -3.845119   -0.271782
     38          6           0       -4.912516   -2.466054   -0.232414
     39          6           0       -7.567233   -5.168154   -0.186784
     40          6           0       -4.044257   -4.650409   -0.294748
     41          8           0       -3.907391   -5.838717   -0.340324
     42          6           0       -2.890693   -3.666345   -0.100832
     43          6           0       -2.172831   -4.061951    1.132108
     44          8           0       -2.674078   -3.957218    2.204544
     45          8           0       -0.954484   -4.667627    0.872220
     46          6           0       -0.208075   -5.006242    2.077752
     47          6           0        4.181113   -2.333554   -1.141666
     48          6           0        4.884354   -1.334991   -0.248013
     49          6           0        6.166225   -1.216369    0.007556
     50          6           0        7.267516   -2.039373   -0.646282
     51          6           0        6.493780   -0.414554    1.215816
     52          6           0        6.776964    1.012636    0.952756
     53          6           0        8.255747    1.201000    0.603340
     54          6           0        8.689157    2.305449   -0.393850
     55          6           0        7.666027    3.506231   -0.603498
     56          6           0        9.009792    1.718209   -1.806564
     57          6           0       10.468440    2.270544   -2.320311
     58          6           0       11.467788    1.202790   -2.693662
     59          6           0       12.796413    1.449840   -1.935863
     60          6           0       13.886580    2.080636   -2.845502
     61          6           0       13.278549    0.144425   -1.225614
     62          6           0       12.556610   -0.074953    0.152241
     63          6           0       13.224370    0.581964    1.353711
     64          6           0       13.694493   -0.461715    2.396080
     65          6           0       12.964453   -0.252947    3.754193
     66          6           0       15.238812   -0.604479    2.595043
     67          1           0       -2.426599    3.325086    0.703111
     68          1           0       -8.885157    3.582345    0.429814
     69          1           0       -9.142291   -2.809347   -0.551585
     70          1           0       -1.051658   -1.327738    1.227697
     71          1           0       -0.773518    1.476619    0.332013
     72          1           0       -2.182041    1.243758    2.745307
     73          1           0       -0.524609    1.842196    2.568332
     74          1           0       -0.776829    0.091408    2.773229
     75          1           0       -0.151375   -0.139273   -1.448017
     76          1           0       -1.448139   -1.324378   -1.606697
     77          1           0        0.098647   -2.888319   -1.569044
     78          1           0        0.519449   -2.557528    0.065998
     79          1           0       -3.843188    6.432518    0.001407
     80          1           0       -2.889196    5.188543    0.571164
     81          1           0       -3.747731    6.100319    1.781092
     82          1           0       -6.080667    7.514642    1.567947
     83          1           0       -7.368504    8.106254    0.425220
     84          1           0       -5.989428    7.467288   -0.236599
     85          1           0      -10.532253    1.735803   -0.833651
     86          1           0      -10.817527   -0.950458    0.183081
     87          1           0      -11.225003    0.726628    1.924967
     88          1           0      -11.836055    2.127449    1.055346
     89          1           0      -10.223495    2.141598    1.804035
     90          1           0      -11.526065    0.238947   -2.015611
     91          1           0      -11.158678   -1.457939   -1.908362
     92          1           0      -10.173340    0.221631   -3.803148
     93          1           0       -9.722073   -1.356145   -3.451821
     94          1           0       -8.784307    0.116124   -2.781295
     95          1           0       -8.629484   -4.967301   -0.049381
     96          1           0       -7.229836   -5.814404    0.623632
     97          1           0       -7.379846   -5.793319   -1.059323
     98          1           0       -2.294049   -3.819665   -1.000093
     99          1           0       -0.376328   -4.292768    2.883851
    100          1           0        0.850505   -4.969521    1.818582
    101          1           0       -0.378815   -6.043595    2.367663
    102          1           0        4.518879   -2.004569   -2.124092
    103          1           0        4.736281   -3.267104   -1.052282
    104          1           0        4.209464   -0.793051    0.413975
    105          1           0        7.997575   -1.367192   -1.097703
    106          1           0        6.886444   -2.741145   -1.387599
    107          1           0        7.856544   -2.633786    0.052539
    108          1           0        7.315739   -1.009153    1.612706
    109          1           0        5.678397   -0.485231    1.936003
    110          1           0        6.355764    1.723565    1.663702
    111          1           0        6.278294    1.274245    0.019064
    112          1           0        8.790517    0.269764    0.417785
    113          1           0        8.675928    1.381164    1.592901
    114          1           0        9.616680    2.728438   -0.008989
    115          1           0        8.013483    4.373626   -0.043068
    116          1           0        6.625760    3.254131   -0.396383
    117          1           0        7.672694    3.769306   -1.660503
    118          1           0        8.287670    1.902376   -2.601252
    119          1           0        9.059103    0.629199   -1.787425
    120          1           0       10.871346    3.080890   -1.713192
    121          1           0       10.245006    2.791369   -3.251852
    122          1           0       11.618562    1.374624   -3.758991
    123          1           0       11.113753    0.190417   -2.498685
    124          1           0       12.544193    2.114922   -1.109328
    125          1           0       14.623778    2.498973   -2.160260
    126          1           0       13.517688    3.028197   -3.237721
    127          1           0       14.241254    1.474980   -3.680084
    128          1           0       14.341851    0.105194   -0.986409
    129          1           0       13.148101   -0.719596   -1.877397
    130          1           0       12.278189   -1.106168    0.370230
    131          1           0       11.602242    0.424946   -0.009965
    132          1           0       12.499055    1.251822    1.814941
    133          1           0       14.003074    1.240267    0.970403
    134          1           0       13.503677   -1.498304    2.118973
    135          1           0       13.518100   -0.711188    4.573473
    136          1           0       11.986839   -0.729753    3.686836
    137          1           0       12.936786    0.832779    3.844104
    138          1           0       15.824494    0.181420    2.116272
    139          1           0       15.623853   -1.554161    2.224372
    140          1           0       15.505472   -0.604759    3.651844
 ---------------------------------------------------------------------

 SCF Done:  E(RZINDO/S) =  -474.346408573     A.U. after   19 cycles

 Excitation energies and oscillator strengths:

 Excited State   1:      Singlet-A      1.2602 eV  983.82 nm  f=0.6008  <S**2>=0.000
     175 ->178         0.16369
     176 ->177         0.67126
 This state for optimization and/or second-order correction.
 Total Energy, E(CIS/TDA) =  -474.300095996
 Copying the excited state density for this state as the 1-particle RhoCI density.

 Excited State   2:      Singlet-A      1.9396 eV  639.23 nm  f=0.0565  <S**2>=0.000
     175 ->177         0.55694
     176 ->178        -0.40104

 Excited State   3:      Singlet-A      3.0031 eV  412.85 nm  f=0.7583  <S**2>=0.000
     167 ->179         0.10309
     174 ->177         0.10164
     175 ->177         0.32143
     176 ->178         0.48699
     176 ->179        -0.17409
     176 ->180         0.12240

 Excited State   4:      Singlet-A      3.0176 eV  410.88 nm  f=0.0560  <S**2>=0.000
     167 ->177         0.21067
     167 ->179        -0.35721
     167 ->184         0.10042
     167 ->185         0.14506
     168 ->177         0.20704
     168 ->179        -0.32922
     168 ->185         0.13869
     176 ->178         0.13587

 Excited State   5:      Singlet-A      3.0597 eV  405.22 nm  f=0.1119  <S**2>=0.000
     170 ->177         0.12115
     171 ->177         0.25348
     171 ->178        -0.13027
     171 ->179         0.16991
     171 ->180        -0.30753
     171 ->181         0.24699
     171 ->185        -0.17794
     171 ->188         0.14243
     171 ->205        -0.10522
     172 ->177        -0.10311
     174 ->177         0.14135
     175 ->177        -0.10866
     176 ->178        -0.15588

 The electronic state is 1-A.
 Alpha  occ. eigenvalues --   -1.84535  -1.81063  -1.79624  -1.73819  -1.71899
 Alpha  occ. eigenvalues --   -1.70961  -1.65791  -1.62501  -1.59915  -1.59367
 Alpha  occ. eigenvalues --   -1.55466  -1.50857  -1.48824  -1.48022  -1.46982
 Alpha  occ. eigenvalues --   -1.43545  -1.42150  -1.39352  -1.38721  -1.38432
 Alpha  occ. eigenvalues --   -1.35838  -1.33606  -1.33057  -1.31981  -1.28756
 Alpha  occ. eigenvalues --   -1.26900  -1.25148  -1.23263  -1.20666  -1.18563
 Alpha  occ. eigenvalues --   -1.17214  -1.16331  -1.15829  -1.15202  -1.12982
 Alpha  occ. eigenvalues --   -1.12660  -1.12012  -1.10778  -1.04928  -1.03795
 Alpha  occ. eigenvalues --   -1.03326  -1.01106  -0.99787  -0.98624  -0.96526
 Alpha  occ. eigenvalues --   -0.95321  -0.94766  -0.94191  -0.93754  -0.92787
 Alpha  occ. eigenvalues --   -0.91323  -0.89730  -0.88818  -0.87906  -0.85694
 Alpha  occ. eigenvalues --   -0.85420  -0.83640  -0.82979  -0.81749  -0.81377
 Alpha  occ. eigenvalues --   -0.80065  -0.79002  -0.76895  -0.76523  -0.76375
 Alpha  occ. eigenvalues --   -0.75843  -0.75674  -0.74976  -0.74637  -0.74004
 Alpha  occ. eigenvalues --   -0.73209  -0.72686  -0.72427  -0.71537  -0.71271
 Alpha  occ. eigenvalues --   -0.70887  -0.69806  -0.69287  -0.68570  -0.67994
 Alpha  occ. eigenvalues --   -0.67413  -0.67324  -0.66410  -0.66240  -0.65982
 Alpha  occ. eigenvalues --   -0.65712  -0.65245  -0.64514  -0.63733  -0.63456
 Alpha  occ. eigenvalues --   -0.63182  -0.62997  -0.62895  -0.62417  -0.62247
 Alpha  occ. eigenvalues --   -0.61278  -0.60926  -0.60564  -0.60266  -0.59955
 Alpha  occ. eigenvalues --   -0.59845  -0.59779  -0.59649  -0.58618  -0.58055
 Alpha  occ. eigenvalues --   -0.57674  -0.57089  -0.56804  -0.56663  -0.56288
 Alpha  occ. eigenvalues --   -0.55986  -0.55465  -0.55173  -0.54606  -0.54237
 Alpha  occ. eigenvalues --   -0.53541  -0.53248  -0.53216  -0.52937  -0.52626
 Alpha  occ. eigenvalues --   -0.52328  -0.52242  -0.52192  -0.51412  -0.51292
 Alpha  occ. eigenvalues --   -0.51145  -0.50825  -0.50654  -0.50223  -0.50032
 Alpha  occ. eigenvalues --   -0.50017  -0.49733  -0.49563  -0.49313  -0.48906
 Alpha  occ. eigenvalues --   -0.48821  -0.48458  -0.48375  -0.48226  -0.47839
 Alpha  occ. eigenvalues --   -0.47361  -0.47201  -0.47112  -0.46776  -0.46725
 Alpha  occ. eigenvalues --   -0.46227  -0.46131  -0.45833  -0.45752  -0.45478
 Alpha  occ. eigenvalues --   -0.45043  -0.44529  -0.44454  -0.43948  -0.43603
 Alpha  occ. eigenvalues --   -0.43454  -0.42742  -0.42380  -0.42130  -0.42006
 Alpha  occ. eigenvalues --   -0.41935  -0.41158  -0.40881  -0.39245  -0.38944
 Alpha  occ. eigenvalues --   -0.38027  -0.36937  -0.36469  -0.35094  -0.33986
 Alpha  occ. eigenvalues --   -0.33546  -0.32170  -0.31756  -0.31563  -0.26910
 Alpha  occ. eigenvalues --   -0.21785
 Alpha virt. eigenvalues --   -0.08685  -0.01847  -0.00718   0.01418   0.01584
 Alpha virt. eigenvalues --    0.01948   0.02861   0.03572   0.04819   0.05107
 Alpha virt. eigenvalues --    0.06021   0.06395   0.06798   0.07377   0.07996

 Mulliken charges:
               1
     1  Mg   0.431295
     2  C   -0.059947
     3  C   -0.086961
     4  C   -0.066410
     5  C   -0.048670
     6  N   -0.288385
     7  C    0.115057
     8  C    0.018133
     9  C    0.007224
    10  C    0.159535
    11  C   -0.053093
    12  C   -0.030304
    13  C   -0.003341
    14  C    0.465778
    15  O   -0.522355
    16  O   -0.255706
    17  N   -0.341208
    18  C    0.127253
    19  C    0.027097
    20  C   -0.028793
    21  C    0.164082
    22  C   -0.047829
    23  C    0.336473
    24  O   -0.502088
    25  C   -0.034006
    26  N   -0.276142
    27  C    0.178749
    28  C    0.001159
    29  C   -0.008697
    30  C    0.077471
    31  C   -0.058357
    32  C   -0.023831
    33  C   -0.055516
    34  N   -0.304653
    35  C    0.070201
    36  C    0.015921
    37  C   -0.071042
    38  C    0.099477
    39  C   -0.036481
    40  C    0.336396
    41  O   -0.521497
    42  C    0.055251
    43  C    0.494507
    44  O   -0.511001
    45  O   -0.275005
    46  C    0.075851
    47  C    0.099388
    48  C   -0.080035
    49  C   -0.011187
    50  C   -0.043982
    51  C   -0.010336
    52  C   -0.020929
    53  C   -0.036911
    54  C   -0.008369
    55  C   -0.062512
    56  C   -0.042775
    57  C   -0.048210
    58  C   -0.029220
    59  C   -0.011394
    60  C   -0.060657
    61  C   -0.037477
    62  C   -0.042476
    63  C   -0.023438
    64  C   -0.015921
    65  C   -0.059907
    66  C   -0.061199
    67  H    0.028539
    68  H    0.032906
    69  H    0.033140
    70  H    0.041550
    71  H    0.029201
    72  H    0.026963
    73  H    0.021663
    74  H    0.028703
    75  H    0.042976
    76  H    0.028575
    77  H    0.046667
    78  H    0.034894
    79  H    0.030572
    80  H    0.019924
    81  H    0.037323
    82  H    0.044201
    83  H    0.034299
    84  H    0.032955
    85  H    0.029782
    86  H    0.031392
    87  H    0.026312
    88  H    0.025489
    89  H    0.017460
    90  H    0.016685
    91  H    0.008668
    92  H    0.004431
    93  H    0.022860
    94  H    0.034954
    95  H    0.025643
    96  H    0.031721
    97  H    0.032166
    98  H    0.044191
    99  H    0.048130
   100  H    0.021240
   101  H    0.047879
   102  H    0.064643
   103  H    0.029763
   104  H    0.024736
   105  H    0.027723
   106  H    0.020962
   107  H    0.025463
   108  H    0.018694
   109  H    0.012813
   110  H    0.025909
   111  H    0.013507
   112  H    0.023556
   113  H    0.001144
   114  H    0.022536
   115  H    0.018569
   116  H    0.028035
   117  H    0.016520
   118  H    0.025095
   119  H    0.013871
   120  H    0.028765
   121  H    0.003304
   122  H    0.019219
   123  H    0.026381
   124  H    0.023871
   125  H    0.016010
   126  H    0.008514
   127  H    0.035821
   128  H    0.012431
   129  H    0.013755
   130  H    0.021103
   131  H    0.007287
   132  H    0.015690
   133  H    0.023020
   134  H    0.018907
   135  H    0.019193
   136  H    0.019771
   137  H    0.024408
   138  H    0.016424
   139  H    0.015455
   140  H    0.015036
 Sum of Mulliken charges =  -0.00000

 Dipole moment (field-independent basis, Debye):
    X=              4.8291    Y=              7.5202    Z=              1.0413  Tot=              8.9977
 N-N= 4.305034729299D+03 E-N= 0.000000000000D+00  KE=-9.284422873105D+03
 Leave Link  601 at Wed Apr 27 02:59:00 2022, MaxMem=  6710886400 cpu:               0.7 elap:               0.0
 (Enter /sw/apps/gaussian-16.0/g16/l9999.exe)
 1\1\GINC-BP1-COMPUTE140\SP\RZINDO CIS\STO-3G\C55H74Mg1N4O6\OF15641\27-
 Apr-2022\0\\#p ZINDO=(nstates=5)\\step_1051_chromophore_13 ZINDO\\0,1\
 Mg,0,46.673,24.658,28.683\C,0,47.267,26.895,31.432\C,0,45.521,22.354,3
 0.995\C,0,46.715,22.362,26.318\C,0,48.396,27.059,26.68\N,0,46.287,24.7
 59,30.919\C,0,46.724,25.66,31.869\C,0,46.392,25.272,33.255\C,0,46.086,
 23.771,33.086\C,0,45.912,23.598,31.566\C,0,47.192,22.873,33.699\C,0,45
 .122,26.139,33.67\C,0,45.317,27.1,34.908\C,0,44.345,27.054,36.103\O,0,

 Normal termination of Gaussian 16 at Wed Apr 27 02:59:00 2022.
