 Gaussian 16, Revision A.03,
 Gaussian 16:  ES64L-G16RevA.03 25-Dec-2016

 ------------------------------
 #p blyp/Def2SVP td=(nstates=5)
 ------------------------------

 ---------------------------------------------------
 step_1251_chromophore_15 TDDFT with blyp functional
 ---------------------------------------------------
 Symbolic Z-matrix:
 Charge =  0 Multiplicity = 1

                         Standard orientation:
 ---------------------------------------------------------------------
 Center     Atomic      Atomic             Coordinates (Angstroms)
 Number     Number       Type             X           Y           Z
 ---------------------------------------------------------------------
      1         12           0       -4.857677    0.876552   -0.048801
      2          6           0       -4.180238   -2.486982    0.724921
      3          6           0       -1.475780    1.458679   -0.338421
      4          6           0       -5.511089    4.272789   -0.147972
      5          6           0       -8.265799    0.342384    0.532105
      6          7           0       -3.091123   -0.445992   -0.011199
      7          6           0       -3.045957   -1.806931    0.273078
      8          6           0       -1.545924   -2.301978   -0.110838
      9          6           0       -0.779821   -1.008085   -0.008388
     10          6           0       -1.799024    0.096688   -0.058834
     11          6           0        0.008459   -0.976581    1.341783
     12          6           0       -1.510215   -2.873430   -1.609951
     13          6           0       -0.485127   -4.075650   -1.847601
     14          6           0        0.659103   -4.273579   -0.839132
     15          8           0        0.736809   -5.105124    0.039554
     16          8           0        1.652584   -3.242950   -0.989816
     17          7           0       -3.686013    2.623226   -0.176251
     18          6           0       -2.315574    2.668402   -0.279686
     19          6           0       -1.834600    4.009729   -0.462751
     20          6           0       -3.012517    4.850576   -0.410215
     21          6           0       -4.174981    3.922301   -0.215950
     22          6           0       -0.409015    4.431028   -0.773049
     23          6           0       -3.207726    6.343815   -0.622954
     24          8           0       -4.250898    6.982266   -0.356960
     25          6           0       -1.948562    7.058212   -1.093600
     26          7           0       -6.571935    2.119480    0.324926
     27          6           0       -6.634358    3.437927    0.090233
     28          6           0       -8.061803    3.996872    0.382182
     29          6           0       -8.895801    2.751199    0.425629
     30          6           0       -7.897650    1.675375    0.346372
     31          6           0       -8.271314    4.910939    1.596545
     32          6           0      -10.136311    2.603258   -0.622312
     33          6           0      -11.415845    3.374928   -0.072910
     34          7           0       -6.038935   -0.702131    0.434056
     35          6           0       -7.407933   -0.795265    0.610237
     36          6           0       -7.774580   -2.172010    0.891679
     37          6           0       -6.544160   -2.861216    0.989183
     38          6           0       -5.524427   -1.931060    0.717691
     39          6           0       -9.186044   -2.711892    1.045757
     40          6           0       -6.046684   -4.122046    1.156421
     41          8           0       -6.679802   -5.141255    1.434550
     42          6           0       -4.420539   -3.955776    1.253076
     43          6           0       -3.891199   -5.046059    0.374276
     44          8           0       -4.030155   -4.999650   -0.880310
     45          8           0       -3.092060   -5.948864    1.087514
     46          6           0       -2.410937   -6.991423    0.275576
     47          6           0        2.995491   -3.584216   -0.549911
     48          6           0        3.883097   -2.783789   -1.385725
     49          6           0        5.069084   -3.077333   -1.884143
     50          6           0        5.868762   -4.287304   -1.602103
     51          6           0        5.481833   -2.152906   -3.051309
     52          6           0        6.955069   -1.641665   -2.914025
     53          6           0        7.287729   -0.146977   -3.220757
     54          6           0        8.071780    0.620840   -2.079215
     55          6           0        8.206309    2.132707   -2.399466
     56          6           0        9.520788    0.057778   -1.990517
     57          6           0       10.364990    0.519519   -0.853545
     58          6           0       11.514244    1.478490   -1.194139
     59          6           0       11.387768    2.754344   -0.335936
     60          6           0       11.861631    4.002618   -1.132251
     61          6           0       12.186280    2.565653    0.958755
     62          6           0       11.327134    1.956220    2.115009
     63          6           0       11.930320    0.692614    2.806833
     64          6           0       11.845462    0.812290    4.349447
     65          6           0       13.064703    0.062180    5.041051
     66          6           0       10.505366    0.233972    4.903216
     67          1           0       -0.425084    1.700653   -0.517379
     68          1           0       -5.871268    5.285951    0.038260
     69          1           0       -9.330933    0.133880    0.649189
     70          1           0       -1.303686   -3.101177    0.590230
     71          1           0        0.025139   -0.755753   -0.699415
     72          1           0        0.963826   -1.477160    1.186471
     73          1           0       -0.492690   -1.389662    2.217435
     74          1           0        0.184378    0.085306    1.513659
     75          1           0       -1.349195   -2.070808   -2.329759
     76          1           0       -2.553500   -3.145626   -1.771811
     77          1           0        0.010992   -3.959809   -2.811709
     78          1           0       -1.093728   -4.970353   -1.979548
     79          1           0       -0.081707    5.210595   -0.084714
     80          1           0       -0.221325    4.637876   -1.827179
     81          1           0        0.143626    3.535994   -0.485181
     82          1           0       -1.419323    6.478933   -1.850250
     83          1           0       -1.441236    7.365404   -0.179213
     84          1           0       -2.383631    7.921805   -1.597018
     85          1           0       -8.418306    4.560619   -0.479859
     86          1           0       -9.329245    2.576753    1.410014
     87          1           0       -7.357964    4.904792    2.190947
     88          1           0       -9.101036    4.530442    2.192779
     89          1           0       -8.506990    5.918414    1.252873
     90          1           0      -10.410939    1.551473   -0.689745
     91          1           0       -9.973615    2.954053   -1.641892
     92          1           0      -12.143194    2.615076    0.212203
     93          1           0      -11.848124    3.982174   -0.868687
     94          1           0      -11.292496    3.933036    0.855196
     95          1           0       -9.192718   -3.618716    1.651073
     96          1           0       -9.683409   -2.851470    0.086380
     97          1           0       -9.803449   -1.939496    1.503128
     98          1           0       -4.066320   -4.142943    2.266799
     99          1           0       -1.502209   -7.213205    0.834736
    100          1           0       -2.205286   -6.764677   -0.770398
    101          1           0       -3.081980   -7.849199    0.214588
    102          1           0        3.287724   -4.634344   -0.583883
    103          1           0        3.179395   -3.352222    0.498614
    104          1           0        3.363655   -1.844905   -1.576582
    105          1           0        6.593840   -4.506081   -2.386623
    106          1           0        5.106281   -5.066136   -1.568132
    107          1           0        6.367161   -4.237198   -0.634799
    108          1           0        4.775350   -1.338381   -3.212039
    109          1           0        5.354026   -2.792949   -3.924691
    110          1           0        7.594338   -2.294967   -3.507651
    111          1           0        7.309385   -1.784443   -1.893186
    112          1           0        6.354810    0.341902   -3.503319
    113          1           0        7.898782   -0.114941   -4.122921
    114          1           0        7.729190    0.352333   -1.080024
    115          1           0        8.307646    2.360542   -3.460786
    116          1           0        9.101598    2.609827   -1.998689
    117          1           0        7.300736    2.660569   -2.099257
    118          1           0        9.985997    0.300157   -2.945744
    119          1           0        9.588802   -1.028640   -1.935703
    120          1           0       10.942114   -0.309577   -0.443033
    121          1           0        9.637685    0.869446   -0.121071
    122          1           0       11.359330    1.853408   -2.205817
    123          1           0       12.496856    1.006338   -1.167255
    124          1           0       10.354585    3.010408   -0.104266
    125          1           0       11.066661    4.472729   -1.712644
    126          1           0       12.686653    3.763837   -1.802627
    127          1           0       12.207644    4.744736   -0.412505
    128          1           0       12.563645    3.520759    1.325152
    129          1           0       13.037674    1.908598    0.783190
    130          1           0       10.334310    1.605841    1.833771
    131          1           0       11.238609    2.766679    2.838523
    132          1           0       12.948955    0.565319    2.440193
    133          1           0       11.376567   -0.113932    2.326299
    134          1           0       11.809126    1.843066    4.701582
    135          1           0       13.779862    0.755131    5.485700
    136          1           0       13.604715   -0.554085    4.322585
    137          1           0       12.582019   -0.496317    5.844336
    138          1           0        9.691297    0.802640    4.454502
    139          1           0       10.555644    0.323615    5.988812
    140          1           0       10.557093   -0.819074    4.625708
 ---------------------------------------------------------------------

 SCF Done:  E(RB-LYP) =  -3007.38050513     A.U. after   21 cycles

 Excitation energies and oscillator strengths:

 Excited State   1:      Singlet-A      1.7053 eV  727.04 nm  f=0.2881  <S**2>=0.000
     245 -> 248        0.16545
     246 -> 247        0.68720
     246 <- 247       -0.16034
 This state for optimization and/or second-order correction.
 Total Energy, E(TD-HF/TD-DFT) =  -3007.31783559
 Copying the excited state density for this state as the 1-particle RhoCI density.

 Excited State   2:      Singlet-A      1.7796 eV  696.70 nm  f=0.0281  <S**2>=0.000
     244 -> 247        0.60021
     245 -> 247       -0.34401

 Excited State   3:      Singlet-A      1.8570 eV  667.67 nm  f=0.0100  <S**2>=0.000
     243 -> 247        0.68392
     244 -> 247       -0.13374

 Excited State   4:      Singlet-A      1.9837 eV  625.00 nm  f=0.0777  <S**2>=0.000
     243 -> 247        0.12352
     244 -> 247        0.33345
     245 -> 247        0.55582
     246 -> 248       -0.21164
     246 -> 249        0.10095

 Excited State   5:      Singlet-A      2.2173 eV  559.17 nm  f=0.0000  <S**2>=0.000
     242 -> 247        0.70701

 The electronic state is 1-A.
 Alpha  occ. eigenvalues --  -46.26920 -18.82255 -18.81908 -18.78675 -18.76359
 Alpha  occ. eigenvalues --  -18.75794 -18.75290 -14.03433 -14.03312 -14.01427
 Alpha  occ. eigenvalues --  -14.01116 -10.05385 -10.03820  -9.99943  -9.98736
 Alpha  occ. eigenvalues --   -9.97455  -9.97299  -9.97146  -9.97102  -9.96446
 Alpha  occ. eigenvalues --   -9.96444  -9.96106  -9.95973  -9.95564  -9.95064
 Alpha  occ. eigenvalues --   -9.94723  -9.94618  -9.94421  -9.94358  -9.94283
 Alpha  occ. eigenvalues --   -9.93794  -9.93736  -9.93584  -9.93578  -9.93545
 Alpha  occ. eigenvalues --   -9.93529  -9.93510  -9.93484  -9.92957  -9.92919
 Alpha  occ. eigenvalues --   -9.92814  -9.92786  -9.92560  -9.92299  -9.92276
 Alpha  occ. eigenvalues --   -9.92269  -9.92238  -9.92084  -9.91935  -9.91908
 Alpha  occ. eigenvalues --   -9.91795  -9.91783  -9.91684  -9.91488  -9.91471
 Alpha  occ. eigenvalues --   -9.90995  -9.90951  -9.90888  -9.90813  -9.90805
 Alpha  occ. eigenvalues --   -9.90738  -9.90719  -9.90674  -9.90521  -9.90471
 Alpha  occ. eigenvalues --   -9.90352  -2.91565  -1.72000  -1.71421  -1.71296
 Alpha  occ. eigenvalues --   -0.97402  -0.95514  -0.90679  -0.90481  -0.90025
 Alpha  occ. eigenvalues --   -0.87961  -0.86609  -0.85599  -0.84830  -0.84149
 Alpha  occ. eigenvalues --   -0.74489  -0.74091  -0.73563  -0.72796  -0.72048
 Alpha  occ. eigenvalues --   -0.71900  -0.71404  -0.70715  -0.70458  -0.70318
 Alpha  occ. eigenvalues --   -0.69422  -0.68910  -0.68009  -0.67025  -0.66882
 Alpha  occ. eigenvalues --   -0.66192  -0.65773  -0.65264  -0.65040  -0.64506
 Alpha  occ. eigenvalues --   -0.64013  -0.62515  -0.62177  -0.61992  -0.61140
 Alpha  occ. eigenvalues --   -0.60419  -0.59788  -0.59658  -0.59542  -0.59059
 Alpha  occ. eigenvalues --   -0.57827  -0.57533  -0.56472  -0.55681  -0.54791
 Alpha  occ. eigenvalues --   -0.54227  -0.53440  -0.52653  -0.51912  -0.51438
 Alpha  occ. eigenvalues --   -0.51186  -0.51015  -0.50485  -0.50281  -0.50124
 Alpha  occ. eigenvalues --   -0.49921  -0.49175  -0.48969  -0.47988  -0.46738
 Alpha  occ. eigenvalues --   -0.46317  -0.45827  -0.45328  -0.44883  -0.44220
 Alpha  occ. eigenvalues --   -0.43311  -0.42836  -0.42731  -0.42304  -0.42115
 Alpha  occ. eigenvalues --   -0.42041  -0.41704  -0.41436  -0.41109  -0.40701
 Alpha  occ. eigenvalues --   -0.40648  -0.40512  -0.40385  -0.40293  -0.39799
 Alpha  occ. eigenvalues --   -0.39691  -0.39482  -0.39316  -0.39226  -0.39192
 Alpha  occ. eigenvalues --   -0.39032  -0.38905  -0.38513  -0.38301  -0.38061
 Alpha  occ. eigenvalues --   -0.37822  -0.37744  -0.37631  -0.37351  -0.37169
 Alpha  occ. eigenvalues --   -0.36917  -0.36727  -0.36543  -0.36475  -0.36265
 Alpha  occ. eigenvalues --   -0.36251  -0.36219  -0.36018  -0.35726  -0.35553
 Alpha  occ. eigenvalues --   -0.35282  -0.35168  -0.35073  -0.35035  -0.34762
 Alpha  occ. eigenvalues --   -0.34399  -0.34263  -0.34133  -0.33718  -0.33513
 Alpha  occ. eigenvalues --   -0.33475  -0.33346  -0.33299  -0.33216  -0.33118
 Alpha  occ. eigenvalues --   -0.33099  -0.32804  -0.32613  -0.32548  -0.32318
 Alpha  occ. eigenvalues --   -0.32157  -0.32020  -0.31928  -0.31579  -0.31470
 Alpha  occ. eigenvalues --   -0.31343  -0.31161  -0.30953  -0.30860  -0.30729
 Alpha  occ. eigenvalues --   -0.30565  -0.30498  -0.30140  -0.30117  -0.30011
 Alpha  occ. eigenvalues --   -0.29834  -0.29751  -0.29638  -0.29323  -0.29061
 Alpha  occ. eigenvalues --   -0.28975  -0.28743  -0.28494  -0.28153  -0.27736
 Alpha  occ. eigenvalues --   -0.27508  -0.27397  -0.27303  -0.26769  -0.26412
 Alpha  occ. eigenvalues --   -0.26213  -0.26183  -0.25951  -0.25612  -0.25435
 Alpha  occ. eigenvalues --   -0.25105  -0.24386  -0.23916  -0.23625  -0.23501
 Alpha  occ. eigenvalues --   -0.23471  -0.22894  -0.21851  -0.21242  -0.20761
 Alpha  occ. eigenvalues --   -0.20469  -0.20161  -0.18729  -0.18554  -0.17321
 Alpha  occ. eigenvalues --   -0.15909
 Alpha virt. eigenvalues --   -0.12013  -0.06975  -0.06367  -0.05013  -0.04785
 Alpha virt. eigenvalues --   -0.03646  -0.02587  -0.01742  -0.01161  -0.00051
 Alpha virt. eigenvalues --    0.00706   0.01618   0.02427   0.02683   0.02979

 Mulliken charges:
               1
     1  Mg   0.704750
     2  C    0.055303
     3  C   -0.075633
     4  C   -0.039014
     5  C   -0.110701
     6  N   -0.254610
     7  C   -0.081845
     8  C    0.018807
     9  C    0.010516
    10  C    0.091521
    11  C    0.100510
    12  C    0.122700
    13  C    0.152790
    14  C    0.095942
    15  O   -0.162426
    16  O   -0.322617
    17  N   -0.287123
    18  C    0.109310
    19  C   -0.161298
    20  C    0.030463
    21  C    0.132650
    22  C    0.181893
    23  C   -0.086280
    24  O   -0.187062
    25  C    0.137133
    26  N   -0.219677
    27  C   -0.026951
    28  C    0.055710
    29  C    0.016466
    30  C    0.060209
    31  C    0.140442
    32  C    0.077004
    33  C    0.042061
    34  N   -0.287257
    35  C    0.121961
    36  C   -0.166224
    37  C    0.164242
    38  C    0.062839
    39  C    0.180161
    40  C   -0.090064
    41  O   -0.154019
    42  C    0.038537
    43  C    0.138782
    44  O   -0.234506
    45  O   -0.278642
    46  C    0.216189
    47  C    0.346461
    48  C   -0.145028
    49  C   -0.143822
    50  C    0.171867
    51  C    0.149965
    52  C    0.040233
    53  C    0.125556
    54  C   -0.040789
    55  C    0.108320
    56  C    0.049090
    57  C    0.087720
    58  C    0.120926
    59  C   -0.107234
    60  C    0.097593
    61  C    0.142867
    62  C    0.038310
    63  C    0.092982
    64  C   -0.107129
    65  C    0.106185
    66  C    0.090285
    67  H   -0.057268
    68  H   -0.032270
    69  H   -0.062973
    70  H   -0.011416
    71  H   -0.024091
    72  H   -0.000206
    73  H   -0.003044
    74  H   -0.027872
    75  H   -0.023747
    76  H    0.006421
    77  H   -0.009498
    78  H    0.001893
    79  H    0.003917
    80  H    0.027249
    81  H   -0.027839
    82  H    0.001804
    83  H    0.025517
    84  H   -0.011599
    85  H   -0.030787
    86  H   -0.021193
    87  H    0.001283
    88  H   -0.009035
    89  H    0.001035
    90  H   -0.020135
    91  H   -0.014580
    92  H   -0.012380
    93  H    0.000777
    94  H   -0.005044
    95  H    0.015025
    96  H    0.000790
    97  H   -0.019045
    98  H    0.003221
    99  H    0.031524
   100  H    0.019309
   101  H    0.008990
   102  H   -0.027976
   103  H   -0.010139
   104  H   -0.038003
   105  H   -0.011933
   106  H   -0.001866
   107  H    0.011177
   108  H   -0.034971
   109  H   -0.021591
   110  H   -0.028965
   111  H   -0.022288
   112  H   -0.039270
   113  H   -0.038137
   114  H   -0.030120
   115  H   -0.025753
   116  H   -0.012131
   117  H   -0.015957
   118  H   -0.049849
   119  H   -0.044454
   120  H   -0.035773
   121  H   -0.018942
   122  H   -0.043353
   123  H   -0.027985
   124  H   -0.027660
   125  H   -0.017780
   126  H   -0.018155
   127  H   -0.030335
   128  H   -0.041901
   129  H   -0.040933
   130  H   -0.025335
   131  H   -0.031216
   132  H   -0.036201
   133  H   -0.031499
   134  H   -0.030590
   135  H   -0.013829
   136  H   -0.009290
   137  H   -0.028198
   138  H   -0.008159
   139  H   -0.008839
   140  H   -0.013838
 Sum of Mulliken charges =  -0.00000

 Dipole moment (field-independent basis, Debye):
    X=              3.5046    Y=              2.2228    Z=             -2.1887  Tot=              4.6918
 Quadrupole moment (field-independent basis, Debye-Ang):
   XX=           -377.8731   YY=           -439.3207   ZZ=           -404.0444
   XY=            -30.2078   XZ=             -1.4839   YZ=              9.6814

 Normal termination of Gaussian 16 at Wed May  4 02:15:00 2022.
