 Gaussian 16, Revision A.03,
 Gaussian 16:  ES64L-G16RevA.03 25-Dec-2016

 -----------------------------------
 #p cam-b3lyp/Def2SVP td=(nstates=5)
 -----------------------------------

 --------------------------------------------------------
 step_1251_chromophore_15 TDDFT with cam-b3lyp functional
 --------------------------------------------------------
 Symbolic Z-matrix:
 Charge =  0 Multiplicity = 1

                         Standard orientation:
 ---------------------------------------------------------------------
 Center     Atomic      Atomic             Coordinates (Angstroms)
 Number     Number       Type             X           Y           Z
 ---------------------------------------------------------------------
      1         12           0       -4.857677    0.876552   -0.048801
      2          6           0       -4.180238   -2.486982    0.724921
      3          6           0       -1.475780    1.458679   -0.338421
      4          6           0       -5.511089    4.272789   -0.147972
      5          6           0       -8.265799    0.342384    0.532105
      6          7           0       -3.091123   -0.445992   -0.011199
      7          6           0       -3.045957   -1.806931    0.273078
      8          6           0       -1.545924   -2.301978   -0.110838
      9          6           0       -0.779821   -1.008085   -0.008388
     10          6           0       -1.799024    0.096688   -0.058834
     11          6           0        0.008459   -0.976581    1.341783
     12          6           0       -1.510215   -2.873430   -1.609951
     13          6           0       -0.485127   -4.075650   -1.847601
     14          6           0        0.659103   -4.273579   -0.839132
     15          8           0        0.736809   -5.105124    0.039554
     16          8           0        1.652584   -3.242950   -0.989816
     17          7           0       -3.686013    2.623226   -0.176251
     18          6           0       -2.315574    2.668402   -0.279686
     19          6           0       -1.834600    4.009729   -0.462751
     20          6           0       -3.012517    4.850576   -0.410215
     21          6           0       -4.174981    3.922301   -0.215950
     22          6           0       -0.409015    4.431028   -0.773049
     23          6           0       -3.207726    6.343815   -0.622954
     24          8           0       -4.250898    6.982266   -0.356960
     25          6           0       -1.948562    7.058212   -1.093600
     26          7           0       -6.571935    2.119480    0.324926
     27          6           0       -6.634358    3.437927    0.090233
     28          6           0       -8.061803    3.996872    0.382182
     29          6           0       -8.895801    2.751199    0.425629
     30          6           0       -7.897650    1.675375    0.346372
     31          6           0       -8.271314    4.910939    1.596545
     32          6           0      -10.136311    2.603258   -0.622312
     33          6           0      -11.415845    3.374928   -0.072910
     34          7           0       -6.038935   -0.702131    0.434056
     35          6           0       -7.407933   -0.795265    0.610237
     36          6           0       -7.774580   -2.172010    0.891679
     37          6           0       -6.544160   -2.861216    0.989183
     38          6           0       -5.524427   -1.931060    0.717691
     39          6           0       -9.186044   -2.711892    1.045757
     40          6           0       -6.046684   -4.122046    1.156421
     41          8           0       -6.679802   -5.141255    1.434550
     42          6           0       -4.420539   -3.955776    1.253076
     43          6           0       -3.891199   -5.046059    0.374276
     44          8           0       -4.030155   -4.999650   -0.880310
     45          8           0       -3.092060   -5.948864    1.087514
     46          6           0       -2.410937   -6.991423    0.275576
     47          6           0        2.995491   -3.584216   -0.549911
     48          6           0        3.883097   -2.783789   -1.385725
     49          6           0        5.069084   -3.077333   -1.884143
     50          6           0        5.868762   -4.287304   -1.602103
     51          6           0        5.481833   -2.152906   -3.051309
     52          6           0        6.955069   -1.641665   -2.914025
     53          6           0        7.287729   -0.146977   -3.220757
     54          6           0        8.071780    0.620840   -2.079215
     55          6           0        8.206309    2.132707   -2.399466
     56          6           0        9.520788    0.057778   -1.990517
     57          6           0       10.364990    0.519519   -0.853545
     58          6           0       11.514244    1.478490   -1.194139
     59          6           0       11.387768    2.754344   -0.335936
     60          6           0       11.861631    4.002618   -1.132251
     61          6           0       12.186280    2.565653    0.958755
     62          6           0       11.327134    1.956220    2.115009
     63          6           0       11.930320    0.692614    2.806833
     64          6           0       11.845462    0.812290    4.349447
     65          6           0       13.064703    0.062180    5.041051
     66          6           0       10.505366    0.233972    4.903216
     67          1           0       -0.425084    1.700653   -0.517379
     68          1           0       -5.871268    5.285951    0.038260
     69          1           0       -9.330933    0.133880    0.649189
     70          1           0       -1.303686   -3.101177    0.590230
     71          1           0        0.025139   -0.755753   -0.699415
     72          1           0        0.963826   -1.477160    1.186471
     73          1           0       -0.492690   -1.389662    2.217435
     74          1           0        0.184378    0.085306    1.513659
     75          1           0       -1.349195   -2.070808   -2.329759
     76          1           0       -2.553500   -3.145626   -1.771811
     77          1           0        0.010992   -3.959809   -2.811709
     78          1           0       -1.093728   -4.970353   -1.979548
     79          1           0       -0.081707    5.210595   -0.084714
     80          1           0       -0.221325    4.637876   -1.827179
     81          1           0        0.143626    3.535994   -0.485181
     82          1           0       -1.419323    6.478933   -1.850250
     83          1           0       -1.441236    7.365404   -0.179213
     84          1           0       -2.383631    7.921805   -1.597018
     85          1           0       -8.418306    4.560619   -0.479859
     86          1           0       -9.329245    2.576753    1.410014
     87          1           0       -7.357964    4.904792    2.190947
     88          1           0       -9.101036    4.530442    2.192779
     89          1           0       -8.506990    5.918414    1.252873
     90          1           0      -10.410939    1.551473   -0.689745
     91          1           0       -9.973615    2.954053   -1.641892
     92          1           0      -12.143194    2.615076    0.212203
     93          1           0      -11.848124    3.982174   -0.868687
     94          1           0      -11.292496    3.933036    0.855196
     95          1           0       -9.192718   -3.618716    1.651073
     96          1           0       -9.683409   -2.851470    0.086380
     97          1           0       -9.803449   -1.939496    1.503128
     98          1           0       -4.066320   -4.142943    2.266799
     99          1           0       -1.502209   -7.213205    0.834736
    100          1           0       -2.205286   -6.764677   -0.770398
    101          1           0       -3.081980   -7.849199    0.214588
    102          1           0        3.287724   -4.634344   -0.583883
    103          1           0        3.179395   -3.352222    0.498614
    104          1           0        3.363655   -1.844905   -1.576582
    105          1           0        6.593840   -4.506081   -2.386623
    106          1           0        5.106281   -5.066136   -1.568132
    107          1           0        6.367161   -4.237198   -0.634799
    108          1           0        4.775350   -1.338381   -3.212039
    109          1           0        5.354026   -2.792949   -3.924691
    110          1           0        7.594338   -2.294967   -3.507651
    111          1           0        7.309385   -1.784443   -1.893186
    112          1           0        6.354810    0.341902   -3.503319
    113          1           0        7.898782   -0.114941   -4.122921
    114          1           0        7.729190    0.352333   -1.080024
    115          1           0        8.307646    2.360542   -3.460786
    116          1           0        9.101598    2.609827   -1.998689
    117          1           0        7.300736    2.660569   -2.099257
    118          1           0        9.985997    0.300157   -2.945744
    119          1           0        9.588802   -1.028640   -1.935703
    120          1           0       10.942114   -0.309577   -0.443033
    121          1           0        9.637685    0.869446   -0.121071
    122          1           0       11.359330    1.853408   -2.205817
    123          1           0       12.496856    1.006338   -1.167255
    124          1           0       10.354585    3.010408   -0.104266
    125          1           0       11.066661    4.472729   -1.712644
    126          1           0       12.686653    3.763837   -1.802627
    127          1           0       12.207644    4.744736   -0.412505
    128          1           0       12.563645    3.520759    1.325152
    129          1           0       13.037674    1.908598    0.783190
    130          1           0       10.334310    1.605841    1.833771
    131          1           0       11.238609    2.766679    2.838523
    132          1           0       12.948955    0.565319    2.440193
    133          1           0       11.376567   -0.113932    2.326299
    134          1           0       11.809126    1.843066    4.701582
    135          1           0       13.779862    0.755131    5.485700
    136          1           0       13.604715   -0.554085    4.322585
    137          1           0       12.582019   -0.496317    5.844336
    138          1           0        9.691297    0.802640    4.454502
    139          1           0       10.555644    0.323615    5.988812
    140          1           0       10.557093   -0.819074    4.625708
 ---------------------------------------------------------------------

 SCF Done:  E(RCAM-B3LYP) =  -3007.15879783     A.U. after   19 cycles

 Excitation energies and oscillator strengths:

 Excited State   1:      Singlet-A      1.6067 eV  771.68 nm  f=0.3780  <S**2>=0.000
     245 -> 248       -0.16054
     246 -> 247        0.68973
     245 <- 248       -0.10547
 This state for optimization and/or second-order correction.
 Total Energy, E(TD-HF/TD-DFT) =  -3007.09975313
 Copying the excited state density for this state as the 1-particle RhoCI density.

 Excited State   2:      Singlet-A      2.1531 eV  575.84 nm  f=0.1476  <S**2>=0.000
     245 -> 247        0.65196
     246 -> 248        0.25636

 Excited State   3:      Singlet-A      3.2835 eV  377.60 nm  f=0.0067  <S**2>=0.000
     241 -> 247       -0.37554
     242 -> 247       -0.38102
     244 -> 247        0.41496
     246 -> 248        0.11435

 Excited State   4:      Singlet-A      3.4026 eV  364.38 nm  f=0.0089  <S**2>=0.000
     239 -> 247        0.21030
     239 -> 249       -0.14868
     240 -> 247        0.32602
     242 -> 247        0.31360
     242 -> 249        0.11599
     244 -> 247        0.37255

 Excited State   5:      Singlet-A      3.4118 eV  363.40 nm  f=0.0081  <S**2>=0.000
     239 -> 247        0.40923
     239 -> 248       -0.10898
     239 -> 249       -0.18899
     239 -> 250        0.12684
     240 -> 247        0.19939
     240 -> 249       -0.13741
     242 -> 247       -0.26111
     242 -> 250       -0.10569
     244 -> 247       -0.27534

 The electronic state is 1-A.
 Alpha  occ. eigenvalues --  -46.88415 -19.25103 -19.24773 -19.21726 -19.19475
 Alpha  occ. eigenvalues --  -19.19338 -19.17926 -14.42342 -14.42174 -14.40126
 Alpha  occ. eigenvalues --  -14.39300 -10.40758 -10.39340 -10.35692 -10.33716
 Alpha  occ. eigenvalues --  -10.31954 -10.31658 -10.31430 -10.31364 -10.31221
 Alpha  occ. eigenvalues --  -10.31028 -10.30809 -10.30181 -10.29511 -10.29277
 Alpha  occ. eigenvalues --  -10.29068 -10.28815 -10.28685 -10.28539 -10.28380
 Alpha  occ. eigenvalues --  -10.27943 -10.27931 -10.27820 -10.27592 -10.27537
 Alpha  occ. eigenvalues --  -10.27446 -10.27437 -10.27375 -10.27348 -10.26801
 Alpha  occ. eigenvalues --  -10.26714 -10.26635 -10.26441 -10.26287 -10.26249
 Alpha  occ. eigenvalues --  -10.26029 -10.26010 -10.25883 -10.25859 -10.25666
 Alpha  occ. eigenvalues --  -10.25647 -10.25498 -10.25423 -10.25244 -10.25140
 Alpha  occ. eigenvalues --  -10.24645 -10.24623 -10.24611 -10.24594 -10.24518
 Alpha  occ. eigenvalues --  -10.24455 -10.24395 -10.24390 -10.24186 -10.24141
 Alpha  occ. eigenvalues --  -10.23834  -3.16965  -1.91876  -1.91393  -1.91292
 Alpha  occ. eigenvalues --   -1.15854  -1.13838  -1.08811  -1.08500  -1.08399
 Alpha  occ. eigenvalues --   -1.05751  -1.04354  -1.02933  -1.02625  -1.01670
 Alpha  occ. eigenvalues --   -0.91307  -0.91003  -0.90438  -0.89481  -0.88742
 Alpha  occ. eigenvalues --   -0.88572  -0.88277  -0.87322  -0.87215  -0.86935
 Alpha  occ. eigenvalues --   -0.85752  -0.85265  -0.84300  -0.83102  -0.82966
 Alpha  occ. eigenvalues --   -0.82304  -0.82147  -0.81223  -0.80905  -0.80318
 Alpha  occ. eigenvalues --   -0.79805  -0.78288  -0.77774  -0.77640  -0.76558
 Alpha  occ. eigenvalues --   -0.75710  -0.75082  -0.74988  -0.74866  -0.74362
 Alpha  occ. eigenvalues --   -0.72790  -0.72471  -0.71357  -0.70497  -0.69354
 Alpha  occ. eigenvalues --   -0.68762  -0.67967  -0.67355  -0.66258  -0.65520
 Alpha  occ. eigenvalues --   -0.65308  -0.65247  -0.64387  -0.64222  -0.64038
 Alpha  occ. eigenvalues --   -0.63986  -0.63173  -0.62926  -0.61550  -0.60236
 Alpha  occ. eigenvalues --   -0.60070  -0.59265  -0.58730  -0.58307  -0.57468
 Alpha  occ. eigenvalues --   -0.56703  -0.56199  -0.55891  -0.55488  -0.55066
 Alpha  occ. eigenvalues --   -0.55015  -0.54798  -0.54565  -0.54020  -0.53631
 Alpha  occ. eigenvalues --   -0.53528  -0.53412  -0.53229  -0.52957  -0.52589
 Alpha  occ. eigenvalues --   -0.52277  -0.52075  -0.51995  -0.51896  -0.51807
 Alpha  occ. eigenvalues --   -0.51603  -0.51402  -0.50920  -0.50897  -0.50473
 Alpha  occ. eigenvalues --   -0.50285  -0.50064  -0.49935  -0.49541  -0.49502
 Alpha  occ. eigenvalues --   -0.49228  -0.48929  -0.48857  -0.48645  -0.48611
 Alpha  occ. eigenvalues --   -0.48350  -0.48250  -0.48209  -0.48126  -0.47964
 Alpha  occ. eigenvalues --   -0.47782  -0.47524  -0.47175  -0.46956  -0.46816
 Alpha  occ. eigenvalues --   -0.46518  -0.45976  -0.45898  -0.45557  -0.45141
 Alpha  occ. eigenvalues --   -0.45092  -0.45061  -0.45023  -0.44963  -0.44773
 Alpha  occ. eigenvalues --   -0.44733  -0.44482  -0.44266  -0.44142  -0.43962
 Alpha  occ. eigenvalues --   -0.43805  -0.43655  -0.43428  -0.43344  -0.43020
 Alpha  occ. eigenvalues --   -0.42695  -0.42647  -0.42562  -0.42359  -0.42166
 Alpha  occ. eigenvalues --   -0.42059  -0.41921  -0.41712  -0.41596  -0.41331
 Alpha  occ. eigenvalues --   -0.41261  -0.41050  -0.40885  -0.40764  -0.40143
 Alpha  occ. eigenvalues --   -0.40044  -0.39836  -0.39448  -0.38996  -0.38670
 Alpha  occ. eigenvalues --   -0.38337  -0.38260  -0.38176  -0.37770  -0.37576
 Alpha  occ. eigenvalues --   -0.37255  -0.37083  -0.36675  -0.36507  -0.36173
 Alpha  occ. eigenvalues --   -0.36031  -0.35614  -0.34902  -0.34691  -0.34057
 Alpha  occ. eigenvalues --   -0.33950  -0.33593  -0.32840  -0.31395  -0.31093
 Alpha  occ. eigenvalues --   -0.30384  -0.29936  -0.29822  -0.29447  -0.24111
 Alpha  occ. eigenvalues --   -0.21229
 Alpha virt. eigenvalues --   -0.09289  -0.01658   0.00006   0.01941   0.02912
 Alpha virt. eigenvalues --    0.03150   0.04090   0.04903   0.06379   0.06535
 Alpha virt. eigenvalues --    0.07804   0.08423   0.08794   0.08915   0.09163

 Mulliken charges:
               1
     1  Mg   0.835981
     2  C    0.022084
     3  C   -0.094712
     4  C   -0.054610
     5  C   -0.107307
     6  N   -0.324120
     7  C   -0.039027
     8  C   -0.032529
     9  C   -0.052817
    10  C    0.114266
    11  C    0.053374
    12  C    0.077405
    13  C    0.086652
    14  C    0.167976
    15  O   -0.199890
    16  O   -0.386754
    17  N   -0.374736
    18  C    0.124623
    19  C   -0.165828
    20  C   -0.035183
    21  C    0.156992
    22  C    0.123567
    23  C   -0.000817
    24  O   -0.224937
    25  C    0.050759
    26  N   -0.284796
    27  C   -0.005263
    28  C   -0.002556
    29  C   -0.043313
    30  C    0.071228
    31  C    0.079816
    32  C    0.025661
    33  C   -0.017174
    34  N   -0.376033
    35  C    0.117762
    36  C   -0.159258
    37  C    0.075077
    38  C    0.096980
    39  C    0.129923
    40  C    0.003093
    41  O   -0.197712
    42  C   -0.027300
    43  C    0.227361
    44  O   -0.273329
    45  O   -0.343307
    46  C    0.178126
    47  C    0.309283
    48  C   -0.159928
    49  C   -0.165340
    50  C    0.103617
    51  C    0.094228
    52  C   -0.014363
    53  C    0.073139
    54  C   -0.100794
    55  C    0.054470
    56  C    0.000849
    57  C    0.031178
    58  C    0.065413
    59  C   -0.170040
    60  C    0.043979
    61  C    0.091140
    62  C   -0.012144
    63  C    0.039814
    64  C   -0.166609
    65  C    0.046440
    66  C    0.034553
    67  H   -0.024754
    68  H    0.007398
    69  H   -0.028010
    70  H    0.022030
    71  H    0.012704
    72  H    0.022745
    73  H    0.021944
    74  H   -0.003403
    75  H    0.005860
    76  H    0.040216
    77  H    0.023912
    78  H    0.031870
    79  H    0.032723
    80  H    0.054424
    81  H    0.001264
    82  H    0.030864
    83  H    0.055315
    84  H    0.025283
    85  H    0.005662
    86  H    0.014667
    87  H    0.026598
    88  H    0.015461
    89  H    0.025336
    90  H    0.008317
    91  H    0.012964
    92  H    0.011208
    93  H    0.023693
    94  H    0.015687
    95  H    0.042140
    96  H    0.026017
    97  H    0.002837
    98  H    0.046306
    99  H    0.054641
   100  H    0.040253
   101  H    0.032658
   102  H    0.001173
   103  H    0.016988
   104  H   -0.003774
   105  H    0.014790
   106  H    0.021832
   107  H    0.036342
   108  H   -0.004715
   109  H    0.007889
   110  H   -0.001291
   111  H    0.003264
   112  H   -0.010297
   113  H   -0.008969
   114  H    0.000045
   115  H   -0.000132
   116  H    0.003987
   117  H    0.009519
   118  H   -0.021398
   119  H   -0.013398
   120  H   -0.005742
   121  H    0.005117
   122  H   -0.013948
   123  H    0.002187
   124  H    0.003422
   125  H    0.006260
   126  H    0.005490
   127  H   -0.005296
   128  H   -0.011131
   129  H   -0.013462
   130  H   -0.000248
   131  H   -0.003027
   132  H   -0.007725
   133  H   -0.004732
   134  H    0.000541
   135  H    0.010674
   136  H    0.014051
   137  H   -0.003470
   138  H    0.014435
   139  H    0.014541
   140  H    0.009102
 Sum of Mulliken charges =  -0.00000

 Dipole moment (field-independent basis, Debye):
    X=              4.3261    Y=              3.4715    Z=             -2.5417  Tot=              6.1013
 Quadrupole moment (field-independent basis, Debye-Ang):
   XX=           -381.3324   YY=           -434.0555   ZZ=           -404.0023
   XY=            -34.5317   XZ=             -0.7145   YZ=              9.2983

 Normal termination of Gaussian 16 at Wed May  4 01:18:28 2022.
