 Gaussian 16, Revision A.03,
 Gaussian 16:  ES64L-G16RevA.03 25-Dec-2016

 ---------------------------------
 #p PBE1PBE/Def2SVP td=(nstates=5)
 ---------------------------------

 ------------------------------------------------------
 step_1251_chromophore_15 TDDFT with PBE1PBE functional
 ------------------------------------------------------
 Symbolic Z-matrix:
 Charge =  0 Multiplicity = 1

                         Standard orientation:
 ---------------------------------------------------------------------
 Center     Atomic      Atomic             Coordinates (Angstroms)
 Number     Number       Type             X           Y           Z
 ---------------------------------------------------------------------
      1         12           0       -4.857677    0.876552   -0.048801
      2          6           0       -4.180238   -2.486982    0.724921
      3          6           0       -1.475780    1.458679   -0.338421
      4          6           0       -5.511089    4.272789   -0.147972
      5          6           0       -8.265799    0.342384    0.532105
      6          7           0       -3.091123   -0.445992   -0.011199
      7          6           0       -3.045957   -1.806931    0.273078
      8          6           0       -1.545924   -2.301978   -0.110838
      9          6           0       -0.779821   -1.008085   -0.008388
     10          6           0       -1.799024    0.096688   -0.058834
     11          6           0        0.008459   -0.976581    1.341783
     12          6           0       -1.510215   -2.873430   -1.609951
     13          6           0       -0.485127   -4.075650   -1.847601
     14          6           0        0.659103   -4.273579   -0.839132
     15          8           0        0.736809   -5.105124    0.039554
     16          8           0        1.652584   -3.242950   -0.989816
     17          7           0       -3.686013    2.623226   -0.176251
     18          6           0       -2.315574    2.668402   -0.279686
     19          6           0       -1.834600    4.009729   -0.462751
     20          6           0       -3.012517    4.850576   -0.410215
     21          6           0       -4.174981    3.922301   -0.215950
     22          6           0       -0.409015    4.431028   -0.773049
     23          6           0       -3.207726    6.343815   -0.622954
     24          8           0       -4.250898    6.982266   -0.356960
     25          6           0       -1.948562    7.058212   -1.093600
     26          7           0       -6.571935    2.119480    0.324926
     27          6           0       -6.634358    3.437927    0.090233
     28          6           0       -8.061803    3.996872    0.382182
     29          6           0       -8.895801    2.751199    0.425629
     30          6           0       -7.897650    1.675375    0.346372
     31          6           0       -8.271314    4.910939    1.596545
     32          6           0      -10.136311    2.603258   -0.622312
     33          6           0      -11.415845    3.374928   -0.072910
     34          7           0       -6.038935   -0.702131    0.434056
     35          6           0       -7.407933   -0.795265    0.610237
     36          6           0       -7.774580   -2.172010    0.891679
     37          6           0       -6.544160   -2.861216    0.989183
     38          6           0       -5.524427   -1.931060    0.717691
     39          6           0       -9.186044   -2.711892    1.045757
     40          6           0       -6.046684   -4.122046    1.156421
     41          8           0       -6.679802   -5.141255    1.434550
     42          6           0       -4.420539   -3.955776    1.253076
     43          6           0       -3.891199   -5.046059    0.374276
     44          8           0       -4.030155   -4.999650   -0.880310
     45          8           0       -3.092060   -5.948864    1.087514
     46          6           0       -2.410937   -6.991423    0.275576
     47          6           0        2.995491   -3.584216   -0.549911
     48          6           0        3.883097   -2.783789   -1.385725
     49          6           0        5.069084   -3.077333   -1.884143
     50          6           0        5.868762   -4.287304   -1.602103
     51          6           0        5.481833   -2.152906   -3.051309
     52          6           0        6.955069   -1.641665   -2.914025
     53          6           0        7.287729   -0.146977   -3.220757
     54          6           0        8.071780    0.620840   -2.079215
     55          6           0        8.206309    2.132707   -2.399466
     56          6           0        9.520788    0.057778   -1.990517
     57          6           0       10.364990    0.519519   -0.853545
     58          6           0       11.514244    1.478490   -1.194139
     59          6           0       11.387768    2.754344   -0.335936
     60          6           0       11.861631    4.002618   -1.132251
     61          6           0       12.186280    2.565653    0.958755
     62          6           0       11.327134    1.956220    2.115009
     63          6           0       11.930320    0.692614    2.806833
     64          6           0       11.845462    0.812290    4.349447
     65          6           0       13.064703    0.062180    5.041051
     66          6           0       10.505366    0.233972    4.903216
     67          1           0       -0.425084    1.700653   -0.517379
     68          1           0       -5.871268    5.285951    0.038260
     69          1           0       -9.330933    0.133880    0.649189
     70          1           0       -1.303686   -3.101177    0.590230
     71          1           0        0.025139   -0.755753   -0.699415
     72          1           0        0.963826   -1.477160    1.186471
     73          1           0       -0.492690   -1.389662    2.217435
     74          1           0        0.184378    0.085306    1.513659
     75          1           0       -1.349195   -2.070808   -2.329759
     76          1           0       -2.553500   -3.145626   -1.771811
     77          1           0        0.010992   -3.959809   -2.811709
     78          1           0       -1.093728   -4.970353   -1.979548
     79          1           0       -0.081707    5.210595   -0.084714
     80          1           0       -0.221325    4.637876   -1.827179
     81          1           0        0.143626    3.535994   -0.485181
     82          1           0       -1.419323    6.478933   -1.850250
     83          1           0       -1.441236    7.365404   -0.179213
     84          1           0       -2.383631    7.921805   -1.597018
     85          1           0       -8.418306    4.560619   -0.479859
     86          1           0       -9.329245    2.576753    1.410014
     87          1           0       -7.357964    4.904792    2.190947
     88          1           0       -9.101036    4.530442    2.192779
     89          1           0       -8.506990    5.918414    1.252873
     90          1           0      -10.410939    1.551473   -0.689745
     91          1           0       -9.973615    2.954053   -1.641892
     92          1           0      -12.143194    2.615076    0.212203
     93          1           0      -11.848124    3.982174   -0.868687
     94          1           0      -11.292496    3.933036    0.855196
     95          1           0       -9.192718   -3.618716    1.651073
     96          1           0       -9.683409   -2.851470    0.086380
     97          1           0       -9.803449   -1.939496    1.503128
     98          1           0       -4.066320   -4.142943    2.266799
     99          1           0       -1.502209   -7.213205    0.834736
    100          1           0       -2.205286   -6.764677   -0.770398
    101          1           0       -3.081980   -7.849199    0.214588
    102          1           0        3.287724   -4.634344   -0.583883
    103          1           0        3.179395   -3.352222    0.498614
    104          1           0        3.363655   -1.844905   -1.576582
    105          1           0        6.593840   -4.506081   -2.386623
    106          1           0        5.106281   -5.066136   -1.568132
    107          1           0        6.367161   -4.237198   -0.634799
    108          1           0        4.775350   -1.338381   -3.212039
    109          1           0        5.354026   -2.792949   -3.924691
    110          1           0        7.594338   -2.294967   -3.507651
    111          1           0        7.309385   -1.784443   -1.893186
    112          1           0        6.354810    0.341902   -3.503319
    113          1           0        7.898782   -0.114941   -4.122921
    114          1           0        7.729190    0.352333   -1.080024
    115          1           0        8.307646    2.360542   -3.460786
    116          1           0        9.101598    2.609827   -1.998689
    117          1           0        7.300736    2.660569   -2.099257
    118          1           0        9.985997    0.300157   -2.945744
    119          1           0        9.588802   -1.028640   -1.935703
    120          1           0       10.942114   -0.309577   -0.443033
    121          1           0        9.637685    0.869446   -0.121071
    122          1           0       11.359330    1.853408   -2.205817
    123          1           0       12.496856    1.006338   -1.167255
    124          1           0       10.354585    3.010408   -0.104266
    125          1           0       11.066661    4.472729   -1.712644
    126          1           0       12.686653    3.763837   -1.802627
    127          1           0       12.207644    4.744736   -0.412505
    128          1           0       12.563645    3.520759    1.325152
    129          1           0       13.037674    1.908598    0.783190
    130          1           0       10.334310    1.605841    1.833771
    131          1           0       11.238609    2.766679    2.838523
    132          1           0       12.948955    0.565319    2.440193
    133          1           0       11.376567   -0.113932    2.326299
    134          1           0       11.809126    1.843066    4.701582
    135          1           0       13.779862    0.755131    5.485700
    136          1           0       13.604715   -0.554085    4.322585
    137          1           0       12.582019   -0.496317    5.844336
    138          1           0        9.691297    0.802640    4.454502
    139          1           0       10.555644    0.323615    5.988812
    140          1           0       10.557093   -0.819074    4.625708
 ---------------------------------------------------------------------

 SCF Done:  E(RPBE1PBE) =  -3005.34662431     A.U. after   16 cycles

 Excitation energies and oscillator strengths:

 Excited State   1:      Singlet-A      1.7485 eV  709.07 nm  f=0.3649  <S**2>=0.000
     245 -> 248       -0.15487
     246 -> 247        0.69791
     246 <- 247       -0.11799
 This state for optimization and/or second-order correction.
 Total Energy, E(TD-HF/TD-DFT) =  -3005.28236658
 Copying the excited state density for this state as the 1-particle RhoCI density.

 Excited State   2:      Singlet-A      2.1565 eV  574.93 nm  f=0.1374  <S**2>=0.000
     245 -> 247        0.66089
     246 -> 248        0.23425

 Excited State   3:      Singlet-A      2.8420 eV  436.25 nm  f=0.0025  <S**2>=0.000
     242 -> 247       -0.18078
     243 -> 247       -0.30299
     244 -> 247        0.57372
     244 -> 249        0.11099

 Excited State   4:      Singlet-A      2.9068 eV  426.53 nm  f=0.0003  <S**2>=0.000
     240 -> 247        0.24801
     241 -> 247        0.56439
     241 -> 249       -0.11776
     242 -> 247        0.27498

 Excited State   5:      Singlet-A      2.9671 eV  417.86 nm  f=0.0006  <S**2>=0.000
     240 -> 247       -0.25418
     241 -> 247       -0.18218
     242 -> 247        0.60650
     244 -> 247        0.12705

 The electronic state is 1-A.
 Alpha  occ. eigenvalues --  -46.91840 -19.25847 -19.25466 -19.21964 -19.19683
 Alpha  occ. eigenvalues --  -19.19416 -19.18491 -14.41829 -14.41770 -14.39643
 Alpha  occ. eigenvalues --  -14.39152 -10.37842 -10.36451 -10.32549 -10.31107
 Alpha  occ. eigenvalues --  -10.29615 -10.29508 -10.28805 -10.28746 -10.28720
 Alpha  occ. eigenvalues --  -10.28316 -10.28224 -10.28146 -10.27398 -10.27057
 Alpha  occ. eigenvalues --  -10.26841 -10.26835 -10.26553 -10.26336 -10.25920
 Alpha  occ. eigenvalues --  -10.25628 -10.25627 -10.25331 -10.25303 -10.25263
 Alpha  occ. eigenvalues --  -10.25203 -10.25165 -10.25077 -10.25041 -10.24515
 Alpha  occ. eigenvalues --  -10.24411 -10.24300 -10.23821 -10.23731 -10.23598
 Alpha  occ. eigenvalues --  -10.23534 -10.23442 -10.23393 -10.23309 -10.23309
 Alpha  occ. eigenvalues --  -10.23230 -10.22964 -10.22948 -10.22940 -10.22513
 Alpha  occ. eigenvalues --  -10.22210 -10.22144 -10.22143 -10.22075 -10.21997
 Alpha  occ. eigenvalues --  -10.21940 -10.21915 -10.21886 -10.21849 -10.21681
 Alpha  occ. eigenvalues --  -10.21579  -3.13969  -1.86821  -1.86315  -1.86220
 Alpha  occ. eigenvalues --   -1.10635  -1.08667  -1.03420  -1.03375  -1.03239
 Alpha  occ. eigenvalues --   -1.00635  -0.98952  -0.97787  -0.97104  -0.96292
 Alpha  occ. eigenvalues --   -0.85849  -0.85153  -0.84521  -0.83807  -0.82937
 Alpha  occ. eigenvalues --   -0.82737  -0.82441  -0.81422  -0.81359  -0.81241
 Alpha  occ. eigenvalues --   -0.80212  -0.79501  -0.78464  -0.77364  -0.77295
 Alpha  occ. eigenvalues --   -0.76465  -0.76214  -0.75411  -0.75205  -0.74469
 Alpha  occ. eigenvalues --   -0.74158  -0.72511  -0.72002  -0.71956  -0.70716
 Alpha  occ. eigenvalues --   -0.70091  -0.69431  -0.69123  -0.68940  -0.68509
 Alpha  occ. eigenvalues --   -0.67258  -0.66845  -0.65764  -0.64814  -0.63722
 Alpha  occ. eigenvalues --   -0.63322  -0.62232  -0.61677  -0.60508  -0.60031
 Alpha  occ. eigenvalues --   -0.59730  -0.59477  -0.58894  -0.58726  -0.58597
 Alpha  occ. eigenvalues --   -0.58051  -0.57295  -0.57099  -0.56204  -0.54676
 Alpha  occ. eigenvalues --   -0.54498  -0.53928  -0.53293  -0.52915  -0.52201
 Alpha  occ. eigenvalues --   -0.51236  -0.50721  -0.50484  -0.49936  -0.49672
 Alpha  occ. eigenvalues --   -0.49444  -0.49183  -0.49084  -0.48528  -0.48097
 Alpha  occ. eigenvalues --   -0.47917  -0.47849  -0.47581  -0.47430  -0.47242
 Alpha  occ. eigenvalues --   -0.46752  -0.46669  -0.46559  -0.46502  -0.46320
 Alpha  occ. eigenvalues --   -0.46140  -0.45863  -0.45469  -0.45275  -0.45182
 Alpha  occ. eigenvalues --   -0.44850  -0.44722  -0.44478  -0.44068  -0.44026
 Alpha  occ. eigenvalues --   -0.43873  -0.43517  -0.43389  -0.43243  -0.43185
 Alpha  occ. eigenvalues --   -0.43021  -0.42903  -0.42832  -0.42789  -0.42672
 Alpha  occ. eigenvalues --   -0.42470  -0.42040  -0.41831  -0.41572  -0.41487
 Alpha  occ. eigenvalues --   -0.41301  -0.40841  -0.40512  -0.40309  -0.39958
 Alpha  occ. eigenvalues --   -0.39805  -0.39744  -0.39697  -0.39592  -0.39552
 Alpha  occ. eigenvalues --   -0.39403  -0.39167  -0.39110  -0.38920  -0.38751
 Alpha  occ. eigenvalues --   -0.38621  -0.38405  -0.38148  -0.38088  -0.37942
 Alpha  occ. eigenvalues --   -0.37501  -0.37400  -0.37366  -0.37221  -0.36946
 Alpha  occ. eigenvalues --   -0.36866  -0.36619  -0.36501  -0.36459  -0.36099
 Alpha  occ. eigenvalues --   -0.36031  -0.35983  -0.35718  -0.35528  -0.35041
 Alpha  occ. eigenvalues --   -0.34885  -0.34785  -0.34215  -0.33992  -0.33427
 Alpha  occ. eigenvalues --   -0.33260  -0.33150  -0.32980  -0.32766  -0.32436
 Alpha  occ. eigenvalues --   -0.32298  -0.31947  -0.31506  -0.31403  -0.31218
 Alpha  occ. eigenvalues --   -0.30890  -0.30671  -0.29960  -0.29740  -0.28994
 Alpha  occ. eigenvalues --   -0.28855  -0.28705  -0.28230  -0.26778  -0.25821
 Alpha  occ. eigenvalues --   -0.25811  -0.25388  -0.25110  -0.25097  -0.21034
 Alpha  occ. eigenvalues --   -0.18851
 Alpha virt. eigenvalues --   -0.11693  -0.05242  -0.04151  -0.02480  -0.01550
 Alpha virt. eigenvalues --   -0.00620  -0.00011   0.00729   0.01935   0.02894
 Alpha virt. eigenvalues --    0.03694   0.04326   0.05349   0.05626   0.05887

 Mulliken charges:
               1
     1  Mg   0.986767
     2  C    0.008761
     3  C   -0.082200
     4  C   -0.046629
     5  C   -0.098078
     6  N   -0.416661
     7  C    0.032028
     8  C   -0.103557
     9  C   -0.136455
    10  C    0.145141
    11  C   -0.002629
    12  C    0.034900
    13  C    0.012663
    14  C    0.225098
    15  O   -0.233348
    16  O   -0.414380
    17  N   -0.487644
    18  C    0.144873
    19  C   -0.190784
    20  C   -0.078915
    21  C    0.181694
    22  C    0.057058
    23  C    0.047680
    24  O   -0.263486
    25  C   -0.024947
    26  N   -0.384291
    27  C    0.028873
    28  C   -0.076420
    29  C   -0.119700
    30  C    0.109494
    31  C    0.019805
    32  C   -0.036764
    33  C   -0.087148
    34  N   -0.503769
    35  C    0.140352
    36  C   -0.166966
    37  C    0.017359
    38  C    0.146117
    39  C    0.076491
    40  C    0.093401
    41  O   -0.238615
    42  C   -0.132080
    43  C    0.317784
    44  O   -0.304935
    45  O   -0.375927
    46  C    0.122294
    47  C    0.270042
    48  C   -0.171846
    49  C   -0.210309
    50  C    0.038190
    51  C    0.033332
    52  C   -0.075919
    53  C    0.022929
    54  C   -0.200689
    55  C   -0.009117
    56  C   -0.042256
    57  C   -0.034726
    58  C    0.012910
    59  C   -0.263355
    60  C   -0.015723
    61  C    0.041214
    62  C   -0.072235
    63  C   -0.013501
    64  C   -0.257916
    65  C   -0.015244
    66  C   -0.031836
    67  H    0.006900
    68  H    0.038181
    69  H    0.002630
    70  H    0.059904
    71  H    0.048068
    72  H    0.053995
    73  H    0.048513
    74  H    0.026590
    75  H    0.037584
    76  H    0.073453
    77  H    0.056442
    78  H    0.066291
    79  H    0.060772
    80  H    0.079679
    81  H    0.029972
    82  H    0.057129
    83  H    0.081663
    84  H    0.052398
    85  H    0.044862
    86  H    0.053566
    87  H    0.055079
    88  H    0.041333
    89  H    0.051989
    90  H    0.040898
    91  H    0.045315
    92  H    0.038994
    93  H    0.051402
    94  H    0.043653
    95  H    0.069779
    96  H    0.055285
    97  H    0.031438
    98  H    0.082012
    99  H    0.075839
   100  H    0.062160
   101  H    0.055426
   102  H    0.027829
   103  H    0.043705
   104  H    0.026826
   105  H    0.042055
   106  H    0.049531
   107  H    0.063837
   108  H    0.025350
   109  H    0.042620
   110  H    0.030348
   111  H    0.037212
   112  H    0.022430
   113  H    0.023530
   114  H    0.036911
   115  H    0.027006
   116  H    0.039178
   117  H    0.038360
   118  H    0.011592
   119  H    0.019167
   120  H    0.028780
   121  H    0.036876
   122  H    0.018676
   123  H    0.032888
   124  H    0.040461
   125  H    0.033879
   126  H    0.033350
   127  H    0.022798
   128  H    0.020936
   129  H    0.018521
   130  H    0.032574
   131  H    0.029672
   132  H    0.024552
   133  H    0.027709
   134  H    0.037696
   135  H    0.038613
   136  H    0.040756
   137  H    0.024153
   138  H    0.043395
   139  H    0.042886
   140  H    0.037898
 Sum of Mulliken charges =  -0.00000

 Dipole moment (field-independent basis, Debye):
    X=              3.9159    Y=              2.8807    Z=             -2.4839  Tot=              5.4591
 Quadrupole moment (field-independent basis, Debye-Ang):
   XX=           -371.1898   YY=           -432.8197   ZZ=           -401.4979
   XY=            -32.9642   XZ=             -1.5682   YZ=              9.2843

 Normal termination of Gaussian 16 at Wed May  4 01:35:40 2022.
