 Gaussian 16, Revision A.03,
 Gaussian 16:  ES64L-G16RevA.03 25-Dec-2016

 --------------------------------
 #p wB97XD/Def2SVP td=(nstates=5)
 --------------------------------

 -----------------------------------------------------
 step_1251_chromophore_15 TDDFT with wB97XD functional
 -----------------------------------------------------
 Symbolic Z-matrix:
 Charge =  0 Multiplicity = 1

                         Standard orientation:
 ---------------------------------------------------------------------
 Center     Atomic      Atomic             Coordinates (Angstroms)
 Number     Number       Type             X           Y           Z
 ---------------------------------------------------------------------
      1         12           0       -4.857677    0.876552   -0.048801
      2          6           0       -4.180238   -2.486982    0.724921
      3          6           0       -1.475780    1.458679   -0.338421
      4          6           0       -5.511089    4.272789   -0.147972
      5          6           0       -8.265799    0.342384    0.532105
      6          7           0       -3.091123   -0.445992   -0.011199
      7          6           0       -3.045957   -1.806931    0.273078
      8          6           0       -1.545924   -2.301978   -0.110838
      9          6           0       -0.779821   -1.008085   -0.008388
     10          6           0       -1.799024    0.096688   -0.058834
     11          6           0        0.008459   -0.976581    1.341783
     12          6           0       -1.510215   -2.873430   -1.609951
     13          6           0       -0.485127   -4.075650   -1.847601
     14          6           0        0.659103   -4.273579   -0.839132
     15          8           0        0.736809   -5.105124    0.039554
     16          8           0        1.652584   -3.242950   -0.989816
     17          7           0       -3.686013    2.623226   -0.176251
     18          6           0       -2.315574    2.668402   -0.279686
     19          6           0       -1.834600    4.009729   -0.462751
     20          6           0       -3.012517    4.850576   -0.410215
     21          6           0       -4.174981    3.922301   -0.215950
     22          6           0       -0.409015    4.431028   -0.773049
     23          6           0       -3.207726    6.343815   -0.622954
     24          8           0       -4.250898    6.982266   -0.356960
     25          6           0       -1.948562    7.058212   -1.093600
     26          7           0       -6.571935    2.119480    0.324926
     27          6           0       -6.634358    3.437927    0.090233
     28          6           0       -8.061803    3.996872    0.382182
     29          6           0       -8.895801    2.751199    0.425629
     30          6           0       -7.897650    1.675375    0.346372
     31          6           0       -8.271314    4.910939    1.596545
     32          6           0      -10.136311    2.603258   -0.622312
     33          6           0      -11.415845    3.374928   -0.072910
     34          7           0       -6.038935   -0.702131    0.434056
     35          6           0       -7.407933   -0.795265    0.610237
     36          6           0       -7.774580   -2.172010    0.891679
     37          6           0       -6.544160   -2.861216    0.989183
     38          6           0       -5.524427   -1.931060    0.717691
     39          6           0       -9.186044   -2.711892    1.045757
     40          6           0       -6.046684   -4.122046    1.156421
     41          8           0       -6.679802   -5.141255    1.434550
     42          6           0       -4.420539   -3.955776    1.253076
     43          6           0       -3.891199   -5.046059    0.374276
     44          8           0       -4.030155   -4.999650   -0.880310
     45          8           0       -3.092060   -5.948864    1.087514
     46          6           0       -2.410937   -6.991423    0.275576
     47          6           0        2.995491   -3.584216   -0.549911
     48          6           0        3.883097   -2.783789   -1.385725
     49          6           0        5.069084   -3.077333   -1.884143
     50          6           0        5.868762   -4.287304   -1.602103
     51          6           0        5.481833   -2.152906   -3.051309
     52          6           0        6.955069   -1.641665   -2.914025
     53          6           0        7.287729   -0.146977   -3.220757
     54          6           0        8.071780    0.620840   -2.079215
     55          6           0        8.206309    2.132707   -2.399466
     56          6           0        9.520788    0.057778   -1.990517
     57          6           0       10.364990    0.519519   -0.853545
     58          6           0       11.514244    1.478490   -1.194139
     59          6           0       11.387768    2.754344   -0.335936
     60          6           0       11.861631    4.002618   -1.132251
     61          6           0       12.186280    2.565653    0.958755
     62          6           0       11.327134    1.956220    2.115009
     63          6           0       11.930320    0.692614    2.806833
     64          6           0       11.845462    0.812290    4.349447
     65          6           0       13.064703    0.062180    5.041051
     66          6           0       10.505366    0.233972    4.903216
     67          1           0       -0.425084    1.700653   -0.517379
     68          1           0       -5.871268    5.285951    0.038260
     69          1           0       -9.330933    0.133880    0.649189
     70          1           0       -1.303686   -3.101177    0.590230
     71          1           0        0.025139   -0.755753   -0.699415
     72          1           0        0.963826   -1.477160    1.186471
     73          1           0       -0.492690   -1.389662    2.217435
     74          1           0        0.184378    0.085306    1.513659
     75          1           0       -1.349195   -2.070808   -2.329759
     76          1           0       -2.553500   -3.145626   -1.771811
     77          1           0        0.010992   -3.959809   -2.811709
     78          1           0       -1.093728   -4.970353   -1.979548
     79          1           0       -0.081707    5.210595   -0.084714
     80          1           0       -0.221325    4.637876   -1.827179
     81          1           0        0.143626    3.535994   -0.485181
     82          1           0       -1.419323    6.478933   -1.850250
     83          1           0       -1.441236    7.365404   -0.179213
     84          1           0       -2.383631    7.921805   -1.597018
     85          1           0       -8.418306    4.560619   -0.479859
     86          1           0       -9.329245    2.576753    1.410014
     87          1           0       -7.357964    4.904792    2.190947
     88          1           0       -9.101036    4.530442    2.192779
     89          1           0       -8.506990    5.918414    1.252873
     90          1           0      -10.410939    1.551473   -0.689745
     91          1           0       -9.973615    2.954053   -1.641892
     92          1           0      -12.143194    2.615076    0.212203
     93          1           0      -11.848124    3.982174   -0.868687
     94          1           0      -11.292496    3.933036    0.855196
     95          1           0       -9.192718   -3.618716    1.651073
     96          1           0       -9.683409   -2.851470    0.086380
     97          1           0       -9.803449   -1.939496    1.503128
     98          1           0       -4.066320   -4.142943    2.266799
     99          1           0       -1.502209   -7.213205    0.834736
    100          1           0       -2.205286   -6.764677   -0.770398
    101          1           0       -3.081980   -7.849199    0.214588
    102          1           0        3.287724   -4.634344   -0.583883
    103          1           0        3.179395   -3.352222    0.498614
    104          1           0        3.363655   -1.844905   -1.576582
    105          1           0        6.593840   -4.506081   -2.386623
    106          1           0        5.106281   -5.066136   -1.568132
    107          1           0        6.367161   -4.237198   -0.634799
    108          1           0        4.775350   -1.338381   -3.212039
    109          1           0        5.354026   -2.792949   -3.924691
    110          1           0        7.594338   -2.294967   -3.507651
    111          1           0        7.309385   -1.784443   -1.893186
    112          1           0        6.354810    0.341902   -3.503319
    113          1           0        7.898782   -0.114941   -4.122921
    114          1           0        7.729190    0.352333   -1.080024
    115          1           0        8.307646    2.360542   -3.460786
    116          1           0        9.101598    2.609827   -1.998689
    117          1           0        7.300736    2.660569   -2.099257
    118          1           0        9.985997    0.300157   -2.945744
    119          1           0        9.588802   -1.028640   -1.935703
    120          1           0       10.942114   -0.309577   -0.443033
    121          1           0        9.637685    0.869446   -0.121071
    122          1           0       11.359330    1.853408   -2.205817
    123          1           0       12.496856    1.006338   -1.167255
    124          1           0       10.354585    3.010408   -0.104266
    125          1           0       11.066661    4.472729   -1.712644
    126          1           0       12.686653    3.763837   -1.802627
    127          1           0       12.207644    4.744736   -0.412505
    128          1           0       12.563645    3.520759    1.325152
    129          1           0       13.037674    1.908598    0.783190
    130          1           0       10.334310    1.605841    1.833771
    131          1           0       11.238609    2.766679    2.838523
    132          1           0       12.948955    0.565319    2.440193
    133          1           0       11.376567   -0.113932    2.326299
    134          1           0       11.809126    1.843066    4.701582
    135          1           0       13.779862    0.755131    5.485700
    136          1           0       13.604715   -0.554085    4.322585
    137          1           0       12.582019   -0.496317    5.844336
    138          1           0        9.691297    0.802640    4.454502
    139          1           0       10.555644    0.323615    5.988812
    140          1           0       10.557093   -0.819074    4.625708
 ---------------------------------------------------------------------

 SCF Done:  E(RwB97XD) =  -3007.85812981     A.U. after   19 cycles

 Excitation energies and oscillator strengths:

 Excited State   1:      Singlet-A      1.5585 eV  795.52 nm  f=0.3768  <S**2>=0.000
     245 -> 248       -0.16503
     246 -> 247        0.68723
     245 <- 248       -0.11385
 This state for optimization and/or second-order correction.
 Total Energy, E(TD-HF/TD-DFT) =  -3007.80085472
 Copying the excited state density for this state as the 1-particle RhoCI density.

 Excited State   2:      Singlet-A      2.0999 eV  590.44 nm  f=0.1435  <S**2>=0.000
     245 -> 247        0.64901
     246 -> 248        0.25939

 Excited State   3:      Singlet-A      3.2994 eV  375.77 nm  f=0.0106  <S**2>=0.000
     239 -> 247       -0.12456
     241 -> 247        0.48705
     242 -> 247        0.31480
     244 -> 247       -0.31604
     246 -> 248       -0.14677

 Excited State   4:      Singlet-A      3.4105 eV  363.54 nm  f=0.0010  <S**2>=0.000
     239 -> 247        0.26795
     239 -> 249        0.18070
     239 -> 250        0.10416
     240 -> 247        0.50125
     240 -> 248       -0.12226
     240 -> 249        0.24542
     240 -> 250        0.12513

 Excited State   5:      Singlet-A      3.4648 eV  357.84 nm  f=0.0077  <S**2>=0.000
     239 -> 247       -0.19281
     241 -> 247        0.15711
     242 -> 247        0.16442
     242 -> 249       -0.10689
     242 -> 250        0.12379
     244 -> 247        0.56742
     244 -> 249       -0.11769
     246 -> 248       -0.13001

 The electronic state is 1-A.
 Alpha  occ. eigenvalues --  -46.94764 -19.30292 -19.29989 -19.26608 -19.24611
 Alpha  occ. eigenvalues --  -19.24263 -19.22911 -14.46966 -14.46787 -14.44795
 Alpha  occ. eigenvalues --  -14.43861 -10.44586 -10.43160 -10.39762 -10.37656
 Alpha  occ. eigenvalues --  -10.36072 -10.35683 -10.35536 -10.35296 -10.35292
 Alpha  occ. eigenvalues --  -10.34953 -10.34735 -10.34120 -10.33781 -10.33204
 Alpha  occ. eigenvalues --  -10.33010 -10.32919 -10.32746 -10.32537 -10.32289
 Alpha  occ. eigenvalues --  -10.32165 -10.32048 -10.31850 -10.31633 -10.31493
 Alpha  occ. eigenvalues --  -10.31490 -10.31463 -10.31371 -10.31354 -10.30815
 Alpha  occ. eigenvalues --  -10.30715 -10.30632 -10.30399 -10.30277 -10.30193
 Alpha  occ. eigenvalues --  -10.29990 -10.29873 -10.29816 -10.29707 -10.29626
 Alpha  occ. eigenvalues --  -10.29471 -10.29381 -10.29374 -10.29236 -10.28998
 Alpha  occ. eigenvalues --  -10.28589 -10.28531 -10.28516 -10.28456 -10.28442
 Alpha  occ. eigenvalues --  -10.28322 -10.28314 -10.28276 -10.28068 -10.28029
 Alpha  occ. eigenvalues --  -10.27761  -3.20750  -1.94352  -1.93845  -1.93748
 Alpha  occ. eigenvalues --   -1.17982  -1.15965  -1.11113  -1.10690  -1.10561
 Alpha  occ. eigenvalues --   -1.07901  -1.06359  -1.04910  -1.04718  -1.03691
 Alpha  occ. eigenvalues --   -0.93234  -0.92825  -0.92210  -0.91365  -0.90553
 Alpha  occ. eigenvalues --   -0.90401  -0.90249  -0.89208  -0.89099  -0.88842
 Alpha  occ. eigenvalues --   -0.87675  -0.87148  -0.86144  -0.84984  -0.84862
 Alpha  occ. eigenvalues --   -0.84255  -0.84037  -0.83078  -0.82793  -0.82158
 Alpha  occ. eigenvalues --   -0.81772  -0.80293  -0.79679  -0.79538  -0.78407
 Alpha  occ. eigenvalues --   -0.77627  -0.77036  -0.76822  -0.76662  -0.76196
 Alpha  occ. eigenvalues --   -0.74732  -0.74410  -0.73327  -0.72425  -0.71262
 Alpha  occ. eigenvalues --   -0.70734  -0.69860  -0.69398  -0.68144  -0.67471
 Alpha  occ. eigenvalues --   -0.67220  -0.67129  -0.66391  -0.66180  -0.66035
 Alpha  occ. eigenvalues --   -0.65780  -0.64991  -0.64760  -0.63516  -0.62162
 Alpha  occ. eigenvalues --   -0.62091  -0.61245  -0.60719  -0.60323  -0.59470
 Alpha  occ. eigenvalues --   -0.58613  -0.58150  -0.57895  -0.57402  -0.56974
 Alpha  occ. eigenvalues --   -0.56939  -0.56693  -0.56474  -0.55911  -0.55537
 Alpha  occ. eigenvalues --   -0.55479  -0.55332  -0.55120  -0.54834  -0.54520
 Alpha  occ. eigenvalues --   -0.54150  -0.53995  -0.53917  -0.53804  -0.53694
 Alpha  occ. eigenvalues --   -0.53498  -0.53272  -0.52942  -0.52791  -0.52396
 Alpha  occ. eigenvalues --   -0.52248  -0.51954  -0.51817  -0.51503  -0.51388
 Alpha  occ. eigenvalues --   -0.51190  -0.50867  -0.50805  -0.50561  -0.50498
 Alpha  occ. eigenvalues --   -0.50255  -0.50153  -0.50118  -0.50044  -0.49883
 Alpha  occ. eigenvalues --   -0.49699  -0.49513  -0.49089  -0.48831  -0.48725
 Alpha  occ. eigenvalues --   -0.48455  -0.47861  -0.47771  -0.47459  -0.47022
 Alpha  occ. eigenvalues --   -0.47006  -0.46971  -0.46878  -0.46844  -0.46694
 Alpha  occ. eigenvalues --   -0.46618  -0.46358  -0.46184  -0.46070  -0.45839
 Alpha  occ. eigenvalues --   -0.45708  -0.45616  -0.45327  -0.45258  -0.44907
 Alpha  occ. eigenvalues --   -0.44608  -0.44536  -0.44527  -0.44268  -0.44049
 Alpha  occ. eigenvalues --   -0.44027  -0.43934  -0.43646  -0.43523  -0.43199
 Alpha  occ. eigenvalues --   -0.43129  -0.43029  -0.42751  -0.42616  -0.42001
 Alpha  occ. eigenvalues --   -0.41943  -0.41711  -0.41302  -0.40906  -0.40511
 Alpha  occ. eigenvalues --   -0.40247  -0.40153  -0.40037  -0.39701  -0.39457
 Alpha  occ. eigenvalues --   -0.39173  -0.38997  -0.38525  -0.38443  -0.38214
 Alpha  occ. eigenvalues --   -0.37890  -0.37626  -0.36797  -0.36684  -0.35891
 Alpha  occ. eigenvalues --   -0.35786  -0.35528  -0.35041  -0.33500  -0.33232
 Alpha  occ. eigenvalues --   -0.32570  -0.31940  -0.31856  -0.31544  -0.26045
 Alpha  occ. eigenvalues --   -0.23033
 Alpha virt. eigenvalues --   -0.07647   0.00264   0.02048   0.04064   0.05336
 Alpha virt. eigenvalues --    0.06033   0.06310   0.07260   0.08687   0.09266
 Alpha virt. eigenvalues --    0.10342   0.11003   0.12093   0.12431   0.12598

 Mulliken charges:
               1
     1  Mg   0.975263
     2  C    0.005363
     3  C   -0.104972
     4  C   -0.062942
     5  C   -0.110761
     6  N   -0.390472
     7  C    0.000122
     8  C   -0.076336
     9  C   -0.111615
    10  C    0.139261
    11  C    0.010319
    12  C    0.040783
    13  C    0.030840
    14  C    0.213596
    15  O   -0.229443
    16  O   -0.412506
    17  N   -0.456679
    18  C    0.141684
    19  C   -0.182051
    20  C   -0.073392
    21  C    0.179193
    22  C    0.072209
    23  C    0.044772
    24  O   -0.254839
    25  C   -0.012883
    26  N   -0.353083
    27  C    0.016784
    28  C   -0.055669
    29  C   -0.088907
    30  C    0.093096
    31  C    0.030456
    32  C   -0.022359
    33  C   -0.071403
    34  N   -0.465721
    35  C    0.128566
    36  C   -0.169144
    37  C    0.025244
    38  C    0.128769
    39  C    0.087731
    40  C    0.073508
    41  O   -0.232753
    42  C   -0.092152
    43  C    0.292729
    44  O   -0.299980
    45  O   -0.375041
    46  C    0.137888
    47  C    0.281200
    48  C   -0.175817
    49  C   -0.196627
    50  C    0.050129
    51  C    0.050556
    52  C   -0.058585
    53  C    0.034698
    54  C   -0.163483
    55  C    0.009714
    56  C   -0.028928
    57  C   -0.013472
    58  C    0.026163
    59  C   -0.228944
    60  C   -0.002295
    61  C    0.054741
    62  C   -0.055550
    63  C    0.001385
    64  C   -0.228416
    65  C   -0.002477
    66  C   -0.016302
    67  H   -0.000905
    68  H    0.034244
    69  H   -0.004659
    70  H    0.047954
    71  H    0.040150
    72  H    0.046197
    73  H    0.044162
    74  H    0.017939
    75  H    0.030699
    76  H    0.064240
    77  H    0.051304
    78  H    0.058040
    79  H    0.056655
    80  H    0.077350
    81  H    0.025262
    82  H    0.051836
    83  H    0.079063
    84  H    0.051688
    85  H    0.034149
    86  H    0.039545
    87  H    0.048787
    88  H    0.035713
    89  H    0.047512
    90  H    0.032186
    91  H    0.038153
    92  H    0.033063
    93  H    0.045800
    94  H    0.035540
    95  H    0.065914
    96  H    0.049198
    97  H    0.023302
    98  H    0.077188
    99  H    0.074051
   100  H    0.055313
   101  H    0.051730
   102  H    0.020723
   103  H    0.039539
   104  H    0.021886
   105  H    0.037727
   106  H    0.042279
   107  H    0.059313
   108  H    0.017815
   109  H    0.034444
   110  H    0.023037
   111  H    0.023122
   112  H    0.013938
   113  H    0.014558
   114  H    0.025188
   115  H    0.021218
   116  H    0.020556
   117  H    0.033153
   118  H   -0.001001
   119  H    0.011261
   120  H    0.020434
   121  H    0.020384
   122  H    0.006095
   123  H    0.027074
   124  H    0.026902
   125  H    0.028943
   126  H    0.026872
   127  H    0.016071
   128  H    0.013310
   129  H    0.007099
   130  H    0.021019
   131  H    0.020430
   132  H    0.013966
   133  H    0.017968
   134  H    0.026346
   135  H    0.033448
   136  H    0.035057
   137  H    0.017284
   138  H    0.037305
   139  H    0.036383
   140  H    0.029721
 Sum of Mulliken charges =  -0.00000

 Dipole moment (field-independent basis, Debye):
    X=              4.4914    Y=              3.7408    Z=             -2.6385  Tot=              6.4132
 Quadrupole moment (field-independent basis, Debye-Ang):
   XX=           -376.9963   YY=           -429.5808   ZZ=           -401.1125
   XY=            -35.6207   XZ=             -0.6320   YZ=              9.0227

 Normal termination of Gaussian 16 at Wed May  4 02:03:40 2022.
