 Gaussian 16, Revision A.03,
 Gaussian 16:  ES64L-G16RevA.03 25-Dec-2016

 --------------------
 #p ZINDO=(nstates=5)
 --------------------

 ------------------------------
 step_1251_chromophore_15 ZINDO
 ------------------------------
 Symbolic Z-matrix:
 Charge =  0 Multiplicity = 1

                         Standard orientation:
 ---------------------------------------------------------------------
 Center     Atomic      Atomic             Coordinates (Angstroms)
 Number     Number       Type             X           Y           Z
 ---------------------------------------------------------------------
      1         12           0       -4.857677    0.876552   -0.048801
      2          6           0       -4.180238   -2.486982    0.724921
      3          6           0       -1.475780    1.458679   -0.338421
      4          6           0       -5.511089    4.272789   -0.147972
      5          6           0       -8.265799    0.342384    0.532105
      6          7           0       -3.091123   -0.445992   -0.011199
      7          6           0       -3.045957   -1.806931    0.273078
      8          6           0       -1.545924   -2.301978   -0.110838
      9          6           0       -0.779821   -1.008085   -0.008388
     10          6           0       -1.799024    0.096688   -0.058834
     11          6           0        0.008459   -0.976581    1.341783
     12          6           0       -1.510215   -2.873430   -1.609951
     13          6           0       -0.485127   -4.075650   -1.847601
     14          6           0        0.659103   -4.273579   -0.839132
     15          8           0        0.736809   -5.105124    0.039554
     16          8           0        1.652584   -3.242950   -0.989816
     17          7           0       -3.686013    2.623226   -0.176251
     18          6           0       -2.315574    2.668402   -0.279686
     19          6           0       -1.834600    4.009729   -0.462751
     20          6           0       -3.012517    4.850576   -0.410215
     21          6           0       -4.174981    3.922301   -0.215950
     22          6           0       -0.409015    4.431028   -0.773049
     23          6           0       -3.207726    6.343815   -0.622954
     24          8           0       -4.250898    6.982266   -0.356960
     25          6           0       -1.948562    7.058212   -1.093600
     26          7           0       -6.571935    2.119480    0.324926
     27          6           0       -6.634358    3.437927    0.090233
     28          6           0       -8.061803    3.996872    0.382182
     29          6           0       -8.895801    2.751199    0.425629
     30          6           0       -7.897650    1.675375    0.346372
     31          6           0       -8.271314    4.910939    1.596545
     32          6           0      -10.136311    2.603258   -0.622312
     33          6           0      -11.415845    3.374928   -0.072910
     34          7           0       -6.038935   -0.702131    0.434056
     35          6           0       -7.407933   -0.795265    0.610237
     36          6           0       -7.774580   -2.172010    0.891679
     37          6           0       -6.544160   -2.861216    0.989183
     38          6           0       -5.524427   -1.931060    0.717691
     39          6           0       -9.186044   -2.711892    1.045757
     40          6           0       -6.046684   -4.122046    1.156421
     41          8           0       -6.679802   -5.141255    1.434550
     42          6           0       -4.420539   -3.955776    1.253076
     43          6           0       -3.891199   -5.046059    0.374276
     44          8           0       -4.030155   -4.999650   -0.880310
     45          8           0       -3.092060   -5.948864    1.087514
     46          6           0       -2.410937   -6.991423    0.275576
     47          6           0        2.995491   -3.584216   -0.549911
     48          6           0        3.883097   -2.783789   -1.385725
     49          6           0        5.069084   -3.077333   -1.884143
     50          6           0        5.868762   -4.287304   -1.602103
     51          6           0        5.481833   -2.152906   -3.051309
     52          6           0        6.955069   -1.641665   -2.914025
     53          6           0        7.287729   -0.146977   -3.220757
     54          6           0        8.071780    0.620840   -2.079215
     55          6           0        8.206309    2.132707   -2.399466
     56          6           0        9.520788    0.057778   -1.990517
     57          6           0       10.364990    0.519519   -0.853545
     58          6           0       11.514244    1.478490   -1.194139
     59          6           0       11.387768    2.754344   -0.335936
     60          6           0       11.861631    4.002618   -1.132251
     61          6           0       12.186280    2.565653    0.958755
     62          6           0       11.327134    1.956220    2.115009
     63          6           0       11.930320    0.692614    2.806833
     64          6           0       11.845462    0.812290    4.349447
     65          6           0       13.064703    0.062180    5.041051
     66          6           0       10.505366    0.233972    4.903216
     67          1           0       -0.425084    1.700653   -0.517379
     68          1           0       -5.871268    5.285951    0.038260
     69          1           0       -9.330933    0.133880    0.649189
     70          1           0       -1.303686   -3.101177    0.590230
     71          1           0        0.025139   -0.755753   -0.699415
     72          1           0        0.963826   -1.477160    1.186471
     73          1           0       -0.492690   -1.389662    2.217435
     74          1           0        0.184378    0.085306    1.513659
     75          1           0       -1.349195   -2.070808   -2.329759
     76          1           0       -2.553500   -3.145626   -1.771811
     77          1           0        0.010992   -3.959809   -2.811709
     78          1           0       -1.093728   -4.970353   -1.979548
     79          1           0       -0.081707    5.210595   -0.084714
     80          1           0       -0.221325    4.637876   -1.827179
     81          1           0        0.143626    3.535994   -0.485181
     82          1           0       -1.419323    6.478933   -1.850250
     83          1           0       -1.441236    7.365404   -0.179213
     84          1           0       -2.383631    7.921805   -1.597018
     85          1           0       -8.418306    4.560619   -0.479859
     86          1           0       -9.329245    2.576753    1.410014
     87          1           0       -7.357964    4.904792    2.190947
     88          1           0       -9.101036    4.530442    2.192779
     89          1           0       -8.506990    5.918414    1.252873
     90          1           0      -10.410939    1.551473   -0.689745
     91          1           0       -9.973615    2.954053   -1.641892
     92          1           0      -12.143194    2.615076    0.212203
     93          1           0      -11.848124    3.982174   -0.868687
     94          1           0      -11.292496    3.933036    0.855196
     95          1           0       -9.192718   -3.618716    1.651073
     96          1           0       -9.683409   -2.851470    0.086380
     97          1           0       -9.803449   -1.939496    1.503128
     98          1           0       -4.066320   -4.142943    2.266799
     99          1           0       -1.502209   -7.213205    0.834736
    100          1           0       -2.205286   -6.764677   -0.770398
    101          1           0       -3.081980   -7.849199    0.214588
    102          1           0        3.287724   -4.634344   -0.583883
    103          1           0        3.179395   -3.352222    0.498614
    104          1           0        3.363655   -1.844905   -1.576582
    105          1           0        6.593840   -4.506081   -2.386623
    106          1           0        5.106281   -5.066136   -1.568132
    107          1           0        6.367161   -4.237198   -0.634799
    108          1           0        4.775350   -1.338381   -3.212039
    109          1           0        5.354026   -2.792949   -3.924691
    110          1           0        7.594338   -2.294967   -3.507651
    111          1           0        7.309385   -1.784443   -1.893186
    112          1           0        6.354810    0.341902   -3.503319
    113          1           0        7.898782   -0.114941   -4.122921
    114          1           0        7.729190    0.352333   -1.080024
    115          1           0        8.307646    2.360542   -3.460786
    116          1           0        9.101598    2.609827   -1.998689
    117          1           0        7.300736    2.660569   -2.099257
    118          1           0        9.985997    0.300157   -2.945744
    119          1           0        9.588802   -1.028640   -1.935703
    120          1           0       10.942114   -0.309577   -0.443033
    121          1           0        9.637685    0.869446   -0.121071
    122          1           0       11.359330    1.853408   -2.205817
    123          1           0       12.496856    1.006338   -1.167255
    124          1           0       10.354585    3.010408   -0.104266
    125          1           0       11.066661    4.472729   -1.712644
    126          1           0       12.686653    3.763837   -1.802627
    127          1           0       12.207644    4.744736   -0.412505
    128          1           0       12.563645    3.520759    1.325152
    129          1           0       13.037674    1.908598    0.783190
    130          1           0       10.334310    1.605841    1.833771
    131          1           0       11.238609    2.766679    2.838523
    132          1           0       12.948955    0.565319    2.440193
    133          1           0       11.376567   -0.113932    2.326299
    134          1           0       11.809126    1.843066    4.701582
    135          1           0       13.779862    0.755131    5.485700
    136          1           0       13.604715   -0.554085    4.322585
    137          1           0       12.582019   -0.496317    5.844336
    138          1           0        9.691297    0.802640    4.454502
    139          1           0       10.555644    0.323615    5.988812
    140          1           0       10.557093   -0.819074    4.625708
 ---------------------------------------------------------------------

 SCF Done:  E(RZINDO/S) =  -473.867440613     A.U. after   19 cycles

 Excitation energies and oscillator strengths:

 Excited State   1:      Singlet-A      1.1901 eV 1041.77 nm  f=0.5924  <S**2>=0.000
     175 ->178         0.16297
     176 ->177         0.66860
 This state for optimization and/or second-order correction.
 Total Energy, E(CIS/TDA) =  -473.823703988
 Copying the excited state density for this state as the 1-particle RhoCI density.

 Excited State   2:      Singlet-A      1.9152 eV  647.38 nm  f=0.0890  <S**2>=0.000
     175 ->177         0.56640
     176 ->178        -0.38616

 Excited State   3:      Singlet-A      2.9241 eV  424.01 nm  f=0.0790  <S**2>=0.000
     171 ->177        -0.27932
     171 ->179        -0.28731
     171 ->180        -0.32243
     171 ->182         0.13188
     171 ->185        -0.13914
     171 ->187        -0.14299
     171 ->203         0.10809
     174 ->177        -0.13723
     176 ->178         0.15512

 Excited State   4:      Singlet-A      2.9480 eV  420.57 nm  f=0.0349  <S**2>=0.000
     167 ->179        -0.11408
     168 ->177         0.34272
     168 ->178        -0.16819
     168 ->179        -0.36279
     168 ->180         0.21260
     168 ->185        -0.21052
     176 ->178         0.12265
     176 ->179         0.14819

 Excited State   5:      Singlet-A      2.9812 eV  415.89 nm  f=0.6771  <S**2>=0.000
     168 ->177        -0.10197
     168 ->179         0.10973
     170 ->177        -0.11560
     171 ->180         0.10176
     172 ->177         0.11700
     175 ->177         0.28770
     176 ->178         0.47838
     176 ->179         0.22229

 The electronic state is 1-A.
 Alpha  occ. eigenvalues --   -1.82848  -1.80580  -1.78256  -1.71678  -1.69661
 Alpha  occ. eigenvalues --   -1.67741  -1.67580  -1.59988  -1.57260  -1.56623
 Alpha  occ. eigenvalues --   -1.56061  -1.52299  -1.47447  -1.46929  -1.46378
 Alpha  occ. eigenvalues --   -1.43068  -1.40911  -1.39538  -1.38297  -1.38048
 Alpha  occ. eigenvalues --   -1.36074  -1.33011  -1.31869  -1.31190  -1.29134
 Alpha  occ. eigenvalues --   -1.28570  -1.24640  -1.22376  -1.20258  -1.18022
 Alpha  occ. eigenvalues --   -1.17141  -1.16635  -1.14293  -1.13943  -1.13062
 Alpha  occ. eigenvalues --   -1.12786  -1.11491  -1.10355  -1.04484  -1.03495
 Alpha  occ. eigenvalues --   -1.02472  -1.00200  -0.98048  -0.97782  -0.95818
 Alpha  occ. eigenvalues --   -0.95160  -0.94234  -0.94132  -0.92839  -0.92121
 Alpha  occ. eigenvalues --   -0.90850  -0.89948  -0.89120  -0.88038  -0.87522
 Alpha  occ. eigenvalues --   -0.87105  -0.85812  -0.83012  -0.82192  -0.80750
 Alpha  occ. eigenvalues --   -0.79875  -0.78917  -0.77221  -0.76563  -0.75701
 Alpha  occ. eigenvalues --   -0.75152  -0.74675  -0.73434  -0.72910  -0.72624
 Alpha  occ. eigenvalues --   -0.72376  -0.71718  -0.71318  -0.70990  -0.70702
 Alpha  occ. eigenvalues --   -0.70466  -0.69614  -0.69151  -0.68858  -0.68301
 Alpha  occ. eigenvalues --   -0.67667  -0.67274  -0.66336  -0.66119  -0.65197
 Alpha  occ. eigenvalues --   -0.64576  -0.64102  -0.63883  -0.63471  -0.63331
 Alpha  occ. eigenvalues --   -0.63248  -0.63050  -0.62713  -0.62085  -0.61856
 Alpha  occ. eigenvalues --   -0.61185  -0.61051  -0.60937  -0.60775  -0.60237
 Alpha  occ. eigenvalues --   -0.59462  -0.59248  -0.58891  -0.58507  -0.58092
 Alpha  occ. eigenvalues --   -0.57593  -0.57560  -0.56923  -0.56732  -0.56419
 Alpha  occ. eigenvalues --   -0.56047  -0.55852  -0.55486  -0.55256  -0.54650
 Alpha  occ. eigenvalues --   -0.54521  -0.53701  -0.53518  -0.53111  -0.52784
 Alpha  occ. eigenvalues --   -0.52690  -0.52610  -0.52307  -0.51654  -0.51538
 Alpha  occ. eigenvalues --   -0.51292  -0.51025  -0.50893  -0.50593  -0.50479
 Alpha  occ. eigenvalues --   -0.50163  -0.50085  -0.49763  -0.49587  -0.49307
 Alpha  occ. eigenvalues --   -0.49006  -0.48518  -0.48284  -0.48052  -0.47821
 Alpha  occ. eigenvalues --   -0.47695  -0.47302  -0.47024  -0.46972  -0.46867
 Alpha  occ. eigenvalues --   -0.46693  -0.46084  -0.46033  -0.45917  -0.45281
 Alpha  occ. eigenvalues --   -0.45059  -0.44855  -0.44763  -0.44210  -0.43979
 Alpha  occ. eigenvalues --   -0.43643  -0.43501  -0.42624  -0.42254  -0.42171
 Alpha  occ. eigenvalues --   -0.41990  -0.41211  -0.40461  -0.39657  -0.38454
 Alpha  occ. eigenvalues --   -0.37781  -0.37409  -0.36237  -0.34407  -0.33903
 Alpha  occ. eigenvalues --   -0.33653  -0.32370  -0.32259  -0.31673  -0.26836
 Alpha  occ. eigenvalues --   -0.21858
 Alpha virt. eigenvalues --   -0.09025  -0.01936  -0.00842   0.01024   0.01382
 Alpha virt. eigenvalues --    0.02184   0.02535   0.02715   0.04216   0.04878
 Alpha virt. eigenvalues --    0.05986   0.06581   0.06963   0.07622   0.07836

 Mulliken charges:
               1
     1  Mg   0.427060
     2  C   -0.040814
     3  C   -0.112724
     4  C   -0.059404
     5  C   -0.056516
     6  N   -0.310077
     7  C    0.109648
     8  C    0.014586
     9  C    0.018444
    10  C    0.162745
    11  C   -0.054408
    12  C   -0.025174
    13  C    0.008054
    14  C    0.467269
    15  O   -0.494750
    16  O   -0.291669
    17  N   -0.328688
    18  C    0.141580
    19  C    0.014341
    20  C   -0.046924
    21  C    0.142718
    22  C   -0.042392
    23  C    0.329143
    24  O   -0.525799
    25  C   -0.039515
    26  N   -0.254780
    27  C    0.158197
    28  C    0.011699
    29  C    0.005351
    30  C    0.089892
    31  C   -0.046383
    32  C   -0.038652
    33  C   -0.067565
    34  N   -0.314449
    35  C    0.065791
    36  C    0.019704
    37  C   -0.049045
    38  C    0.117232
    39  C   -0.037284
    40  C    0.329904
    41  O   -0.540906
    42  C    0.050889
    43  C    0.481344
    44  O   -0.544511
    45  O   -0.264632
    46  C    0.073783
    47  C    0.107313
    48  C   -0.082527
    49  C   -0.012322
    50  C   -0.036769
    51  C   -0.023794
    52  C   -0.040124
    53  C   -0.034186
    54  C   -0.009315
    55  C   -0.056041
    56  C   -0.036176
    57  C   -0.036297
    58  C   -0.030759
    59  C   -0.011059
    60  C   -0.064320
    61  C   -0.033392
    62  C   -0.051147
    63  C   -0.036819
    64  C   -0.018444
    65  C   -0.066924
    66  C   -0.060904
    67  H    0.024689
    68  H    0.050223
    69  H    0.027941
    70  H    0.042025
    71  H    0.036572
    72  H    0.023424
    73  H    0.029356
    74  H    0.012103
    75  H    0.025700
    76  H    0.042939
    77  H    0.032510
    78  H    0.046060
    79  H    0.033831
    80  H    0.043932
    81  H    0.019845
    82  H    0.039716
    83  H    0.056207
    84  H    0.034590
    85  H    0.024811
    86  H    0.032874
    87  H    0.027025
    88  H    0.023891
    89  H    0.025044
    90  H    0.024497
    91  H    0.029377
    92  H    0.013577
    93  H    0.022195
    94  H    0.024852
    95  H    0.040106
    96  H    0.034220
    97  H    0.016818
    98  H    0.058473
    99  H    0.040470
   100  H    0.050391
   101  H    0.038859
   102  H    0.045329
   103  H    0.041548
   104  H    0.025611
   105  H    0.024650
   106  H    0.027883
   107  H    0.034008
   108  H    0.024588
   109  H    0.024448
   110  H    0.016902
   111  H    0.016762
   112  H    0.015838
   113  H    0.017991
   114  H    0.031780
   115  H    0.017312
   116  H    0.025876
   117  H    0.012323
   118  H    0.009762
   119  H    0.008696
   120  H    0.010387
   121  H    0.025090
   122  H    0.010177
   123  H    0.030479
   124  H    0.024097
   125  H    0.016422
   126  H    0.018131
   127  H    0.012033
   128  H    0.015823
   129  H    0.021691
   130  H    0.021480
   131  H    0.015766
   132  H    0.016259
   133  H    0.020679
   134  H    0.023557
   135  H    0.017728
   136  H    0.025281
   137  H    0.021126
   138  H    0.022911
   139  H    0.019739
   140  H    0.022390
 Sum of Mulliken charges =   0.00000

 Dipole moment (field-independent basis, Debye):
    X=              7.6395    Y=              6.0017    Z=             -2.9031  Tot=             10.1395
 N-N= 4.330198216363D+03 E-N= 0.000000000000D+00  KE=-9.334452491491D+03
 Leave Link  601 at Wed May  4 02:15:05 2022, MaxMem=  6710886400 cpu:               0.8 elap:               0.0
 (Enter /sw/apps/gaussian-16.0/g16/l9999.exe)
 1\1\GINC-BP1-COMPUTE102\SP\RZINDO CIS\STO-3G\C55H74Mg1N4O6\OF15641\04-
 May-2022\0\\#p ZINDO=(nstates=5)\\step_1251_chromophore_15 ZINDO\\0,1\
 Mg,0,45.513,35.252,27.648\C,0,43.588,33.453,29.978\C,0,45.916,37.765,2
 9.968\C,0,46.818,37.264,25.154\C,0,44.855,32.832,25.209\N,0,44.973,35.
 437,29.78\C,0,44.226,34.555,30.554\C,0,44.378,35.059,32.092\C,0,44.722
 ,36.512,31.887\C,0,45.181,36.645,30.461\C,0,43.453,37.388,32.147\C,0,4
 5.578,34.282,32.821\C,0,45.354,34.008,34.379\C,0,44.316,34.858,35.131\

 Normal termination of Gaussian 16 at Wed May  4 02:15:05 2022.
