 Gaussian 16, Revision A.03,
 Gaussian 16:  ES64L-G16RevA.03 25-Dec-2016

 ------------------------------
 #p blyp/Def2SVP td=(nstates=5)
 ------------------------------

 ---------------------------------------------------
 step_1851_chromophore_12 TDDFT with blyp functional
 ---------------------------------------------------
 Symbolic Z-matrix:
 Charge =  0 Multiplicity = 1

                         Standard orientation:
 ---------------------------------------------------------------------
 Center     Atomic      Atomic             Coordinates (Angstroms)
 Number     Number       Type             X           Y           Z
 ---------------------------------------------------------------------
      1         12           0       -4.079115    0.319671   -0.285305
      2          6           0       -2.818182   -2.839086    0.772534
      3          6           0       -0.914535    1.465306   -0.699329
      4          6           0       -5.467977    3.194101   -1.231356
      5          6           0       -7.419671   -0.872908    0.550950
      6          7           0       -2.199793   -0.593834    0.047103
      7          6           0       -1.836069   -1.890725    0.386927
      8          6           0       -0.390819   -2.176322    0.183480
      9          6           0        0.184930   -0.670845    0.197027
     10          6           0       -1.055268    0.152370   -0.278583
     11          6           0        0.728824   -0.273073    1.608027
     12          6           0       -0.010224   -2.926689   -1.115420
     13          6           0        1.390221   -3.658982   -1.050746
     14          6           0        2.451847   -3.861754   -2.100353
     15          8           0        2.311047   -3.804179   -3.315599
     16          8           0        3.690432   -4.164594   -1.602526
     17          7           0       -3.303636    2.136057   -0.818617
     18          6           0       -1.929286    2.380857   -1.005298
     19          6           0       -1.820651    3.756654   -1.490249
     20          6           0       -3.146264    4.261671   -1.622028
     21          6           0       -4.069776    3.204752   -1.252634
     22          6           0       -0.435142    4.262021   -1.758153
     23          6           0       -3.649112    5.691225   -2.083077
     24          8           0       -4.839629    6.077796   -2.173705
     25          6           0       -2.662140    6.702792   -2.346184
     26          7           0       -6.158688    1.082918   -0.140893
     27          6           0       -6.407084    2.260914   -0.768101
     28          6           0       -7.860917    2.501991   -0.948158
     29          6           0       -8.492870    1.196787   -0.427587
     30          6           0       -7.305935    0.376369   -0.014629
     31          6           0       -8.403287    3.745035   -0.310287
     32          6           0       -9.377157    0.528031   -1.527401
     33          6           0       -8.704089    0.165569   -2.840445
     34          7           0       -5.019434   -1.483087    0.580061
     35          6           0       -6.346432   -1.788757    0.762907
     36          6           0       -6.390909   -3.041792    1.454779
     37          6           0       -5.021000   -3.599324    1.305415
     38          6           0       -4.210460   -2.552590    0.849890
     39          6           0       -7.610066   -3.737795    1.909662
     40          6           0       -4.207423   -4.743951    1.498771
     41          8           0       -4.533352   -5.850281    1.792669
     42          6           0       -2.708934   -4.294062    1.124618
     43          6           0       -1.893250   -4.593275    2.357809
     44          8           0       -1.955156   -3.871574    3.356807
     45          8           0       -1.222725   -5.811534    2.227877
     46          6           0       -0.249923   -6.035284    3.300714
     47          6           0        4.762449   -4.172740   -2.576241
     48          6           0        6.051048   -3.828437   -1.842576
     49          6           0        7.131328   -3.368480   -2.318768
     50          6           0        7.301551   -3.138414   -3.774064
     51          6           0        8.323164   -3.014609   -1.381205
     52          6           0        9.243508   -1.938737   -1.913248
     53          6           0       10.295328   -1.506076   -0.976947
     54          6           0       10.428118    0.008213   -0.763043
     55          6           0       11.999245    0.203095   -0.413228
     56          6           0        9.495768    0.504625    0.369060
     57          6           0        8.860659    1.919116    0.079936
     58          6           0        8.592784    2.652630    1.382301
     59          6           0        7.433155    3.669361    1.349930
     60          6           0        7.998687    5.128836    1.266043
     61          6           0        6.493860    3.680411    2.624529
     62          6           0        4.982088    3.578261    2.289541
     63          6           0        4.123656    4.303241    3.407551
     64          6           0        2.872081    5.020480    2.790886
     65          6           0        2.337696    5.980226    3.918678
     66          6           0        1.853808    3.948331    2.345775
     67          1           0        0.146442    1.721205   -0.681786
     68          1           0       -5.870304    4.129373   -1.626696
     69          1           0       -8.439310   -1.261825    0.532964
     70          1           0       -0.023115   -2.811676    0.987883
     71          1           0        1.002388   -0.459301   -0.491657
     72          1           0        0.608697   -1.044031    2.368921
     73          1           0        0.206553    0.630160    1.922785
     74          1           0        1.796374   -0.194788    1.400921
     75          1           0       -0.079639   -2.261074   -1.975338
     76          1           0       -0.814627   -3.650348   -1.245710
     77          1           0        1.057510   -4.646166   -0.729884
     78          1           0        1.858764   -3.224910   -0.167232
     79          1           0       -0.417781    5.093466   -2.462963
     80          1           0        0.264185    3.541985   -2.184419
     81          1           0       -0.098415    4.481902   -0.745195
     82          1           0       -1.905209    6.854072   -1.575324
     83          1           0       -3.152361    7.670262   -2.459784
     84          1           0       -2.160703    6.570013   -3.304447
     85          1           0       -8.041650    2.670101   -2.009555
     86          1           0       -9.190288    1.362958    0.394701
     87          1           0       -8.837746    4.436739   -1.031755
     88          1           0       -7.561948    4.279430    0.130215
     89          1           0       -9.187841    3.595601    0.431166
     90          1           0      -10.109418    1.266631   -1.854965
     91          1           0       -9.958385   -0.215208   -0.981585
     92          1           0       -7.633219    0.370363   -2.834583
     93          1           0       -9.195515    0.616437   -3.702375
     94          1           0       -8.723521   -0.895960   -3.089333
     95          1           0       -7.158155   -4.478901    2.569429
     96          1           0       -8.091920   -4.222290    1.060065
     97          1           0       -8.355147   -3.146874    2.443090
     98          1           0       -2.269073   -4.929781    0.355835
     99          1           0       -0.051523   -7.101554    3.412014
    100          1           0       -0.668898   -5.858402    4.291334
    101          1           0        0.603327   -5.413019    3.029831
    102          1           0        4.561489   -3.448285   -3.365307
    103          1           0        4.975600   -5.100486   -3.107719
    104          1           0        6.052096   -4.095673   -0.786218
    105          1           0        7.632724   -2.104766   -3.871983
    106          1           0        6.405769   -3.172480   -4.394580
    107          1           0        8.051557   -3.854254   -4.108482
    108          1           0        8.823347   -3.981255   -1.314392
    109          1           0        7.897417   -2.657709   -0.443895
    110          1           0        8.718872   -1.026416   -2.196024
    111          1           0        9.725560   -2.354901   -2.799046
    112          1           0       11.202918   -2.008177   -1.311280
    113          1           0       10.072843   -1.928386    0.003265
    114          1           0       10.412813    0.528054   -1.721148
    115          1           0       12.143295    0.632974    0.578066
    116          1           0       12.491331    0.817214   -1.168297
    117          1           0       12.517070   -0.739363   -0.238166
    118          1           0       10.002791    0.394822    1.327410
    119          1           0        8.625956   -0.151287    0.337112
    120          1           0        7.978710    1.730911   -0.533123
    121          1           0        9.634318    2.480718   -0.443428
    122          1           0        9.545529    3.156043    1.544019
    123          1           0        8.433348    1.938927    2.190803
    124          1           0        6.879582    3.471738    0.432531
    125          1           0        7.281381    5.861835    0.898604
    126          1           0        8.709049    5.003298    0.448594
    127          1           0        8.436539    5.404023    2.226273
    128          1           0        6.749659    4.603182    3.145275
    129          1           0        6.656423    2.804563    3.252736
    130          1           0        4.789580    2.507076    2.229865
    131          1           0        4.765978    4.015390    1.314088
    132          1           0        4.705588    4.973672    4.040897
    133          1           0        3.945476    3.484457    4.105164
    134          1           0        3.263301    5.652942    1.993930
    135          1           0        1.323899    5.724335    4.224940
    136          1           0        2.292850    7.031766    3.635638
    137          1           0        2.909265    6.034952    4.845045
    138          1           0        1.138094    3.643924    3.110166
    139          1           0        2.465715    3.067422    2.152661
    140          1           0        1.223339    4.237747    1.504936
 ---------------------------------------------------------------------

 SCF Done:  E(RB-LYP) =  -3007.35561316     A.U. after   21 cycles

 Excitation energies and oscillator strengths:

 Excited State   1:      Singlet-A      1.7536 eV  707.02 nm  f=0.2121  <S**2>=0.000
     244 -> 247        0.37545
     245 -> 248       -0.14068
     246 -> 247        0.58942
     246 <- 247       -0.13115
 This state for optimization and/or second-order correction.
 Total Energy, E(TD-HF/TD-DFT) =  -3007.29116859
 Copying the excited state density for this state as the 1-particle RhoCI density.

 Excited State   2:      Singlet-A      1.8095 eV  685.17 nm  f=0.0990  <S**2>=0.000
     244 -> 247        0.59859
     246 -> 247       -0.36571

 Excited State   3:      Singlet-A      1.9544 eV  634.38 nm  f=0.0387  <S**2>=0.000
     242 -> 247        0.43734
     243 -> 247        0.18893
     245 -> 247        0.49156
     246 -> 248        0.15136

 Excited State   4:      Singlet-A      2.0094 eV  617.02 nm  f=0.0329  <S**2>=0.000
     242 -> 247        0.55293
     243 -> 247       -0.10967
     245 -> 247       -0.38826
     246 -> 248       -0.14510

 Excited State   5:      Singlet-A      2.0990 eV  590.69 nm  f=0.0223  <S**2>=0.000
     243 -> 247        0.66251
     245 -> 247       -0.19824

 The electronic state is 1-A.
 Alpha  occ. eigenvalues --  -46.27101 -18.82233 -18.82230 -18.76637 -18.76478
 Alpha  occ. eigenvalues --  -18.76398 -18.75391 -14.03849 -14.03082 -14.01323
 Alpha  occ. eigenvalues --  -14.00091 -10.04661 -10.03751 -10.00687  -9.99014
 Alpha  occ. eigenvalues --   -9.97677  -9.97569  -9.97150  -9.96957  -9.96330
 Alpha  occ. eigenvalues --   -9.96185  -9.96090  -9.95923  -9.95091  -9.94742
 Alpha  occ. eigenvalues --   -9.94733  -9.94700  -9.94500  -9.94255  -9.94139
 Alpha  occ. eigenvalues --   -9.94095  -9.93798  -9.93712  -9.93607  -9.93559
 Alpha  occ. eigenvalues --   -9.93541  -9.93264  -9.93047  -9.92796  -9.92724
 Alpha  occ. eigenvalues --   -9.92671  -9.92515  -9.92471  -9.92219  -9.92138
 Alpha  occ. eigenvalues --   -9.91990  -9.91937  -9.91933  -9.91872  -9.91742
 Alpha  occ. eigenvalues --   -9.91727  -9.91685  -9.91505  -9.91480  -9.91441
 Alpha  occ. eigenvalues --   -9.91360  -9.91190  -9.91160  -9.91090  -9.91023
 Alpha  occ. eigenvalues --   -9.91003  -9.90933  -9.90783  -9.90617  -9.90582
 Alpha  occ. eigenvalues --   -9.89970  -2.91631  -1.72068  -1.71510  -1.71340
 Alpha  occ. eigenvalues --   -0.98542  -0.96720  -0.92679  -0.90801  -0.89466
 Alpha  occ. eigenvalues --   -0.89412  -0.86822  -0.85423  -0.84697  -0.84160
 Alpha  occ. eigenvalues --   -0.75330  -0.74518  -0.73170  -0.72913  -0.72785
 Alpha  occ. eigenvalues --   -0.72417  -0.72203  -0.71300  -0.71130  -0.70484
 Alpha  occ. eigenvalues --   -0.69422  -0.69140  -0.68586  -0.67694  -0.67415
 Alpha  occ. eigenvalues --   -0.66617  -0.66560  -0.65821  -0.65244  -0.64784
 Alpha  occ. eigenvalues --   -0.64187  -0.62890  -0.62601  -0.62045  -0.60886
 Alpha  occ. eigenvalues --   -0.60588  -0.60562  -0.60002  -0.59557  -0.58690
 Alpha  occ. eigenvalues --   -0.58588  -0.57483  -0.56967  -0.56009  -0.55563
 Alpha  occ. eigenvalues --   -0.53800  -0.53593  -0.52596  -0.51997  -0.51414
 Alpha  occ. eigenvalues --   -0.51063  -0.50804  -0.50755  -0.50303  -0.50256
 Alpha  occ. eigenvalues --   -0.50036  -0.49930  -0.49060  -0.48049  -0.46869
 Alpha  occ. eigenvalues --   -0.46788  -0.45930  -0.45454  -0.45171  -0.44138
 Alpha  occ. eigenvalues --   -0.43791  -0.43522  -0.43236  -0.43056  -0.43010
 Alpha  occ. eigenvalues --   -0.42696  -0.42591  -0.42232  -0.41900  -0.41362
 Alpha  occ. eigenvalues --   -0.41152  -0.40851  -0.40669  -0.40432  -0.40320
 Alpha  occ. eigenvalues --   -0.40114  -0.40022  -0.39871  -0.39780  -0.39591
 Alpha  occ. eigenvalues --   -0.39497  -0.39299  -0.38877  -0.38736  -0.38427
 Alpha  occ. eigenvalues --   -0.38150  -0.38002  -0.37853  -0.37701  -0.37342
 Alpha  occ. eigenvalues --   -0.37242  -0.37209  -0.37021  -0.36930  -0.36727
 Alpha  occ. eigenvalues --   -0.36633  -0.36393  -0.35945  -0.35875  -0.35784
 Alpha  occ. eigenvalues --   -0.35598  -0.35532  -0.35490  -0.34933  -0.34770
 Alpha  occ. eigenvalues --   -0.34700  -0.34451  -0.34359  -0.34029  -0.33824
 Alpha  occ. eigenvalues --   -0.33660  -0.33558  -0.33526  -0.33263  -0.33098
 Alpha  occ. eigenvalues --   -0.32828  -0.32755  -0.32360  -0.32231  -0.32184
 Alpha  occ. eigenvalues --   -0.32024  -0.31954  -0.31603  -0.31317  -0.31312
 Alpha  occ. eigenvalues --   -0.31107  -0.31062  -0.30968  -0.30877  -0.30792
 Alpha  occ. eigenvalues --   -0.30581  -0.30287  -0.30283  -0.29990  -0.29847
 Alpha  occ. eigenvalues --   -0.29825  -0.29554  -0.29528  -0.29403  -0.28942
 Alpha  occ. eigenvalues --   -0.28818  -0.28777  -0.28078  -0.27970  -0.27924
 Alpha  occ. eigenvalues --   -0.27701  -0.27463  -0.27380  -0.27343  -0.26835
 Alpha  occ. eigenvalues --   -0.26461  -0.26300  -0.25809  -0.25578  -0.25493
 Alpha  occ. eigenvalues --   -0.25075  -0.25064  -0.24723  -0.24112  -0.23650
 Alpha  occ. eigenvalues --   -0.22463  -0.22254  -0.21575  -0.21519  -0.20848
 Alpha  occ. eigenvalues --   -0.20504  -0.19339  -0.19195  -0.18626  -0.17647
 Alpha  occ. eigenvalues --   -0.16216
 Alpha virt. eigenvalues --   -0.12117  -0.07128  -0.06495  -0.04978  -0.03175
 Alpha virt. eigenvalues --   -0.02850  -0.02484  -0.01884  -0.00224   0.00682
 Alpha virt. eigenvalues --    0.00778   0.00824   0.01799   0.02251   0.02376

 Mulliken charges:
               1
     1  Mg   0.655811
     2  C    0.060856
     3  C   -0.060030
     4  C   -0.037098
     5  C   -0.045824
     6  N   -0.262177
     7  C   -0.041286
     8  C   -0.008523
     9  C   -0.046587
    10  C    0.041306
    11  C    0.130491
    12  C    0.154385
    13  C    0.086646
    14  C    0.093502
    15  O   -0.191671
    16  O   -0.263538
    17  N   -0.352566
    18  C    0.173415
    19  C   -0.133769
    20  C    0.014336
    21  C    0.087145
    22  C    0.165381
    23  C   -0.030709
    24  O   -0.181304
    25  C    0.130421
    26  N   -0.178913
    27  C    0.035770
    28  C    0.018160
    29  C    0.059513
    30  C    0.021798
    31  C    0.135644
    32  C    0.066804
    33  C    0.069824
    34  N   -0.237179
    35  C    0.109313
    36  C   -0.174696
    37  C    0.089385
    38  C    0.059232
    39  C    0.158892
    40  C   -0.090850
    41  O   -0.096006
    42  C    0.035747
    43  C    0.101811
    44  O   -0.194630
    45  O   -0.278781
    46  C    0.222450
    47  C    0.328735
    48  C   -0.145268
    49  C   -0.153588
    50  C    0.164928
    51  C    0.135048
    52  C    0.050156
    53  C    0.122889
    54  C   -0.089257
    55  C    0.077790
    56  C    0.115926
    57  C    0.058130
    58  C    0.100766
    59  C   -0.073831
    60  C    0.090049
    61  C    0.111071
    62  C    0.036617
    63  C    0.043646
    64  C   -0.043328
    65  C    0.091979
    66  C    0.106071
    67  H   -0.054518
    68  H   -0.048027
    69  H   -0.052936
    70  H   -0.031016
    71  H   -0.034295
    72  H    0.005054
    73  H    0.009317
    74  H   -0.002704
    75  H   -0.017072
    76  H   -0.026110
    77  H    0.020024
    78  H   -0.001461
    79  H   -0.009266
    80  H    0.002971
    81  H    0.016952
    82  H    0.009284
    83  H   -0.012995
    84  H    0.014400
    85  H   -0.016102
    86  H   -0.027873
    87  H   -0.017897
    88  H   -0.003605
    89  H   -0.014927
    90  H   -0.028809
    91  H   -0.021298
    92  H    0.000858
    93  H   -0.008163
    94  H   -0.014737
    95  H    0.013396
    96  H    0.011756
    97  H   -0.004346
    98  H   -0.010736
    99  H    0.012797
   100  H    0.017555
   101  H    0.014983
   102  H    0.003699
   103  H    0.001605
   104  H   -0.056232
   105  H   -0.007642
   106  H   -0.022958
   107  H    0.002148
   108  H   -0.013901
   109  H   -0.018851
   110  H   -0.023091
   111  H   -0.032360
   112  H   -0.040676
   113  H   -0.046036
   114  H   -0.032696
   115  H   -0.033775
   116  H   -0.005545
   117  H   -0.019863
   118  H   -0.017145
   119  H   -0.032437
   120  H   -0.021947
   121  H   -0.022351
   122  H   -0.035345
   123  H   -0.032449
   124  H   -0.040051
   125  H   -0.017028
   126  H   -0.024744
   127  H    0.003647
   128  H   -0.031317
   129  H   -0.037573
   130  H   -0.016473
   131  H   -0.027633
   132  H   -0.027088
   133  H   -0.034163
   134  H   -0.025321
   135  H   -0.024265
   136  H   -0.024293
   137  H   -0.019221
   138  H   -0.012601
   139  H   -0.013770
   140  H   -0.011146
 Sum of Mulliken charges =  -0.00000

 Dipole moment (field-independent basis, Debye):
    X=              3.7179    Y=              2.6121    Z=             -1.3952  Tot=              4.7531
 Quadrupole moment (field-independent basis, Debye-Ang):
   XX=           -369.3314   YY=           -430.6357   ZZ=           -415.6893
   XY=            -11.1172   XZ=              8.5749   YZ=              1.1011

 Normal termination of Gaussian 16 at Wed May  4 15:27:39 2022.
