 Gaussian 16, Revision A.03,
 Gaussian 16:  ES64L-G16RevA.03 25-Dec-2016

 -----------------------------------
 #p cam-b3lyp/Def2SVP td=(nstates=5)
 -----------------------------------

 --------------------------------------------------------
 step_1851_chromophore_12 TDDFT with cam-b3lyp functional
 --------------------------------------------------------
 Symbolic Z-matrix:
 Charge =  0 Multiplicity = 1

                         Standard orientation:
 ---------------------------------------------------------------------
 Center     Atomic      Atomic             Coordinates (Angstroms)
 Number     Number       Type             X           Y           Z
 ---------------------------------------------------------------------
      1         12           0       -4.079115    0.319671   -0.285305
      2          6           0       -2.818182   -2.839086    0.772534
      3          6           0       -0.914535    1.465306   -0.699329
      4          6           0       -5.467977    3.194101   -1.231356
      5          6           0       -7.419671   -0.872908    0.550950
      6          7           0       -2.199793   -0.593834    0.047103
      7          6           0       -1.836069   -1.890725    0.386927
      8          6           0       -0.390819   -2.176322    0.183480
      9          6           0        0.184930   -0.670845    0.197027
     10          6           0       -1.055268    0.152370   -0.278583
     11          6           0        0.728824   -0.273073    1.608027
     12          6           0       -0.010224   -2.926689   -1.115420
     13          6           0        1.390221   -3.658982   -1.050746
     14          6           0        2.451847   -3.861754   -2.100353
     15          8           0        2.311047   -3.804179   -3.315599
     16          8           0        3.690432   -4.164594   -1.602526
     17          7           0       -3.303636    2.136057   -0.818617
     18          6           0       -1.929286    2.380857   -1.005298
     19          6           0       -1.820651    3.756654   -1.490249
     20          6           0       -3.146264    4.261671   -1.622028
     21          6           0       -4.069776    3.204752   -1.252634
     22          6           0       -0.435142    4.262021   -1.758153
     23          6           0       -3.649112    5.691225   -2.083077
     24          8           0       -4.839629    6.077796   -2.173705
     25          6           0       -2.662140    6.702792   -2.346184
     26          7           0       -6.158688    1.082918   -0.140893
     27          6           0       -6.407084    2.260914   -0.768101
     28          6           0       -7.860917    2.501991   -0.948158
     29          6           0       -8.492870    1.196787   -0.427587
     30          6           0       -7.305935    0.376369   -0.014629
     31          6           0       -8.403287    3.745035   -0.310287
     32          6           0       -9.377157    0.528031   -1.527401
     33          6           0       -8.704089    0.165569   -2.840445
     34          7           0       -5.019434   -1.483087    0.580061
     35          6           0       -6.346432   -1.788757    0.762907
     36          6           0       -6.390909   -3.041792    1.454779
     37          6           0       -5.021000   -3.599324    1.305415
     38          6           0       -4.210460   -2.552590    0.849890
     39          6           0       -7.610066   -3.737795    1.909662
     40          6           0       -4.207423   -4.743951    1.498771
     41          8           0       -4.533352   -5.850281    1.792669
     42          6           0       -2.708934   -4.294062    1.124618
     43          6           0       -1.893250   -4.593275    2.357809
     44          8           0       -1.955156   -3.871574    3.356807
     45          8           0       -1.222725   -5.811534    2.227877
     46          6           0       -0.249923   -6.035284    3.300714
     47          6           0        4.762449   -4.172740   -2.576241
     48          6           0        6.051048   -3.828437   -1.842576
     49          6           0        7.131328   -3.368480   -2.318768
     50          6           0        7.301551   -3.138414   -3.774064
     51          6           0        8.323164   -3.014609   -1.381205
     52          6           0        9.243508   -1.938737   -1.913248
     53          6           0       10.295328   -1.506076   -0.976947
     54          6           0       10.428118    0.008213   -0.763043
     55          6           0       11.999245    0.203095   -0.413228
     56          6           0        9.495768    0.504625    0.369060
     57          6           0        8.860659    1.919116    0.079936
     58          6           0        8.592784    2.652630    1.382301
     59          6           0        7.433155    3.669361    1.349930
     60          6           0        7.998687    5.128836    1.266043
     61          6           0        6.493860    3.680411    2.624529
     62          6           0        4.982088    3.578261    2.289541
     63          6           0        4.123656    4.303241    3.407551
     64          6           0        2.872081    5.020480    2.790886
     65          6           0        2.337696    5.980226    3.918678
     66          6           0        1.853808    3.948331    2.345775
     67          1           0        0.146442    1.721205   -0.681786
     68          1           0       -5.870304    4.129373   -1.626696
     69          1           0       -8.439310   -1.261825    0.532964
     70          1           0       -0.023115   -2.811676    0.987883
     71          1           0        1.002388   -0.459301   -0.491657
     72          1           0        0.608697   -1.044031    2.368921
     73          1           0        0.206553    0.630160    1.922785
     74          1           0        1.796374   -0.194788    1.400921
     75          1           0       -0.079639   -2.261074   -1.975338
     76          1           0       -0.814627   -3.650348   -1.245710
     77          1           0        1.057510   -4.646166   -0.729884
     78          1           0        1.858764   -3.224910   -0.167232
     79          1           0       -0.417781    5.093466   -2.462963
     80          1           0        0.264185    3.541985   -2.184419
     81          1           0       -0.098415    4.481902   -0.745195
     82          1           0       -1.905209    6.854072   -1.575324
     83          1           0       -3.152361    7.670262   -2.459784
     84          1           0       -2.160703    6.570013   -3.304447
     85          1           0       -8.041650    2.670101   -2.009555
     86          1           0       -9.190288    1.362958    0.394701
     87          1           0       -8.837746    4.436739   -1.031755
     88          1           0       -7.561948    4.279430    0.130215
     89          1           0       -9.187841    3.595601    0.431166
     90          1           0      -10.109418    1.266631   -1.854965
     91          1           0       -9.958385   -0.215208   -0.981585
     92          1           0       -7.633219    0.370363   -2.834583
     93          1           0       -9.195515    0.616437   -3.702375
     94          1           0       -8.723521   -0.895960   -3.089333
     95          1           0       -7.158155   -4.478901    2.569429
     96          1           0       -8.091920   -4.222290    1.060065
     97          1           0       -8.355147   -3.146874    2.443090
     98          1           0       -2.269073   -4.929781    0.355835
     99          1           0       -0.051523   -7.101554    3.412014
    100          1           0       -0.668898   -5.858402    4.291334
    101          1           0        0.603327   -5.413019    3.029831
    102          1           0        4.561489   -3.448285   -3.365307
    103          1           0        4.975600   -5.100486   -3.107719
    104          1           0        6.052096   -4.095673   -0.786218
    105          1           0        7.632724   -2.104766   -3.871983
    106          1           0        6.405769   -3.172480   -4.394580
    107          1           0        8.051557   -3.854254   -4.108482
    108          1           0        8.823347   -3.981255   -1.314392
    109          1           0        7.897417   -2.657709   -0.443895
    110          1           0        8.718872   -1.026416   -2.196024
    111          1           0        9.725560   -2.354901   -2.799046
    112          1           0       11.202918   -2.008177   -1.311280
    113          1           0       10.072843   -1.928386    0.003265
    114          1           0       10.412813    0.528054   -1.721148
    115          1           0       12.143295    0.632974    0.578066
    116          1           0       12.491331    0.817214   -1.168297
    117          1           0       12.517070   -0.739363   -0.238166
    118          1           0       10.002791    0.394822    1.327410
    119          1           0        8.625956   -0.151287    0.337112
    120          1           0        7.978710    1.730911   -0.533123
    121          1           0        9.634318    2.480718   -0.443428
    122          1           0        9.545529    3.156043    1.544019
    123          1           0        8.433348    1.938927    2.190803
    124          1           0        6.879582    3.471738    0.432531
    125          1           0        7.281381    5.861835    0.898604
    126          1           0        8.709049    5.003298    0.448594
    127          1           0        8.436539    5.404023    2.226273
    128          1           0        6.749659    4.603182    3.145275
    129          1           0        6.656423    2.804563    3.252736
    130          1           0        4.789580    2.507076    2.229865
    131          1           0        4.765978    4.015390    1.314088
    132          1           0        4.705588    4.973672    4.040897
    133          1           0        3.945476    3.484457    4.105164
    134          1           0        3.263301    5.652942    1.993930
    135          1           0        1.323899    5.724335    4.224940
    136          1           0        2.292850    7.031766    3.635638
    137          1           0        2.909265    6.034952    4.845045
    138          1           0        1.138094    3.643924    3.110166
    139          1           0        2.465715    3.067422    2.152661
    140          1           0        1.223339    4.237747    1.504936
 ---------------------------------------------------------------------

 SCF Done:  E(RCAM-B3LYP) =  -3007.14977000     A.U. after   19 cycles

 Excitation energies and oscillator strengths:

 Excited State   1:      Singlet-A      1.6604 eV  746.72 nm  f=0.3812  <S**2>=0.000
     245 -> 248       -0.17403
     246 -> 247        0.68806
     245 <- 248       -0.10924
 This state for optimization and/or second-order correction.
 Total Energy, E(TD-HF/TD-DFT) =  -3007.08875161
 Copying the excited state density for this state as the 1-particle RhoCI density.

 Excited State   2:      Singlet-A      2.1798 eV  568.78 nm  f=0.1251  <S**2>=0.000
     245 -> 247        0.64560
     246 -> 248        0.26770

 Excited State   3:      Singlet-A      2.8675 eV  432.38 nm  f=0.0111  <S**2>=0.000
     244 -> 247        0.68823

 Excited State   4:      Singlet-A      3.3695 eV  367.96 nm  f=0.0077  <S**2>=0.000
     240 -> 247        0.12815
     241 -> 247       -0.13681
     242 -> 247        0.64007
     246 -> 248       -0.19198

 Excited State   5:      Singlet-A      3.3981 eV  364.86 nm  f=0.0008  <S**2>=0.000
     238 -> 247        0.11329
     243 -> 247        0.62461
     243 -> 249       -0.18701
     243 -> 250       -0.18509

 The electronic state is 1-A.
 Alpha  occ. eigenvalues --  -46.88669 -19.25204 -19.25136 -19.19875 -19.19793
 Alpha  occ. eigenvalues --  -19.19500 -19.18243 -14.42775 -14.42014 -14.39953
 Alpha  occ. eigenvalues --  -14.38238 -10.39987 -10.39287 -10.36237 -10.34071
 Alpha  occ. eigenvalues --  -10.31703 -10.31668 -10.31584 -10.31552 -10.30960
 Alpha  occ. eigenvalues --  -10.30916 -10.30774 -10.30077 -10.29708 -10.28957
 Alpha  occ. eigenvalues --  -10.28772 -10.28749 -10.28638 -10.28622 -10.28320
 Alpha  occ. eigenvalues --  -10.28271 -10.28082 -10.27990 -10.27761 -10.27726
 Alpha  occ. eigenvalues --  -10.27660 -10.27062 -10.26858 -10.26670 -10.26566
 Alpha  occ. eigenvalues --  -10.26469 -10.26434 -10.26277 -10.26267 -10.26031
 Alpha  occ. eigenvalues --  -10.25875 -10.25793 -10.25664 -10.25458 -10.25395
 Alpha  occ. eigenvalues --  -10.25380 -10.25240 -10.25203 -10.25199 -10.25158
 Alpha  occ. eigenvalues --  -10.25135 -10.25131 -10.24843 -10.24806 -10.24687
 Alpha  occ. eigenvalues --  -10.24670 -10.24608 -10.24450 -10.24337 -10.24232
 Alpha  occ. eigenvalues --  -10.23867  -3.17098  -1.92013  -1.91554  -1.91392
 Alpha  occ. eigenvalues --   -1.17046  -1.15240  -1.10873  -1.09403  -1.07443
 Alpha  occ. eigenvalues --   -1.07293  -1.04575  -1.03111  -1.02300  -1.01589
 Alpha  occ. eigenvalues --   -0.92330  -0.91495  -0.90001  -0.89705  -0.89442
 Alpha  occ. eigenvalues --   -0.89263  -0.88965  -0.87907  -0.87776  -0.87342
 Alpha  occ. eigenvalues --   -0.85822  -0.85385  -0.84919  -0.83950  -0.83547
 Alpha  occ. eigenvalues --   -0.82955  -0.82707  -0.81812  -0.81058  -0.80638
 Alpha  occ. eigenvalues --   -0.79980  -0.78780  -0.78196  -0.77505  -0.76303
 Alpha  occ. eigenvalues --   -0.76006  -0.75951  -0.75312  -0.74857  -0.73930
 Alpha  occ. eigenvalues --   -0.73704  -0.72374  -0.71921  -0.70848  -0.70219
 Alpha  occ. eigenvalues --   -0.68409  -0.68152  -0.67061  -0.66359  -0.65460
 Alpha  occ. eigenvalues --   -0.65338  -0.64978  -0.64688  -0.64362  -0.64272
 Alpha  occ. eigenvalues --   -0.64061  -0.63809  -0.63007  -0.61705  -0.60648
 Alpha  occ. eigenvalues --   -0.60501  -0.59402  -0.58973  -0.58526  -0.57463
 Alpha  occ. eigenvalues --   -0.57132  -0.56947  -0.56435  -0.56313  -0.56182
 Alpha  occ. eigenvalues --   -0.55670  -0.55632  -0.55347  -0.54666  -0.54433
 Alpha  occ. eigenvalues --   -0.54236  -0.53859  -0.53614  -0.53200  -0.53089
 Alpha  occ. eigenvalues --   -0.52930  -0.52741  -0.52592  -0.52376  -0.52139
 Alpha  occ. eigenvalues --   -0.52124  -0.51963  -0.51414  -0.51213  -0.50910
 Alpha  occ. eigenvalues --   -0.50657  -0.50466  -0.50202  -0.50025  -0.49934
 Alpha  occ. eigenvalues --   -0.49469  -0.49368  -0.49291  -0.49141  -0.49042
 Alpha  occ. eigenvalues --   -0.48986  -0.48849  -0.48577  -0.48218  -0.48119
 Alpha  occ. eigenvalues --   -0.47877  -0.47585  -0.47354  -0.46897  -0.46663
 Alpha  occ. eigenvalues --   -0.46529  -0.46489  -0.46242  -0.45820  -0.45676
 Alpha  occ. eigenvalues --   -0.45519  -0.45426  -0.45233  -0.45080  -0.44902
 Alpha  occ. eigenvalues --   -0.44492  -0.44390  -0.44038  -0.43944  -0.43706
 Alpha  occ. eigenvalues --   -0.43617  -0.43522  -0.43252  -0.42967  -0.42781
 Alpha  occ. eigenvalues --   -0.42610  -0.42495  -0.42340  -0.42267  -0.42197
 Alpha  occ. eigenvalues --   -0.41945  -0.41670  -0.41638  -0.41618  -0.41329
 Alpha  occ. eigenvalues --   -0.41320  -0.41058  -0.40733  -0.40673  -0.40288
 Alpha  occ. eigenvalues --   -0.39878  -0.39842  -0.39012  -0.38934  -0.38840
 Alpha  occ. eigenvalues --   -0.38667  -0.38335  -0.38236  -0.38184  -0.37652
 Alpha  occ. eigenvalues --   -0.37368  -0.37066  -0.36916  -0.36845  -0.36723
 Alpha  occ. eigenvalues --   -0.36511  -0.35642  -0.35346  -0.34152  -0.34014
 Alpha  occ. eigenvalues --   -0.33991  -0.33522  -0.32957  -0.31919  -0.31541
 Alpha  occ. eigenvalues --   -0.30405  -0.30392  -0.30141  -0.27979  -0.24399
 Alpha  occ. eigenvalues --   -0.21580
 Alpha virt. eigenvalues --   -0.09373  -0.01949  -0.00074   0.02017   0.02786
 Alpha virt. eigenvalues --    0.04215   0.04855   0.05114   0.06222   0.07168
 Alpha virt. eigenvalues --    0.07538   0.07963   0.08332   0.08577   0.08895

 Mulliken charges:
               1
     1  Mg   0.787108
     2  C    0.032847
     3  C   -0.079516
     4  C   -0.057354
     5  C   -0.044935
     6  N   -0.333416
     7  C    0.006600
     8  C   -0.061088
     9  C   -0.099799
    10  C    0.060556
    11  C    0.078524
    12  C    0.110086
    13  C    0.011409
    14  C    0.178404
    15  O   -0.233778
    16  O   -0.328279
    17  N   -0.440543
    18  C    0.184779
    19  C   -0.139038
    20  C   -0.051539
    21  C    0.115769
    22  C    0.108137
    23  C    0.056202
    24  O   -0.221135
    25  C    0.038065
    26  N   -0.245294
    27  C    0.056526
    28  C   -0.044110
    29  C    0.002272
    30  C    0.031154
    31  C    0.074973
    32  C    0.017847
    33  C    0.003695
    34  N   -0.323028
    35  C    0.114592
    36  C   -0.161901
    37  C    0.007723
    38  C    0.092472
    39  C    0.100051
    40  C    0.001919
    41  O   -0.137486
    42  C   -0.035253
    43  C    0.189504
    44  O   -0.229552
    45  O   -0.342007
    46  C    0.180414
    47  C    0.295347
    48  C   -0.163434
    49  C   -0.174658
    50  C    0.095966
    51  C    0.083411
    52  C   -0.009139
    53  C    0.067136
    54  C   -0.150553
    55  C    0.023745
    56  C    0.064089
    57  C    0.009598
    58  C    0.046501
    59  C   -0.132430
    60  C    0.035354
    61  C    0.062284
    62  C   -0.014210
    63  C   -0.008983
    64  C   -0.107890
    65  C    0.033315
    66  C    0.055764
    67  H   -0.019745
    68  H   -0.005466
    69  H   -0.019520
    70  H    0.001138
    71  H   -0.000054
    72  H    0.030045
    73  H    0.032043
    74  H    0.019171
    75  H    0.014359
    76  H    0.004739
    77  H    0.050083
    78  H    0.029382
    79  H    0.018118
    80  H    0.032120
    81  H    0.041577
    82  H    0.038681
    83  H    0.024598
    84  H    0.042972
    85  H    0.019759
    86  H    0.008617
    87  H    0.008094
    88  H    0.022327
    89  H    0.011405
    90  H    0.000141
    91  H    0.006170
    92  H    0.020814
    93  H    0.016418
    94  H    0.011652
    95  H    0.038690
    96  H    0.035949
    97  H    0.020032
    98  H    0.031265
    99  H    0.036727
   100  H    0.043544
   101  H    0.035102
   102  H    0.032819
   103  H    0.028701
   104  H   -0.018811
   105  H    0.017041
   106  H    0.004448
   107  H    0.026401
   108  H    0.015820
   109  H    0.008329
   110  H    0.003076
   111  H   -0.003089
   112  H   -0.008908
   113  H   -0.015277
   114  H    0.000165
   115  H   -0.009843
   116  H    0.017608
   117  H    0.004717
   118  H    0.010247
   119  H   -0.005909
   120  H    0.004484
   121  H    0.003222
   122  H   -0.005753
   123  H   -0.003710
   124  H   -0.008832
   125  H    0.007775
   126  H   -0.001664
   127  H    0.025424
   128  H   -0.004276
   129  H   -0.008848
   130  H    0.008647
   131  H   -0.002179
   132  H    0.001519
   133  H   -0.004638
   134  H    0.005805
   135  H    0.000179
   136  H    0.000259
   137  H    0.005392
   138  H    0.011811
   139  H    0.005973
   140  H    0.007139
 Sum of Mulliken charges =  -0.00000

 Dipole moment (field-independent basis, Debye):
    X=              4.2704    Y=              3.5301    Z=             -1.6824  Tot=              5.7904
 Quadrupole moment (field-independent basis, Debye-Ang):
   XX=           -369.7455   YY=           -427.7325   ZZ=           -415.3659
   XY=            -14.2807   XZ=             10.2851   YZ=             -0.7671

 Normal termination of Gaussian 16 at Wed May  4 14:28:15 2022.
