 Gaussian 16, Revision A.03,
 Gaussian 16:  ES64L-G16RevA.03 25-Dec-2016

 ---------------------------------
 #p PBE1PBE/Def2SVP td=(nstates=5)
 ---------------------------------

 ------------------------------------------------------
 step_1851_chromophore_12 TDDFT with PBE1PBE functional
 ------------------------------------------------------
 Symbolic Z-matrix:
 Charge =  0 Multiplicity = 1

                         Standard orientation:
 ---------------------------------------------------------------------
 Center     Atomic      Atomic             Coordinates (Angstroms)
 Number     Number       Type             X           Y           Z
 ---------------------------------------------------------------------
      1         12           0       -4.079115    0.319671   -0.285305
      2          6           0       -2.818182   -2.839086    0.772534
      3          6           0       -0.914535    1.465306   -0.699329
      4          6           0       -5.467977    3.194101   -1.231356
      5          6           0       -7.419671   -0.872908    0.550950
      6          7           0       -2.199793   -0.593834    0.047103
      7          6           0       -1.836069   -1.890725    0.386927
      8          6           0       -0.390819   -2.176322    0.183480
      9          6           0        0.184930   -0.670845    0.197027
     10          6           0       -1.055268    0.152370   -0.278583
     11          6           0        0.728824   -0.273073    1.608027
     12          6           0       -0.010224   -2.926689   -1.115420
     13          6           0        1.390221   -3.658982   -1.050746
     14          6           0        2.451847   -3.861754   -2.100353
     15          8           0        2.311047   -3.804179   -3.315599
     16          8           0        3.690432   -4.164594   -1.602526
     17          7           0       -3.303636    2.136057   -0.818617
     18          6           0       -1.929286    2.380857   -1.005298
     19          6           0       -1.820651    3.756654   -1.490249
     20          6           0       -3.146264    4.261671   -1.622028
     21          6           0       -4.069776    3.204752   -1.252634
     22          6           0       -0.435142    4.262021   -1.758153
     23          6           0       -3.649112    5.691225   -2.083077
     24          8           0       -4.839629    6.077796   -2.173705
     25          6           0       -2.662140    6.702792   -2.346184
     26          7           0       -6.158688    1.082918   -0.140893
     27          6           0       -6.407084    2.260914   -0.768101
     28          6           0       -7.860917    2.501991   -0.948158
     29          6           0       -8.492870    1.196787   -0.427587
     30          6           0       -7.305935    0.376369   -0.014629
     31          6           0       -8.403287    3.745035   -0.310287
     32          6           0       -9.377157    0.528031   -1.527401
     33          6           0       -8.704089    0.165569   -2.840445
     34          7           0       -5.019434   -1.483087    0.580061
     35          6           0       -6.346432   -1.788757    0.762907
     36          6           0       -6.390909   -3.041792    1.454779
     37          6           0       -5.021000   -3.599324    1.305415
     38          6           0       -4.210460   -2.552590    0.849890
     39          6           0       -7.610066   -3.737795    1.909662
     40          6           0       -4.207423   -4.743951    1.498771
     41          8           0       -4.533352   -5.850281    1.792669
     42          6           0       -2.708934   -4.294062    1.124618
     43          6           0       -1.893250   -4.593275    2.357809
     44          8           0       -1.955156   -3.871574    3.356807
     45          8           0       -1.222725   -5.811534    2.227877
     46          6           0       -0.249923   -6.035284    3.300714
     47          6           0        4.762449   -4.172740   -2.576241
     48          6           0        6.051048   -3.828437   -1.842576
     49          6           0        7.131328   -3.368480   -2.318768
     50          6           0        7.301551   -3.138414   -3.774064
     51          6           0        8.323164   -3.014609   -1.381205
     52          6           0        9.243508   -1.938737   -1.913248
     53          6           0       10.295328   -1.506076   -0.976947
     54          6           0       10.428118    0.008213   -0.763043
     55          6           0       11.999245    0.203095   -0.413228
     56          6           0        9.495768    0.504625    0.369060
     57          6           0        8.860659    1.919116    0.079936
     58          6           0        8.592784    2.652630    1.382301
     59          6           0        7.433155    3.669361    1.349930
     60          6           0        7.998687    5.128836    1.266043
     61          6           0        6.493860    3.680411    2.624529
     62          6           0        4.982088    3.578261    2.289541
     63          6           0        4.123656    4.303241    3.407551
     64          6           0        2.872081    5.020480    2.790886
     65          6           0        2.337696    5.980226    3.918678
     66          6           0        1.853808    3.948331    2.345775
     67          1           0        0.146442    1.721205   -0.681786
     68          1           0       -5.870304    4.129373   -1.626696
     69          1           0       -8.439310   -1.261825    0.532964
     70          1           0       -0.023115   -2.811676    0.987883
     71          1           0        1.002388   -0.459301   -0.491657
     72          1           0        0.608697   -1.044031    2.368921
     73          1           0        0.206553    0.630160    1.922785
     74          1           0        1.796374   -0.194788    1.400921
     75          1           0       -0.079639   -2.261074   -1.975338
     76          1           0       -0.814627   -3.650348   -1.245710
     77          1           0        1.057510   -4.646166   -0.729884
     78          1           0        1.858764   -3.224910   -0.167232
     79          1           0       -0.417781    5.093466   -2.462963
     80          1           0        0.264185    3.541985   -2.184419
     81          1           0       -0.098415    4.481902   -0.745195
     82          1           0       -1.905209    6.854072   -1.575324
     83          1           0       -3.152361    7.670262   -2.459784
     84          1           0       -2.160703    6.570013   -3.304447
     85          1           0       -8.041650    2.670101   -2.009555
     86          1           0       -9.190288    1.362958    0.394701
     87          1           0       -8.837746    4.436739   -1.031755
     88          1           0       -7.561948    4.279430    0.130215
     89          1           0       -9.187841    3.595601    0.431166
     90          1           0      -10.109418    1.266631   -1.854965
     91          1           0       -9.958385   -0.215208   -0.981585
     92          1           0       -7.633219    0.370363   -2.834583
     93          1           0       -9.195515    0.616437   -3.702375
     94          1           0       -8.723521   -0.895960   -3.089333
     95          1           0       -7.158155   -4.478901    2.569429
     96          1           0       -8.091920   -4.222290    1.060065
     97          1           0       -8.355147   -3.146874    2.443090
     98          1           0       -2.269073   -4.929781    0.355835
     99          1           0       -0.051523   -7.101554    3.412014
    100          1           0       -0.668898   -5.858402    4.291334
    101          1           0        0.603327   -5.413019    3.029831
    102          1           0        4.561489   -3.448285   -3.365307
    103          1           0        4.975600   -5.100486   -3.107719
    104          1           0        6.052096   -4.095673   -0.786218
    105          1           0        7.632724   -2.104766   -3.871983
    106          1           0        6.405769   -3.172480   -4.394580
    107          1           0        8.051557   -3.854254   -4.108482
    108          1           0        8.823347   -3.981255   -1.314392
    109          1           0        7.897417   -2.657709   -0.443895
    110          1           0        8.718872   -1.026416   -2.196024
    111          1           0        9.725560   -2.354901   -2.799046
    112          1           0       11.202918   -2.008177   -1.311280
    113          1           0       10.072843   -1.928386    0.003265
    114          1           0       10.412813    0.528054   -1.721148
    115          1           0       12.143295    0.632974    0.578066
    116          1           0       12.491331    0.817214   -1.168297
    117          1           0       12.517070   -0.739363   -0.238166
    118          1           0       10.002791    0.394822    1.327410
    119          1           0        8.625956   -0.151287    0.337112
    120          1           0        7.978710    1.730911   -0.533123
    121          1           0        9.634318    2.480718   -0.443428
    122          1           0        9.545529    3.156043    1.544019
    123          1           0        8.433348    1.938927    2.190803
    124          1           0        6.879582    3.471738    0.432531
    125          1           0        7.281381    5.861835    0.898604
    126          1           0        8.709049    5.003298    0.448594
    127          1           0        8.436539    5.404023    2.226273
    128          1           0        6.749659    4.603182    3.145275
    129          1           0        6.656423    2.804563    3.252736
    130          1           0        4.789580    2.507076    2.229865
    131          1           0        4.765978    4.015390    1.314088
    132          1           0        4.705588    4.973672    4.040897
    133          1           0        3.945476    3.484457    4.105164
    134          1           0        3.263301    5.652942    1.993930
    135          1           0        1.323899    5.724335    4.224940
    136          1           0        2.292850    7.031766    3.635638
    137          1           0        2.909265    6.034952    4.845045
    138          1           0        1.138094    3.643924    3.110166
    139          1           0        2.465715    3.067422    2.152661
    140          1           0        1.223339    4.237747    1.504936
 ---------------------------------------------------------------------

 SCF Done:  E(RPBE1PBE) =  -3005.33947555     A.U. after   15 cycles

 Excitation energies and oscillator strengths:

 Excited State   1:      Singlet-A      1.8129 eV  683.91 nm  f=0.3676  <S**2>=0.000
     245 -> 248       -0.16719
     246 -> 247        0.69553
     246 <- 247       -0.11386
 This state for optimization and/or second-order correction.
 Total Energy, E(TD-HF/TD-DFT) =  -3005.27285391
 Copying the excited state density for this state as the 1-particle RhoCI density.

 Excited State   2:      Singlet-A      2.1907 eV  565.96 nm  f=0.1148  <S**2>=0.000
     244 -> 247        0.10686
     245 -> 247        0.65208
     246 -> 248        0.24329

 Excited State   3:      Singlet-A      2.5467 eV  486.85 nm  f=0.0139  <S**2>=0.000
     244 -> 247        0.69327

 Excited State   4:      Singlet-A      2.8135 eV  440.67 nm  f=0.0004  <S**2>=0.000
     243 -> 247        0.69002
     243 -> 249       -0.10420

 Excited State   5:      Singlet-A      3.0549 eV  405.86 nm  f=0.0105  <S**2>=0.000
     241 -> 247        0.68992

 The electronic state is 1-A.
 Alpha  occ. eigenvalues --  -46.92037 -19.25917 -19.25835 -19.20068 -19.19941
 Alpha  occ. eigenvalues --  -19.19793 -19.18636 -14.42333 -14.41449 -14.39540
 Alpha  occ. eigenvalues --  -14.38050 -10.37017 -10.36377 -10.33198 -10.31348
 Alpha  occ. eigenvalues --  -10.29401 -10.29309 -10.29023 -10.28927 -10.28518
 Alpha  occ. eigenvalues --  -10.28383 -10.28253 -10.27897 -10.27140 -10.26906
 Alpha  occ. eigenvalues --  -10.26602 -10.26436 -10.26269 -10.26195 -10.26153
 Alpha  occ. eigenvalues --  -10.26105 -10.25721 -10.25720 -10.25613 -10.25326
 Alpha  occ. eigenvalues --  -10.24991 -10.24921 -10.24506 -10.24327 -10.24321
 Alpha  occ. eigenvalues --  -10.24114 -10.24024 -10.24008 -10.23700 -10.23493
 Alpha  occ. eigenvalues --  -10.23428 -10.23244 -10.23161 -10.22924 -10.22882
 Alpha  occ. eigenvalues --  -10.22872 -10.22776 -10.22746 -10.22740 -10.22695
 Alpha  occ. eigenvalues --  -10.22578 -10.22537 -10.22414 -10.22327 -10.22225
 Alpha  occ. eigenvalues --  -10.22204 -10.22194 -10.22062 -10.21816 -10.21800
 Alpha  occ. eigenvalues --  -10.21389  -3.14053  -1.86909  -1.86426  -1.86269
 Alpha  occ. eigenvalues --   -1.11886  -1.10043  -1.05813  -1.03940  -1.02302
 Alpha  occ. eigenvalues --   -1.02171  -0.99154  -0.97679  -0.96909  -0.96296
 Alpha  occ. eigenvalues --   -0.86785  -0.85650  -0.84140  -0.83894  -0.83726
 Alpha  occ. eigenvalues --   -0.83516  -0.83070  -0.82224  -0.81859  -0.81457
 Alpha  occ. eigenvalues --   -0.80105  -0.79751  -0.79103  -0.78174  -0.77895
 Alpha  occ. eigenvalues --   -0.77039  -0.76889  -0.76084  -0.75379  -0.74900
 Alpha  occ. eigenvalues --   -0.74187  -0.72985  -0.72512  -0.71839  -0.70494
 Alpha  occ. eigenvalues --   -0.70293  -0.70041  -0.69661  -0.69001  -0.68100
 Alpha  occ. eigenvalues --   -0.68011  -0.66872  -0.66308  -0.65187  -0.64562
 Alpha  occ. eigenvalues --   -0.62720  -0.62563  -0.61487  -0.60607  -0.60048
 Alpha  occ. eigenvalues --   -0.59729  -0.59224  -0.59159  -0.58860  -0.58453
 Alpha  occ. eigenvalues --   -0.58320  -0.58163  -0.57186  -0.56342  -0.55042
 Alpha  occ. eigenvalues --   -0.54933  -0.54020  -0.53442  -0.53137  -0.52141
 Alpha  occ. eigenvalues --   -0.51574  -0.51436  -0.50853  -0.50769  -0.50634
 Alpha  occ. eigenvalues --   -0.50183  -0.50111  -0.49859  -0.49088  -0.49024
 Alpha  occ. eigenvalues --   -0.48869  -0.48210  -0.47988  -0.47885  -0.47712
 Alpha  occ. eigenvalues --   -0.47473  -0.47194  -0.46969  -0.46945  -0.46751
 Alpha  occ. eigenvalues --   -0.46650  -0.46456  -0.46030  -0.45716  -0.45442
 Alpha  occ. eigenvalues --   -0.45221  -0.44978  -0.44763  -0.44563  -0.44494
 Alpha  occ. eigenvalues --   -0.44102  -0.43977  -0.43940  -0.43746  -0.43695
 Alpha  occ. eigenvalues --   -0.43569  -0.43435  -0.43153  -0.42815  -0.42745
 Alpha  occ. eigenvalues --   -0.42531  -0.42229  -0.41989  -0.41606  -0.41423
 Alpha  occ. eigenvalues --   -0.41139  -0.41087  -0.40956  -0.40520  -0.40434
 Alpha  occ. eigenvalues --   -0.40258  -0.40207  -0.39871  -0.39800  -0.39669
 Alpha  occ. eigenvalues --   -0.39278  -0.39045  -0.38855  -0.38734  -0.38489
 Alpha  occ. eigenvalues --   -0.38463  -0.38309  -0.37990  -0.37870  -0.37561
 Alpha  occ. eigenvalues --   -0.37370  -0.37244  -0.37165  -0.37110  -0.37010
 Alpha  occ. eigenvalues --   -0.36784  -0.36463  -0.36397  -0.36251  -0.36134
 Alpha  occ. eigenvalues --   -0.36097  -0.35779  -0.35569  -0.35475  -0.35101
 Alpha  occ. eigenvalues --   -0.34708  -0.34632  -0.33787  -0.33718  -0.33585
 Alpha  occ. eigenvalues --   -0.33560  -0.33223  -0.33142  -0.32955  -0.32492
 Alpha  occ. eigenvalues --   -0.32371  -0.31901  -0.31839  -0.31821  -0.31695
 Alpha  occ. eigenvalues --   -0.31590  -0.30579  -0.30320  -0.29392  -0.29023
 Alpha  occ. eigenvalues --   -0.28759  -0.28644  -0.28326  -0.27178  -0.26468
 Alpha  occ. eigenvalues --   -0.25881  -0.25604  -0.25235  -0.23874  -0.21338
 Alpha  occ. eigenvalues --   -0.19186
 Alpha virt. eigenvalues --   -0.11778  -0.05442  -0.04243  -0.02419  -0.00253
 Alpha virt. eigenvalues --    0.00013   0.00241   0.00698   0.02701   0.03401
 Alpha virt. eigenvalues --    0.03779   0.03901   0.04421   0.05144   0.05318

 Mulliken charges:
               1
     1  Mg   0.933816
     2  C    0.022376
     3  C   -0.075860
     4  C   -0.049557
     5  C   -0.032261
     6  N   -0.437257
     7  C    0.088058
     8  C   -0.137893
     9  C   -0.176753
    10  C    0.093272
    11  C    0.026174
    12  C    0.066963
    13  C   -0.064939
    14  C    0.244434
    15  O   -0.268150
    16  O   -0.361093
    17  N   -0.551840
    18  C    0.209677
    19  C   -0.176185
    20  C   -0.097204
    21  C    0.153328
    22  C    0.042785
    23  C    0.105114
    24  O   -0.259999
    25  C   -0.031757
    26  N   -0.350647
    27  C    0.082341
    28  C   -0.117636
    29  C   -0.080753
    30  C    0.071193
    31  C    0.021074
    32  C   -0.041804
    33  C   -0.069764
    34  N   -0.443484
    35  C    0.141217
    36  C   -0.170292
    37  C   -0.042662
    38  C    0.144187
    39  C    0.039508
    40  C    0.090849
    41  O   -0.183608
    42  C   -0.145248
    43  C    0.278002
    44  O   -0.261107
    45  O   -0.374361
    46  C    0.124544
    47  C    0.254280
    48  C   -0.168828
    49  C   -0.219320
    50  C    0.029299
    51  C    0.020153
    52  C   -0.077713
    53  C    0.015636
    54  C   -0.239514
    55  C   -0.030699
    56  C    0.007978
    57  C   -0.054362
    58  C   -0.005454
    59  C   -0.217164
    60  C   -0.030247
    61  C    0.012435
    62  C   -0.078133
    63  C   -0.060652
    64  C   -0.207280
    65  C   -0.021962
    66  C   -0.010491
    67  H    0.010844
    68  H    0.026373
    69  H    0.010757
    70  H    0.042633
    71  H    0.035571
    72  H    0.056094
    73  H    0.059770
    74  H    0.045526
    75  H    0.046828
    76  H    0.039979
    77  H    0.081490
    78  H    0.060656
    79  H    0.045554
    80  H    0.057700
    81  H    0.074858
    82  H    0.064345
    83  H    0.051681
    84  H    0.068555
    85  H    0.057094
    86  H    0.045279
    87  H    0.035334
    88  H    0.050784
    89  H    0.037891
    90  H    0.035422
    91  H    0.037431
    92  H    0.051221
    93  H    0.043797
    94  H    0.040185
    95  H    0.067950
    96  H    0.064911
    97  H    0.047845
    98  H    0.068179
    99  H    0.058349
   100  H    0.064764
   101  H    0.057850
   102  H    0.059128
   103  H    0.056095
   104  H    0.011708
   105  H    0.045265
   106  H    0.031735
   107  H    0.055107
   108  H    0.049734
   109  H    0.040259
   110  H    0.036712
   111  H    0.031067
   112  H    0.023500
   113  H    0.018820
   114  H    0.036728
   115  H    0.017624
   116  H    0.044411
   117  H    0.031125
   118  H    0.039984
   119  H    0.031370
   120  H    0.035634
   121  H    0.036794
   122  H    0.027555
   123  H    0.028591
   124  H    0.028350
   125  H    0.037102
   126  H    0.028567
   127  H    0.052299
   128  H    0.027027
   129  H    0.023778
   130  H    0.040372
   131  H    0.030467
   132  H    0.032554
   133  H    0.028585
   134  H    0.042536
   135  H    0.027563
   136  H    0.027918
   137  H    0.031293
   138  H    0.038390
   139  H    0.035125
   140  H    0.040869
 Sum of Mulliken charges =  -0.00000

 Dipole moment (field-independent basis, Debye):
    X=              4.0837    Y=              3.1336    Z=             -1.5399  Tot=              5.3728
 Quadrupole moment (field-independent basis, Debye-Ang):
   XX=           -361.7741   YY=           -425.5287   ZZ=           -412.8302
   XY=            -12.9550   XZ=              9.7801   YZ=             -0.7111

 Normal termination of Gaussian 16 at Wed May  4 14:47:55 2022.
